Title
81378
    1CHL1    C3    1   1.551   2.448  10.138  0.1427  0.5361 -0.2860
    1CHL1    H3    2   1.648   2.479  10.094  0.1350  1.2720  0.1996
    1CHL1    O3    3   1.546   2.458  10.283  0.0706 -0.5024  0.3061
    1CHL1   H3'    4   1.452   2.458  10.301  0.0678 -1.1053  0.3052
    1CHL1    C4    5   1.435   2.529  10.068  0.5089  0.6685  0.1016
    1CHL1   H4A    6   1.341   2.512  10.125  1.3518  0.3332  1.4358
    1CHL1   H4B    7   1.442   2.640  10.077 -2.4905  1.0712 -1.1610
    1CHL1    C5    8   1.432   2.488   9.925  0.0809  0.0999  0.2632
    1CHL1    C6    9   1.439   2.581   9.832 -0.7189 -0.3751  0.1590
    1CHL1    H6   10   1.453   2.686   9.861 -0.3928 -0.7775  1.5242
    1CHL1    C7   11   1.416   2.554   9.689 -0.1445  0.3445  0.5237
    1CHL1   H7A   12   1.356   2.638   9.649 -0.1420 -0.1320 -0.5312
    1CHL1   H7B   13   1.509   2.563   9.628  0.5337  1.2804  1.6567
    1CHL1    C8   14   1.368   2.414   9.654 -0.8437  0.7000  0.2904
    1CHL1    H8   15   1.262   2.400   9.686 -0.4665 -1.0316  0.9022
    1CHL1   C14   16   1.370   2.384   9.507 -0.5668 -0.3121  0.4133
    1CHL1   H14   17   1.474   2.384   9.468 -1.1241  2.3072 -1.2696
    1CHL1   C15   18   1.308   2.485   9.415 -0.2395  0.3438  0.0512
    1CHL1  H15A   19   1.208   2.515   9.453  0.1875 -0.5781  2.0705
    1CHL1  H15B   20   1.371   2.576   9.412  1.1309 -0.4783  1.8764
    1CHL1   C16   21   1.284   2.409   9.281 -0.4452 -0.1709 -0.4981
    1CHL1  H16A   22   1.182   2.430   9.242  0.3497  3.3729 -1.0135
    1CHL1  H16B   23   1.353   2.436   9.198 -0.1374 -0.5777 -0.3766
    1CHL1   C17   24   1.309   2.258   9.311 -0.6087 -0.0346 -0.2570
    1CHL1   H17   25   1.408   2.225   9.274  0.3614  1.7163  0.6388
    1CHL1   C13   26   1.312   2.241   9.465  0.2484  0.6419 -0.3183
    1CHL1   C18   27   1.165   2.232   9.508 -0.0922 -0.2781  0.1800
    1CHL1  H18A   28   1.121   2.131   9.492 -1.5260 -0.1795  2.9276
    1CHL1  H18B   29   1.155   2.236   9.618  1.3197 -0.0235  0.3210
    1CHL1  H18C   30   1.107   2.310   9.453 -0.5124 -1.0374 -0.4822
    1CHL1   C12   31   1.400   2.132   9.537 -0.1790 -0.2686 -0.0363
    1CHL1  H12A   32   1.364   2.028   9.522 -1.2635  0.0440  0.2871
    1CHL1  H12B   33   1.501   2.150   9.495 -0.3461  1.5775  0.2356
    1CHL1   C11   34   1.413   2.168   9.692  0.2795 -0.1674 -0.0622
    1CHL1  H11A   35   1.317   2.132   9.733  0.8360 -1.2593  0.3244
    1CHL1  H11B   36   1.484   2.105   9.750 -1.9549 -2.4352  0.3782
    1CHL1    C9   37   1.439   2.314   9.739 -0.3522  0.4844 -0.1300
    1CHL1    H9   38   1.545   2.335   9.712 -0.6052  1.8376 -0.1338
    1CHL1   C10   39   1.420   2.341   9.893 -0.0574 -0.0935  0.1771
    1CHL1   C19   40   1.281   2.286   9.946 -0.1942 -0.4208 -0.0777
    1CHL1  H19A   41   1.269   2.326  10.048 -2.1476  1.2418 -0.9017
    1CHL1  H19B   42   1.198   2.337   9.892  0.6756  3.0523  1.5837
    1CHL1  H19C   43   1.277   2.175   9.937 -0.6855 -0.3909 -0.2492
    1CHL1    C1   44   1.538   2.273   9.964  0.4830 -0.1396  1.1652
    1CHL1   H1A   45   1.533   2.164   9.946  0.5676 -0.0101  0.3291
    1CHL1   H1B   46   1.631   2.318   9.924 -0.3575  0.8082  0.2210
    1CHL1    C2   47   1.542   2.303  10.114  0.5430 -0.0435  0.1083
    1CHL1   H2A   48   1.638   2.264  10.153  0.0738 -0.6763  0.6496
    1CHL1   H2B   49   1.458   2.259  10.171  1.1853  0.8463  1.8150
    1CHL1   C20   50   1.222   2.172   9.227  0.4249  0.6666  0.4748
    1CHL1   H20   51   1.118   2.172   9.266  0.6595 -2.0496  1.3488
    1CHL1   C21   52   1.270   2.022   9.245  0.0637 -0.0971 -0.0536
    1CHL1  H21A   53   1.207   1.956   9.182 -2.1889  0.2772  1.6665
    1CHL1  H21B   54   1.254   1.993   9.351 -1.8131  0.4620 -0.1328
    1CHL1  H21C   55   1.377   2.002   9.222  0.5310  1.8910  0.2430
    1CHL1   C22   56   1.231   2.212   9.075  0.2448  0.3823 -0.8597
    1CHL1  H22A   57   1.233   2.320   9.051  3.5780  0.3442 -1.2060
    1CHL1  H22B   58   1.336   2.183   9.053  0.5910  0.5423  0.4758
    1CHL1   C23   59   1.136   2.131   8.980 -0.3437 -0.6005 -0.3628
    1CHL1  H23A   60   1.179   2.029   8.978  2.2333  0.3938  0.3314
    1CHL1  H23B   61   1.036   2.138   9.028 -0.1133  0.5109 -0.0015
    1CHL1   C24   62   1.152   2.188   8.836  0.1741 -0.4261  0.9516
    1CHL1  H24A   63   1.096   2.282   8.818 -1.1455 -1.4200 -0.3129
    1CHL1  H24B   64   1.261   2.210   8.827  0.2779 -0.3408  2.1875
    1CHL1   C25   65   1.118   2.090   8.722  0.7279  0.8929 -0.0015
    1CHL1   H25   66   1.153   1.991   8.758 -0.8672  1.5863  4.0631
    1CHL1   C26   67   0.963   2.087   8.704  0.1340 -0.1726 -0.2771
    1CHL1  H26A   68   0.928   2.006   8.636 -3.4799 -0.1189  1.2667
    1CHL1  H26B   69   0.929   2.076   8.809  1.3443  2.0138  0.4088
    1CHL1  H26C   70   0.928   2.185   8.664 -1.7341 -1.0850 -1.0343
    1CHL1   C27   71   1.182   2.115   8.587 -0.3418  0.2419 -0.3927
    1CHL1  H27A   72   1.191   2.222   8.559  2.8854  0.8963  2.4050
    1CHL1  H27B   73   1.287   2.083   8.600  0.3819  2.7654  0.6663
    1CHL1  H27C   74   1.131   2.057   8.508 -2.3373  0.9022  0.3216
    2CHL1    C3   75   2.419   6.177  10.075 -0.2213  0.1161  0.2585
    2CHL1    H3   76   2.498   6.106  10.042  0.2340 -0.8060  3.0924
    2CHL1    O3   77   2.392   6.138  10.206  0.5354  0.3752  1.3257
    2CHL1   H3'   78   2.357   6.218  10.246 -2.3914 -0.1015  0.0358
    2CHL1    C4   79   2.467   6.325  10.077  0.0848 -0.0173 -0.7604
    2CHL1   H4A   80   2.386   6.392  10.112 -1.1883 -1.4501 -0.8491
    2CHL1   H4B   81   2.545   6.346  10.153 -0.7975  0.4064  0.0443
    2CHL1    C5   82   2.516   6.373   9.949  0.4380 -0.4432  0.2848
    2CHL1    C6   83   2.643   6.418   9.924  0.3490 -0.0149 -0.0779
    2CHL1    H6   84   2.725   6.415   9.998 -0.9992  2.6864  1.7055
    2CHL1    C7   85   2.698   6.463   9.789 -0.2228  0.0711 -0.7298
    2CHL1   H7A   86   2.763   6.553   9.797  0.4339 -0.2881 -1.8350
    2CHL1   H7B   87   2.760   6.381   9.748  2.7319  1.0229  1.4423
    2CHL1    C8   88   2.573   6.492   9.696 -0.5887 -0.3387 -0.0046
    2CHL1    H8   89   2.522   6.587   9.725 -0.3713 -0.0126 -0.6763
    2CHL1   C14   90   2.621   6.504   9.556 -0.5023 -1.2229  0.4347
    2CHL1   H14   91   2.666   6.404   9.532  0.7204 -0.8346  1.0231
    2CHL1   C15   92   2.730   6.614   9.526  0.0684  0.4787 -0.6188
    2CHL1  H15A   93   2.695   6.709   9.572  0.2790 -0.7613  2.3075
    2CHL1  H15B   94   2.830   6.591   9.568  0.3877  1.8872 -0.5664
    2CHL1   C16   95   2.733   6.618   9.375 -0.2783  0.3170 -0.4583
    2CHL1  H16A   96   2.736   6.723   9.338  1.0444  0.9197  1.2488
    2CHL1  H16B   97   2.815   6.560   9.329  0.3426  1.0092 -0.2392
    2CHL1   C17   98   2.597   6.553   9.327  0.3997  0.3459  0.2288
    2CHL1   H17   99   2.628   6.454   9.287  2.0611  1.8739 -2.5558
    2CHL1   C13  100   2.516   6.527   9.450  0.1128  0.5022  0.1761
    2CHL1   C18  101   2.432   6.653   9.485 -0.0415 -0.8896  0.0155
    2CHL1  H18A  102   2.489   6.748   9.476 -0.8924 -0.4350 -0.8585
    2CHL1  H18B  103   2.348   6.660   9.412  0.3332 -0.0129 -0.3498
    2CHL1  H18C  104   2.372   6.660   9.579 -1.4894  1.2654 -0.9666
    2CHL1   C12  105   2.428   6.400   9.449  0.3095 -0.9164 -0.1315
    2CHL1  H12A  106   2.354   6.408   9.366 -0.9890  2.8485  1.1947
    2CHL1  H12B  107   2.485   6.305   9.437 -2.5818 -2.4756 -3.3119
    2CHL1   C11  108   2.360   6.380   9.587 -0.5203  0.2988  0.3697
    2CHL1  H11A  109   2.293   6.467   9.607 -2.6746 -1.4183  1.0774
    2CHL1  H11B  110   2.303   6.285   9.592  0.6887 -0.5526 -1.2071
    2CHL1    C9  111   2.466   6.381   9.700 -1.0345 -0.0906  0.1640
    2CHL1    H9  112   2.536   6.296   9.692 -0.5268 -0.0951  3.2352
    2CHL1   C10  113   2.403   6.369   9.843  0.6565  0.0373  0.3604
    2CHL1   C19  114   2.305   6.483   9.873 -0.0017 -0.0054 -0.4024
    2CHL1  H19A  115   2.235   6.462   9.957 -0.2251 -1.7249 -0.9802
    2CHL1  H19B  116   2.359   6.576   9.901  0.3765 -0.3415 -0.0062
    2CHL1  H19C  117   2.231   6.493   9.791  0.4276 -1.9120 -1.0695
    2CHL1    C1  118   2.341   6.228   9.850 -0.0208  0.2932  0.1210
    2CHL1   H1A  119   2.257   6.229   9.777  0.7829 -1.1692 -0.8702
    2CHL1   H1B  120   2.420   6.157   9.817  0.6231  0.5884  0.9908
    2CHL1    C2  121   2.288   6.179   9.990 -0.2960  0.1277  0.0217
    2CHL1   H2A  122   2.244   6.077   9.985  0.5410 -0.2741  0.5581
    2CHL1   H2B  123   2.215   6.245  10.042  0.7905  1.2720  0.1458
    2CHL1   C20  124   2.531   6.624   9.203 -0.1441 -0.1717 -0.2566
    2CHL1   H20  125   2.495   6.725   9.231 -1.8494 -0.5276 -1.0585
    2CHL1   C21  126   2.413   6.545   9.152  0.6542  0.5394 -0.0160
    2CHL1  H21A  127   2.318   6.550   9.210 -0.8251 -0.8248 -2.1545
    2CHL1  H21B  128   2.441   6.439   9.136 -1.5410 -0.2634  1.0729
    2CHL1  H21C  129   2.382   6.585   9.053 -0.3405  0.6505  0.3283
    2CHL1   C22  130   2.627   6.639   9.086  0.1074 -0.5814 -0.0467
    2CHL1  H22A  131   2.728   6.660   9.128  1.1169 -0.9151 -2.1739
    2CHL1  H22B  132   2.634   6.537   9.043 -1.0563 -0.6628 -0.0784
    2CHL1   C23  133   2.591   6.751   8.993  0.0402 -0.4499 -0.1139
    2CHL1  H23A  134   2.490   6.723   8.955 -0.5517  1.1000  0.2453
    2CHL1  H23B  135   2.588   6.852   9.038  0.5363 -0.0969 -0.8521
    2CHL1   C24  136   2.688   6.762   8.873 -0.3964 -0.1628 -0.0826
    2CHL1  H24A  137   2.789   6.796   8.902 -0.7396  1.2904 -0.5234
    2CHL1  H24B  138   2.705   6.666   8.820 -0.9480 -0.5634  0.4549
    2CHL1   C25  139   2.631   6.852   8.756 -0.1795  0.3173 -0.1644
    2CHL1   H25  140   2.532   6.810   8.728  0.4709 -0.2936 -1.6580
    2CHL1   C26  141   2.606   6.999   8.795  0.2996  0.5225  0.0515
    2CHL1  H26A  142   2.697   7.035   8.847 -1.6661  4.1519  1.3037
    2CHL1  H26B  143   2.583   7.066   8.710 -1.0957  1.7299  1.3269
    2CHL1  H26C  144   2.518   6.998   8.863  0.8002  0.3299  0.7006
    2CHL1   C27  145   2.721   6.839   8.632  0.1275  0.0510  1.0559
    2CHL1  H27A  146   2.745   6.735   8.600 -0.1667 -0.0047  1.0141
    2CHL1  H27B  147   2.662   6.870   8.544  0.8037 -2.7367 -0.4977
    2CHL1  H27C  148   2.809   6.907   8.641 -0.8341  1.6301 -0.7232
    3CHL1    C3  149   2.948   5.448  10.194 -0.1908 -0.1546  0.2960
    3CHL1    H3  150   3.008   5.542  10.194 -0.6889  0.1874  1.8719
    3CHL1    O3  151   2.900   5.416  10.325 -0.7169 -0.8509  0.1560
    3CHL1   H3'  152   2.979   5.370  10.353  0.2971 -1.1208 -2.7520
    3CHL1    C4  153   2.828   5.452  10.101 -0.3333  0.0985  0.4079
    3CHL1   H4A  154   2.769   5.362  10.128 -0.1916  0.5602  2.4637
    3CHL1   H4B  155   2.766   5.542  10.119 -0.1422 -0.0355  1.8449
    3CHL1    C5  156   2.873   5.443   9.954  0.5760  0.0648 -0.1618
    3CHL1    C6  157   2.839   5.542   9.866  0.0747 -0.0297  0.8793
    3CHL1    H6  158   2.780   5.629   9.897 -0.1796  0.3291 -0.5188
    3CHL1    C7  159   2.870   5.540   9.716  0.1263  0.4708 -0.0617
    3CHL1   H7A  160   2.787   5.585   9.657 -0.2318 -2.1554 -1.7650
    3CHL1   H7B  161   2.959   5.598   9.686  0.0780 -0.7864 -3.0036
    3CHL1    C8  162   2.906   5.394   9.669  0.3573 -0.2174 -0.8090
    3CHL1    H8  163   2.814   5.333   9.683  1.4992 -1.8727 -0.0968
    3CHL1   C14  164   2.953   5.396   9.525 -0.0443  0.1173  0.0122
    3CHL1   H14  165   3.045   5.458   9.530  1.6282 -2.0247 -2.0595
    3CHL1   C15  166   2.855   5.450   9.423  0.5373 -0.3921 -0.3954
    3CHL1  H15A  167   2.753   5.411   9.439  0.7560 -1.2502 -1.0275
    3CHL1  H15B  168   2.852   5.561   9.414  1.2734 -0.1940  1.5113
    3CHL1   C16  169   2.916   5.413   9.296  0.1393 -0.1226  0.6384
    3CHL1  H16A  170   2.841   5.360   9.233 -0.2990 -0.0314  1.0783
    3CHL1  H16B  171   2.959   5.495   9.235 -0.9946  0.4638  0.6037
    3CHL1   C17  172   3.034   5.314   9.322  0.7261  0.9798 -0.4725
    3CHL1   H17  173   3.124   5.378   9.320  1.3897  0.2686  2.2085
    3CHL1   C13  174   2.995   5.265   9.467 -0.0407 -0.2734 -0.4450
    3CHL1   C18  175   2.881   5.170   9.458 -0.0281 -0.0099  0.0045
    3CHL1  H18A  176   2.918   5.066   9.448  0.8878  0.5032 -2.8940
    3CHL1  H18B  177   2.841   5.170   9.562 -0.8979 -1.2251 -0.3076
    3CHL1  H18C  178   2.794   5.186   9.392  0.4331 -0.6961 -0.7915
    3CHL1   C12  179   3.104   5.207   9.560  0.2087  0.7047 -0.0006
    3CHL1  H12A  180   3.148   5.107   9.538 -1.4411 -0.2511  0.8954
    3CHL1  H12B  181   3.188   5.280   9.548  0.7950 -0.2948 -2.8312
    3CHL1   C11  182   3.062   5.193   9.702  0.0393  0.1574 -0.3343
    3CHL1  H11A  183   2.980   5.118   9.709 -0.3804  0.6862  0.5183
    3CHL1  H11B  184   3.148   5.159   9.762  0.0163  0.7283  0.0227
    3CHL1    C9  185   3.014   5.330   9.762  0.1984 -0.3146  0.0052
    3CHL1    H9  186   3.100   5.400   9.755 -0.5211  0.6227  0.2887
    3CHL1   C10  187   2.962   5.326   9.911 -0.1736  0.7196 -0.3521
    3CHL1   C19  188   2.872   5.203   9.934  0.6901 -0.2237  0.2049
    3CHL1  H19A  189   2.837   5.190  10.039 -1.0412  0.0939 -0.3162
    3CHL1  H19B  190   2.789   5.184   9.863  0.3792 -3.4890  1.2707
    3CHL1  H19C  191   2.928   5.109   9.913  1.7670  0.8151 -1.8564
    3CHL1    C1  192   3.086   5.326  10.015  0.5819  0.3111  0.2378
    3CHL1   H1A  193   3.151   5.238   9.998 -0.1423  0.2083 -2.3908
    3CHL1   H1B  194   3.142   5.417   9.986 -3.4256  2.6717 -0.9009
    3CHL1    C2  195   3.047   5.333  10.162  0.5566  0.2847  0.4147
    3CHL1   H2A  196   3.132   5.349  10.231  1.2598 -1.4420 -0.0058
    3CHL1   H2B  197   3.004   5.234  10.188  0.7985  0.0515 -0.0616
    3CHL1   C20  198   3.052   5.212   9.202  0.0275 -0.3828 -0.1520
    3CHL1   H20  199   2.964   5.145   9.204  1.1615 -1.9203  1.0470
    3CHL1   C21  200   3.175   5.126   9.233 -0.6298  0.5420 -0.4687
    3CHL1  H21A  201   3.165   5.041   9.163 -1.4294 -1.0567  1.4808
    3CHL1  H21B  202   3.183   5.096   9.340 -0.0520  3.0594  0.2659
    3CHL1  H21C  203   3.269   5.174   9.197  0.4856 -2.2612 -1.5690
    3CHL1   C22  204   3.061   5.291   9.066 -0.1549 -0.3168  0.5801
    3CHL1  H22A  205   2.998   5.383   9.064  0.7373  0.3361  1.3639
    3CHL1  H22B  206   3.167   5.323   9.056 -0.4213  1.1547  2.0012
    3CHL1   C23  207   3.037   5.205   8.946  0.5028  0.4762  0.3954
    3CHL1  H23A  208   3.106   5.118   8.933  0.8358  0.6390  1.0380
    3CHL1  H23B  209   2.935   5.161   8.950  1.0273 -0.7496  0.9220
    3CHL1   C24  210   3.066   5.281   8.809  0.0688  0.3374  0.1660
    3CHL1  H24A  211   2.978   5.350   8.801 -0.5245 -0.4272 -0.0184
    3CHL1  H24B  212   3.159   5.342   8.809  0.7795 -0.7195  1.1427
    3CHL1   C25  213   3.067   5.192   8.685 -0.1768 -0.3903  0.4741
    3CHL1   H25  214   3.095   5.253   8.597  1.4551 -0.8143  0.6782
    3CHL1   C26  215   3.166   5.067   8.683  0.8782 -0.1486  0.0385
    3CHL1  H26A  216   3.264   5.104   8.647 -0.1025  0.2869 -2.3804
    3CHL1  H26B  217   3.168   5.010   8.779  1.5352  1.6438  1.1485
    3CHL1  H26C  218   3.129   4.997   8.606 -1.9994  2.5932 -1.3189
    3CHL1   C27  219   2.924   5.141   8.659  0.1761  0.3938 -0.1192
    3CHL1  H27A  220   2.850   5.221   8.640  1.6403  1.2352 -2.9493
    3CHL1  H27B  221   2.915   5.075   8.570  0.8008  1.3369 -0.9057
    3CHL1  H27C  222   2.897   5.075   8.744  1.1278  0.6082  0.3687
    4CHL1    C3  223   3.478   1.700  10.443  0.2412  0.2132 -0.2922
    4CHL1    H3  224   3.370   1.715  10.421 -0.2183  0.5428  1.9276
    4CHL1    O3  225   3.494   1.686  10.584  0.2027  0.3524 -0.2194
    4CHL1   H3'  226   3.520   1.594  10.589  1.0037  0.4260 -2.0732
    4CHL1    C4  227   3.528   1.576  10.374  0.8146  0.0013  0.6859
    4CHL1   H4A  228   3.637   1.578  10.397  0.8673 -0.1384  0.4456
    4CHL1   H4B  229   3.483   1.482  10.413 -1.1582  1.5570  2.4341
    4CHL1    C5  230   3.513   1.592  10.228 -0.2997 -0.0623  0.0635
    4CHL1    C6  231   3.447   1.494  10.159 -0.0235  0.4812  0.1520
    4CHL1    H6  232   3.426   1.400  10.212  1.0249 -0.4603 -1.0440
    4CHL1    C7  233   3.431   1.483  10.017 -0.0930 -0.0747 -0.2017
    4CHL1   H7A  234   3.463   1.389   9.969 -2.1193 -0.7331 -0.3497
    4CHL1   H7B  235   3.322   1.481   9.995 -0.0035  0.0521 -0.6702
    4CHL1    C8  236   3.506   1.596   9.944  0.0975  0.2257 -0.5869
    4CHL1    H8  237   3.611   1.564   9.925  0.0637 -0.0309 -0.3513
    4CHL1   C14  238   3.444   1.625   9.806 -1.0364  0.0588 -0.1316
    4CHL1   H14  239   3.346   1.672   9.827 -0.6624  0.6670  0.3081
    4CHL1   C15  240   3.397   1.505   9.718  0.4501 -0.7174 -0.1518
    4CHL1  H15A  241   3.482   1.436   9.736  1.5702  0.9060  1.0612
    4CHL1  H15B  242   3.297   1.461   9.738  0.4662 -1.9106 -2.4525
    4CHL1   C16  243   3.416   1.563   9.568 -0.4314 -0.2265 -0.1394
    4CHL1  H16A  244   3.504   1.505   9.533 -0.0358  0.8464 -0.9772
    4CHL1  H16B  245   3.324   1.538   9.511 -0.4418 -1.0784  0.2309
    4CHL1   C17  246   3.449   1.715   9.575  0.7618  0.0886  0.3410
    4CHL1   H17  247   3.351   1.767   9.587  1.5484  1.6933  0.0024
    4CHL1   C13  248   3.524   1.725   9.712 -0.4992 -0.1595  0.3717
    4CHL1   C18  249   3.670   1.679   9.694 -0.5837 -0.7382  0.2545
    4CHL1  H18A  250   3.716   1.745   9.617 -4.2649  2.2480  0.3500
    4CHL1  H18B  251   3.731   1.670   9.786  2.5473 -1.3426 -1.7101
    4CHL1  H18C  252   3.659   1.575   9.655 -0.5587  0.2193 -2.5555
    4CHL1   C12  253   3.514   1.852   9.790 -0.1261  0.7256  0.5976
    4CHL1  H12A  254   3.565   1.940   9.744 -2.2077  1.3697 -0.5890
    4CHL1  H12B  255   3.409   1.885   9.775 -0.5543 -0.6965  0.3696
    4CHL1   C11  256   3.575   1.841   9.933  0.0740 -0.0709 -0.4070
    4CHL1  H11A  257   3.686   1.836   9.927  0.0904  1.1445 -1.8327
    4CHL1  H11B  258   3.532   1.929   9.985  2.3329  0.1200  1.3296
    4CHL1    C9  259   3.508   1.724  10.019 -0.7558 -0.8764 -0.9809
    4CHL1    H9  260   3.402   1.755  10.033 -1.0414 -2.0957 -0.2953
    4CHL1   C10  261   3.569   1.716  10.161 -0.0026 -0.4786 -0.0312
    4CHL1   C19  262   3.725   1.706  10.154 -0.3324  0.3223 -0.0962
    4CHL1  H19A  263   3.761   1.627  10.085  0.2774  1.6781 -1.3709
    4CHL1  H19B  264   3.767   1.802  10.118  0.8126 -0.2680 -0.3601
    4CHL1  H19C  265   3.764   1.692  10.257 -0.5472  1.2668  0.1258
    4CHL1    C1  266   3.526   1.841  10.244 -0.9639  0.7544 -0.5569
    4CHL1   H1A  267   3.580   1.924  10.195 -1.5147  1.3826 -0.1124
    4CHL1   H1B  268   3.420   1.863  10.221 -0.9737 -0.7305 -2.1096
    4CHL1    C2  269   3.546   1.827  10.397  0.5974 -0.1164 -0.7158
    4CHL1   H2A  270   3.494   1.915  10.440 -0.6358 -1.4668  0.6506
    4CHL1   H2B  271   3.653   1.840  10.425 -0.1300  1.2827  1.7909
    4CHL1   C20  272   3.504   1.773   9.447  0.8434  0.2963 -0.1681
    4CHL1   H20  273   3.589   1.710   9.412  0.9998  1.0620 -1.2048
    4CHL1   C21  274   3.563   1.913   9.464  0.9737 -0.4174 -0.6768
    4CHL1  H21A  275   3.638   1.917   9.545 -0.6017 -0.8155  0.8685
    4CHL1  H21B  276   3.488   1.990   9.492  0.9534 -2.0755  5.0485
    4CHL1  H21C  277   3.615   1.933   9.368  0.1826 -2.2073 -1.5266
    4CHL1   C22  278   3.395   1.751   9.333  0.4468  0.1405 -0.5033
    4CHL1  H22A  279   3.352   1.649   9.329  1.1978 -0.2065  0.0894
    4CHL1  H22B  280   3.315   1.823   9.361  1.4776  1.1358 -0.0400
    4CHL1   C23  281   3.439   1.791   9.195  0.3181  0.0352 -0.3786
    4CHL1  H23A  282   3.475   1.896   9.202  0.3574 -0.0372  0.7492
    4CHL1  H23B  283   3.526   1.729   9.165 -0.6573 -1.7482  0.3327
    4CHL1   C24  284   3.322   1.783   9.094  0.2916 -0.4916 -0.4271
    4CHL1  H24A  285   3.288   1.681   9.069  0.7056 -0.1396 -2.6543
    4CHL1  H24B  286   3.233   1.844   9.120 -0.2347 -0.3141 -2.4652
    4CHL1   C25  287   3.369   1.823   8.946  0.2466  0.6386 -0.5026
    4CHL1   H25  288   3.378   1.933   8.937  1.4723  0.6132  0.1325
    4CHL1   C26  289   3.509   1.765   8.917  0.4301  0.4388  0.4969
    4CHL1  H26A  290   3.588   1.812   8.980 -1.7377  1.4892  2.6168
    4CHL1  H26B  291   3.508   1.656   8.938  0.8394  0.5015  0.8507
    4CHL1  H26C  292   3.531   1.773   8.809 -1.3130 -0.8398  0.0172
    4CHL1   C27  293   3.256   1.778   8.846  0.2946 -0.0227 -0.6854
    4CHL1  H27A  294   3.296   1.803   8.745  1.0857  1.4854 -0.0159
    4CHL1  H27B  295   3.245   1.667   8.844 -0.6406  0.0636 -1.4654
    4CHL1  H27C  296   3.156   1.820   8.868  0.0778 -1.2386  0.8013
    5CHL1    C3  297   3.293   5.681  10.113  0.1805  0.8333 -0.3684
    5CHL1    H3  298   3.234   5.588  10.129  1.4012  0.4546  2.6273
    5CHL1    O3  299   3.339   5.721  10.244  0.1264 -0.0507 -0.1795
    5CHL1   H3'  300   3.371   5.639  10.282 -0.5323  0.3273  1.2476
    5CHL1    C4  301   3.410   5.656  10.025  0.8116  0.5583  0.2714
    5CHL1   H4A  302   3.475   5.746  10.020  3.3725 -1.2388 -0.9740
    5CHL1   H4B  303   3.471   5.575  10.071  1.0241  0.0141 -0.9358
    5CHL1    C5  304   3.378   5.638   9.876  0.3728 -0.3399  0.1160
    5CHL1    C6  305   3.424   5.527   9.807 -0.1384  0.0461 -0.3712
    5CHL1    H6  306   3.490   5.454   9.857  1.6953  0.4356 -2.1099
    5CHL1    C7  307   3.419   5.512   9.657 -0.3938  0.6016 -0.1941
    5CHL1   H7A  308   3.516   5.470   9.621  0.8262  3.1368 -0.0542
    5CHL1   H7B  309   3.333   5.441   9.653  1.9387 -2.6071  1.5915
    5CHL1    C8  310   3.378   5.643   9.585  0.2137  0.5711 -0.3233
    5CHL1    H8  311   3.470   5.706   9.589  0.5992 -0.0032  0.0716
    5CHL1   C14  312   3.338   5.613   9.443 -0.2439  0.3823 -0.2769
    5CHL1   H14  313   3.251   5.545   9.455 -0.4487  0.5922 -0.5516
    5CHL1   C15  314   3.431   5.534   9.351  0.1944  0.7247  0.7265
    5CHL1  H15A  315   3.528   5.588   9.357  0.5825 -0.0903  4.3763
    5CHL1  H15B  316   3.463   5.431   9.377 -1.4890  0.2288  0.9323
    5CHL1   C16  317   3.369   5.553   9.214  0.0271  0.3516 -1.0443
    5CHL1  H16A  318   3.438   5.579   9.131  1.5193 -0.4475 -0.0801
    5CHL1  H16B  319   3.328   5.455   9.181 -2.2659  1.2331 -0.9960
    5CHL1   C17  320   3.256   5.663   9.228  0.5544 -0.1293 -0.1033
    5CHL1   H17  321   3.165   5.599   9.233 -1.3299  2.3047 -0.9869
    5CHL1   C13  322   3.276   5.730   9.365 -0.1018 -0.0573  0.0153
    5CHL1   C18  323   3.379   5.840   9.337 -0.3676 -0.4037  0.5558
    5CHL1  H18A  324   3.337   5.923   9.276 -0.9387 -0.4136  0.9291
    5CHL1  H18B  325   3.407   5.884   9.435  3.2236  1.2678 -1.0381
    5CHL1  H18C  326   3.475   5.809   9.291 -1.2503  0.5374 -2.1425
    5CHL1   C12  327   3.152   5.775   9.444  0.1689 -0.2582  0.0172
    5CHL1  H12A  328   3.106   5.859   9.388 -0.0265 -0.6161 -0.3618
    5CHL1  H12B  329   3.081   5.690   9.430  0.6851 -0.6036 -0.5290
    5CHL1   C11  330   3.191   5.820   9.582 -0.1425  0.6109 -0.2420
    5CHL1  H11A  331   3.248   5.914   9.570 -1.6488  1.8533  1.7294
    5CHL1  H11B  332   3.097   5.839   9.639 -0.7641 -0.3364 -0.9183
    5CHL1    C9  333   3.262   5.710   9.661 -0.4152  0.1352  0.2753
    5CHL1    H9  334   3.189   5.628   9.676 -0.8804  0.2488 -1.2037
    5CHL1   C10  335   3.294   5.743   9.805  0.2418  0.8059  0.1648
    5CHL1   C19  336   3.379   5.870   9.806 -0.6504 -0.3004  0.0845
    5CHL1  H19A  337   3.407   5.901   9.909 -2.1481  0.1570  0.3711
    5CHL1  H19B  338   3.477   5.845   9.759  0.3634 -1.1121  2.4759
    5CHL1  H19C  339   3.335   5.953   9.746 -1.7694 -0.9627 -0.0225
    5CHL1    C1  340   3.178   5.760   9.899  0.7621  0.3125 -0.1529
    5CHL1   H1A  341   3.118   5.847   9.862  1.6063  1.6535  1.5214
    5CHL1   H1B  342   3.117   5.669   9.880 -1.1801  1.2701  1.1331
    5CHL1    C2  343   3.202   5.784  10.048 -0.4665 -0.4642 -0.1746
    5CHL1   H2A  344   3.108   5.788  10.107 -0.1304 -2.1909  0.5352
    5CHL1   H2B  345   3.257   5.879  10.065  1.0533 -0.9384 -2.1196
    5CHL1   C20  346   3.237   5.744   9.096  0.5483  0.1300 -1.0143
    5CHL1   H20  347   3.334   5.797   9.086  0.0006  3.3149  5.4285
    5CHL1   C21  348   3.127   5.854   9.115  0.0964  0.3014  0.6007
    5CHL1  H21A  349   3.165   5.947   9.162  1.8363 -0.3409  0.5385
    5CHL1  H21B  350   3.055   5.817   9.191 -0.0999  2.2161  1.3976
    5CHL1  H21C  351   3.067   5.869   9.023 -1.7398  1.1360  1.8797
    5CHL1   C22  352   3.215   5.657   8.972 -0.2975 -0.1987  0.9511
    5CHL1  H22A  353   3.309   5.597   8.971 -0.2386 -0.1706 -1.9371
    5CHL1  H22B  354   3.120   5.601   8.961 -0.4614 -0.3426  2.7811
    5CHL1   C23  355   3.219   5.746   8.842  0.7519 -1.0037  0.4059
    5CHL1  H23A  356   3.137   5.821   8.834  0.5231 -1.3155 -0.2860
    5CHL1  H23B  357   3.306   5.815   8.838 -1.2832  1.6803 -1.1941
    5CHL1   C24  358   3.224   5.653   8.721 -0.7541 -0.2668  0.2673
    5CHL1  H24A  359   3.310   5.590   8.749 -0.9375  0.0208  1.5308
    5CHL1  H24B  360   3.131   5.592   8.724 -0.3765 -0.9992 -1.7282
    5CHL1   C25  361   3.246   5.726   8.588 -0.3896  0.5625  0.1468
    5CHL1   H25  362   3.343   5.778   8.605 -0.0691 -0.2203  0.7816
    5CHL1   C26  363   3.262   5.616   8.473 -0.1658  0.0102 -0.3566
    5CHL1  H26A  364   3.304   5.665   8.383  0.7060  1.2726  0.6915
    5CHL1  H26B  365   3.327   5.533   8.507  0.1239  0.1826 -0.4838
    5CHL1  H26C  366   3.161   5.580   8.446 -1.3791  0.7333  2.7120
    5CHL1   C27  367   3.130   5.821   8.557  0.1810 -0.2576  0.3408
    5CHL1  H27A  368   3.107   5.888   8.642  0.7133  0.0664  0.2404
    5CHL1  H27B  369   3.145   5.882   8.465 -1.3475  0.1720  0.3648
    5CHL1  H27C  370   3.041   5.757   8.540 -1.9605  1.9053  2.5964
    6CHL1    C3  371   2.060   4.006  10.358  0.2692  0.6494 -0.9196
    6CHL1    H3  372   1.952   4.009  10.385  0.2876 -1.5826 -0.3773
    6CHL1    O3  373   2.122   4.027  10.484 -0.4064  0.1076  0.0637
    6CHL1   H3'  374   2.216   4.023  10.464  0.0088 -0.0576  1.8946
    6CHL1    C4  375   2.112   3.875  10.300  0.1839 -0.6720 -0.4126
    6CHL1   H4A  376   2.223   3.878  10.288  0.2475  0.2075  0.2629
    6CHL1   H4B  377   2.084   3.790  10.366  1.7265 -0.5065  0.5187
    6CHL1    C5  378   2.061   3.860  10.158  0.4609 -0.7723  0.7198
    6CHL1    C6  379   1.979   3.757  10.126  0.1706  0.0196 -0.2504
    6CHL1    H6  380   1.963   3.672  10.193 -1.6569  0.6767  0.2151
    6CHL1    C7  381   1.927   3.735   9.990  1.3821 -0.4475 -0.5017
    6CHL1   H7A  382   1.930   3.627   9.965 -1.3639 -0.2728 -1.9726
    6CHL1   H7B  383   1.822   3.765   9.975  1.0703 -0.8647  0.6884
    6CHL1    C8  384   2.011   3.821   9.881 -0.7444 -0.4598 -0.3213
    6CHL1    H8  385   2.110   3.770   9.882 -0.9987 -0.9779 -0.8416
    6CHL1   C14  386   1.950   3.817   9.741  0.1671  0.1235  0.0741
    6CHL1   H14  387   1.847   3.858   9.755 -0.1743 -1.1422  1.5640
    6CHL1   C15  388   1.930   3.676   9.682 -0.0121  0.2888  0.7404
    6CHL1  H15A  389   2.020   3.624   9.722 -0.9311 -0.4126  1.9497
    6CHL1  H15B  390   1.840   3.625   9.720  0.0095 -0.1899  0.1628
    6CHL1   C16  391   1.915   3.703   9.531 -0.2013  0.4803 -0.0729
    6CHL1  H16A  392   2.003   3.653   9.485 -1.3979  0.6048 -2.6941
    6CHL1  H16B  393   1.821   3.659   9.489  0.0779  0.7775 -1.0270
    6CHL1   C17  394   1.938   3.862   9.506 -0.4933 -0.4074  0.0811
    6CHL1   H17  395   1.837   3.910   9.510  0.5715  1.9591  0.3847
    6CHL1   C13  396   2.018   3.905   9.637 -0.2585  0.7246  0.3760
    6CHL1   C18  397   2.173   3.872   9.639 -0.1817  0.8241  0.6853
    6CHL1  H18A  398   2.228   3.954   9.589  1.9586 -1.5869 -1.1368
    6CHL1  H18B  399   2.215   3.872   9.742  1.4261  2.0111  0.0679
    6CHL1  H18C  400   2.194   3.786   9.572  2.8511  3.0494 -1.4799
    6CHL1   C12  401   1.997   4.048   9.682 -0.3582 -0.3394  0.7992
    6CHL1  H12A  402   2.033   4.123   9.608 -0.0274 -1.1270  0.1532
    6CHL1  H12B  403   1.888   4.054   9.705 -0.1333 -0.8450  2.0963
    6CHL1   C11  404   2.071   4.067   9.813  0.1330 -0.9216 -0.4361
    6CHL1  H11A  405   2.180   4.061   9.795  0.1781 -0.0889 -0.4861
    6CHL1  H11B  406   2.043   4.168   9.851 -1.3316 -0.6700 -2.0231
    6CHL1    C9  407   2.028   3.964   9.921 -0.3256  0.1955 -0.2275
    6CHL1    H9  408   1.924   3.997   9.941  0.3094  1.5833  0.9550
    6CHL1   C10  409   2.101   3.978  10.061 -0.4660 -0.2561  0.1599
    6CHL1   C19  410   2.254   3.969  10.036  0.6205  0.3849  1.0891
    6CHL1  H19A  411   2.319   3.990  10.124 -1.4813  2.6452  2.2059
    6CHL1  H19B  412   2.281   3.874   9.985  1.8511  0.7572  1.0098
    6CHL1  H19C  413   2.292   4.041   9.960  1.8000 -1.0370  0.2718
    6CHL1    C1  414   2.055   4.114  10.122 -0.5006  0.8912 -0.2650
    6CHL1   H1A  415   2.092   4.199  10.061  0.6688 -0.8602 -2.1544
    6CHL1   H1B  416   1.946   4.128  10.134 -0.4394 -0.1159  2.1560
    6CHL1    C2  417   2.105   4.119  10.265  0.0563 -0.4600 -0.3543
    6CHL1   H2A  418   2.070   4.215  10.310  2.0540 -0.4001  1.1710
    6CHL1   H2B  419   2.214   4.137  10.272 -0.0553  0.2575 -0.3734
    6CHL1   C20  420   2.000   3.877   9.368 -1.2710 -0.2592 -0.4544
    6CHL1   H20  421   2.086   3.808   9.356  1.1400  2.8649 -2.9385
    6CHL1   C21  422   2.055   4.018   9.350  0.4345 -0.0660  0.1614
    6CHL1  H21A  423   2.086   4.046   9.246  2.5054  1.1267  1.0395
    6CHL1  H21B  424   2.130   4.040   9.429 -3.3316  2.4066  3.4458
    6CHL1  H21C  425   1.968   4.081   9.378  0.5450  0.6305 -0.9606
    6CHL1   C22  426   1.900   3.837   9.255 -0.4115 -0.0411  0.1198
    6CHL1  H22A  427   1.862   3.735   9.278 -0.2491 -0.4686 -1.4078
    6CHL1  H22B  428   1.824   3.918   9.248  1.0247  1.2144 -4.1651
    6CHL1   C23  429   1.959   3.826   9.114  0.0954 -0.7842  0.4569
    6CHL1  H23A  430   1.990   3.927   9.080  0.9313 -1.3725 -0.5701
    6CHL1  H23B  431   2.048   3.760   9.112  0.8878  0.2546 -2.2055
    6CHL1   C24  432   1.850   3.771   9.014 -0.3862  0.0243  0.3468
    6CHL1  H24A  433   1.809   3.671   9.039 -3.8911  1.1997 -0.1852
    6CHL1  H24B  434   1.758   3.833   9.011 -1.7053 -1.8073  1.5022
    6CHL1   C25  435   1.898   3.758   8.868  0.3721 -0.2209  0.8667
    6CHL1   H25  436   1.994   3.703   8.867  0.4557 -0.0628  0.2408
    6CHL1   C26  437   1.778   3.695   8.789 -0.9770 -0.0313 -0.4828
    6CHL1  H26A  438   1.798   3.672   8.682 -3.6030  1.4212 -1.3917
    6CHL1  H26B  439   1.743   3.601   8.836 -0.6163 -0.2917 -0.7284
    6CHL1  H26C  440   1.695   3.769   8.784  0.5878  1.9696  1.1897
    6CHL1   C27  441   1.923   3.893   8.796 -0.3200  0.3055  0.0188
    6CHL1  H27A  442   1.957   3.877   8.692  0.9500 -1.1731  0.6316
    6CHL1  H27B  443   1.833   3.959   8.798 -0.5887  0.0778 -2.0038
    6CHL1  H27C  444   2.011   3.946   8.837  1.1810 -0.1634 -2.3741
    7CHL1    C3  445   4.511   1.100  10.372 -0.1676  0.1288 -0.1870
    7CHL1    H3  446   4.619   1.113  10.348 -0.6263  6.2917 -0.6827
    7CHL1    O3  447   4.495   1.090  10.511  0.2407 -0.2773 -0.1299
    7CHL1   H3'  448   4.405   1.060  10.524 -0.8352  2.6701  0.1430
    7CHL1    C4  449   4.437   1.221  10.317 -0.4077 -0.6531  1.0265
    7CHL1   H4A  450   4.333   1.221  10.356  0.4987 -0.9698  3.6036
    7CHL1   H4B  451   4.473   1.319  10.356  0.5624 -0.8839  0.7265
    7CHL1    C5  452   4.440   1.226  10.166  0.0913 -0.7369  0.2110
    7CHL1    C6  453   4.480   1.331  10.096  0.2338  0.1097 -0.0599
    7CHL1    H6  454   4.507   1.427  10.144 -0.1995  1.0874 -1.6910
    7CHL1    C7  455   4.451   1.346   9.949 -0.7821 -0.5097 -0.6165
    7CHL1   H7A  456   4.420   1.452   9.935 -0.9412 -0.5652 -0.6834
    7CHL1   H7B  457   4.548   1.325   9.898 -1.9212 -2.7262 -2.0156
    7CHL1    C8  458   4.357   1.242   9.880 -0.5013 -0.1665  0.5219
    7CHL1    H8  459   4.253   1.275   9.899 -0.0743  1.6277 -0.0027
    7CHL1   C14  460   4.387   1.231   9.732 -0.7111 -1.0650  0.3663
    7CHL1   H14  461   4.491   1.192   9.721 -0.0487  0.7709 -0.5300
    7CHL1   C15  462   4.380   1.368   9.654  0.0234  0.4617 -0.1800
    7CHL1  H15A  463   4.293   1.431   9.681 -1.4185 -1.7537  0.7021
    7CHL1  H15B  464   4.470   1.432   9.669 -0.6013  1.6643 -1.4265
    7CHL1   C16  465   4.364   1.317   9.514 -0.7636 -0.0827 -0.5350
    7CHL1  H16A  466   4.280   1.364   9.459 -0.7803  1.7944  0.9819
    7CHL1  H16B  467   4.459   1.352   9.468 -0.1045  0.2343  1.0000
    7CHL1   C17  468   4.357   1.156   9.509  0.1005  0.2330 -0.3824
    7CHL1   H17  469   4.460   1.114   9.510  0.2445  0.5647  0.9935
    7CHL1   C13  470   4.308   1.133   9.657 -0.1974  0.7317  0.2843
    7CHL1   C18  471   4.164   1.175   9.661  0.1075  0.5029 -0.0804
    7CHL1  H18A  472   4.141   1.271   9.611 -1.3842 -0.6961 -1.8293
    7CHL1  H18B  473   4.109   1.090   9.614  1.9312 -1.7218  1.5778
    7CHL1  H18C  474   4.123   1.170   9.764 -1.1948 -2.6168 -0.6440
    7CHL1   C12  475   4.331   0.991   9.708  0.4746  0.2619 -0.3962
    7CHL1  H12A  476   4.251   0.925   9.669  0.2552 -0.0600  0.5805
    7CHL1  H12B  477   4.430   0.943   9.691  0.3728 -0.2806  0.4770
    7CHL1   C11  478   4.314   0.994   9.866 -0.9870 -0.2025  0.1501
    7CHL1  H11A  479   4.205   1.012   9.877 -1.0455 -0.5447  0.1400
    7CHL1  H11B  480   4.339   0.898   9.916  1.7567  0.1722 -0.3679
    7CHL1    C9  481   4.392   1.107   9.939 -0.1128 -0.0251 -0.0896
    7CHL1    H9  482   4.498   1.081   9.915  1.0758  3.6962  0.5325
    7CHL1   C10  483   4.376   1.102  10.096  0.0560 -0.2905 -0.0368
    7CHL1   C19  484   4.229   1.091  10.141  0.3260  0.2349 -1.1270
    7CHL1  H19A  485   4.218   1.094  10.252 -1.3658 -0.4475 -1.2448
    7CHL1  H19B  486   4.170   1.175  10.100 -1.8340  0.4264  1.9624
    7CHL1  H19C  487   4.204   0.991  10.097 -0.2290 -0.1456 -0.0005
    7CHL1    C1  488   4.464   0.979  10.149 -0.2925 -0.1577  0.7377
    7CHL1   H1A  489   4.424   0.885  10.104 -0.5317  0.4937 -0.4506
    7CHL1   H1B  490   4.565   0.998  10.108 -0.1924 -1.1776  0.4845
    7CHL1    C2  491   4.460   0.973  10.302 -0.4835  0.0753  0.3973
    7CHL1   H2A  492   4.508   0.884  10.349  0.8972  1.4856  1.8039
    7CHL1   H2B  493   4.354   0.956  10.331  0.1681 -3.1378  1.3701
    7CHL1   C20  494   4.281   1.110   9.384 -0.1864 -0.2437  0.2103
    7CHL1   H20  495   4.179   1.152   9.395  1.0389  2.7119  1.3850
    7CHL1   C21  496   4.287   0.955   9.368 -0.1272 -0.3226 -0.1239
    7CHL1  H21A  497   4.391   0.923   9.346  0.1115 -0.5025  1.1735
    7CHL1  H21B  498   4.232   0.930   9.274  0.8038  2.5685 -1.5569
    7CHL1  H21C  499   4.240   0.897   9.450 -1.2845  0.8001  0.0351
    7CHL1   C22  500   4.337   1.168   9.255  0.9147 -0.7648 -0.2243
    7CHL1  H22A  501   4.337   1.279   9.260  0.3091 -0.8109  1.7815
    7CHL1  H22B  502   4.445   1.144   9.242  1.3120  0.4190  0.7120
    7CHL1   C23  503   4.263   1.126   9.125 -0.1775  0.5985 -0.0605
    7CHL1  H23A  504   4.288   1.020   9.106 -0.5320  0.3232  0.9295
    7CHL1  H23B  505   4.157   1.125   9.157 -0.8337 -1.4695 -2.0481
    7CHL1   C24  506   4.288   1.206   9.005 -0.6116 -0.3586 -0.3879
    7CHL1  H24A  507   4.259   1.310   9.027 -3.3223 -1.2641  0.7313
    7CHL1  H24B  508   4.399   1.201   8.995 -0.5986 -2.6013  0.3140
    7CHL1   C25  509   4.213   1.154   8.879 -0.2333 -0.1555 -0.4618
    7CHL1   H25  510   4.236   1.050   8.850  1.3463 -0.0900  0.4002
    7CHL1   C26  511   4.066   1.195   8.882 -0.0585 -0.4703 -0.2361
    7CHL1  H26A  512   4.049   1.304   8.866  0.0780 -0.1232  1.7721
    7CHL1  H26B  513   4.009   1.153   8.797  0.3770 -2.1931  0.2939
    7CHL1  H26C  514   4.018   1.167   8.978  0.4667  1.7155  0.7227
    7CHL1   C27  515   4.275   1.231   8.758  0.1740  0.5750  0.0563
    7CHL1  H27A  516   4.224   1.201   8.664 -4.3290  2.4578  1.6611
    7CHL1  H27B  517   4.280   1.341   8.774  1.3357  1.0270 -2.8984
    7CHL1  H27C  518   4.385   1.211   8.756  0.4236  1.8074  0.4567
    8CHL1    C3  519   4.295   1.600  10.293 -0.4105  0.6036 -0.1792
    8CHL1    H3  520   4.365   1.524  10.251 -0.9906 -1.1788  1.9345
    8CHL1    O3  521   4.299   1.597  10.435  0.4074 -0.4828 -0.3512
    8CHL1   H3'  522   4.243   1.669  10.467  3.2939  2.4329 -1.2918
    8CHL1    C4  523   4.332   1.743  10.240 -0.2685 -0.4807  0.7898
    8CHL1   H4A  524   4.252   1.812  10.275  0.6974 -0.0475  2.2457
    8CHL1   H4B  525   4.433   1.766  10.280 -0.0785  0.4785 -0.1944
    8CHL1    C5  526   4.330   1.745  10.088 -0.4618 -0.4484  0.0314
    8CHL1    C6  527   4.442   1.776  10.018 -0.0507 -0.3085  0.1846
    8CHL1    H6  528   4.538   1.815  10.056 -0.0594  2.4592 -2.2513
    8CHL1    C7  529   4.449   1.779   9.871  0.7163  0.0912  0.0894
    8CHL1   H7A  530   4.491   1.877   9.840 -0.9723  0.5514 -0.8342
    8CHL1   H7B  531   4.521   1.705   9.831 -0.4604 -2.0021  1.6328
    8CHL1    C8  532   4.303   1.773   9.805 -0.0490 -0.2838  0.3988
    8CHL1    H8  533   4.246   1.865   9.828  1.7895  1.2641 -0.9624
    8CHL1   C14  534   4.303   1.761   9.649 -1.3042  0.1274 -0.0318
    8CHL1   H14  535   4.366   1.673   9.621 -0.6248  0.4879  0.3368
    8CHL1   C15  536   4.383   1.872   9.574  0.4676 -0.0377 -0.8596
    8CHL1  H15A  537   4.345   1.957   9.635 -1.2993 -1.5367  0.2415
    8CHL1  H15B  538   4.493   1.858   9.582  0.2789 -1.2388 -0.0885
    8CHL1   C16  539   4.330   1.871   9.433 -0.4698 -0.3592  0.3243
    8CHL1  H16A  540   4.283   1.970   9.417 -0.2255  0.2086  2.7371
    8CHL1  H16B  541   4.416   1.843   9.368 -0.6608 -0.0701 -0.0613
    8CHL1   C17  542   4.214   1.767   9.432 -0.0721  0.9964 -0.0304
    8CHL1   H17  543   4.270   1.673   9.416 -2.3830 -0.8248  1.7868
    8CHL1   C13  544   4.165   1.759   9.579 -0.6937 -0.0392 -0.1155
    8CHL1   C18  545   4.089   1.895   9.601 -0.1595  0.2424  0.5546
    8CHL1  H18A  546   3.983   1.874   9.577  0.7650 -1.6882 -2.2191
    8CHL1  H18B  547   4.081   1.941   9.702 -0.7296 -1.0769  1.1273
    8CHL1  H18C  548   4.116   1.977   9.531 -0.1491 -0.9272 -0.8426
    8CHL1   C12  549   4.100   1.633   9.638 -0.1816  0.5225 -0.5195
    8CHL1  H12A  550   3.994   1.643   9.605  0.0179 -0.3339 -1.4358
    8CHL1  H12B  551   4.149   1.547   9.589 -1.2189 -0.0233 -0.6180
    8CHL1   C11  552   4.084   1.644   9.790  0.4812  0.0337  0.3354
    8CHL1  H11A  553   4.017   1.731   9.805 -0.9299 -1.0780  0.7487
    8CHL1  H11B  554   4.035   1.550   9.825  1.0890 -0.0247  1.0623
    8CHL1    C9  555   4.217   1.667   9.867  0.3441 -0.0596 -0.2717
    8CHL1    H9  556   4.278   1.575   9.878  0.8010  0.5800  3.7438
    8CHL1   C10  557   4.199   1.693  10.019  0.9059  0.3336  0.2912
    8CHL1   C19  558   4.101   1.809  10.044  0.6314  0.3051 -0.2688
    8CHL1  H19A  559   4.002   1.773  10.009  0.6311  2.1936 -2.5060
    8CHL1  H19B  560   4.095   1.843  10.150 -1.1827 -0.1691 -0.1835
    8CHL1  H19C  561   4.107   1.898   9.978 -0.4358 -0.1747 -1.0430
    8CHL1    C1  562   4.144   1.569  10.092 -0.1025  0.5088 -0.2002
    8CHL1   H1A  563   4.037   1.547  10.076  0.2072 -1.6405  0.3518
    8CHL1   H1B  564   4.199   1.480  10.055 -0.6006  0.3994 -0.6867
    8CHL1    C2  565   4.153   1.566  10.247 -0.4899  0.0733 -0.0211
    8CHL1   H2A  566   4.127   1.466  10.288 -1.7606  0.6223  0.5766
    8CHL1   H2B  567   4.089   1.651  10.280 -1.7420 -0.3012 -1.3839
    8CHL1   C20  568   4.109   1.785   9.323  0.3771  0.3381 -0.2407
    8CHL1   H20  569   4.041   1.867   9.353  2.0362  0.8540  2.4224
    8CHL1   C21  570   4.025   1.654   9.320  0.0309 -0.4834 -0.0830
    8CHL1  H21A  571   4.094   1.568   9.306 -0.0404 -0.5284 -0.1565
    8CHL1  H21B  572   3.957   1.659   9.233 -3.2724  1.4550  2.3680
    8CHL1  H21C  573   3.961   1.628   9.408  0.1128 -1.4264 -0.2895
    8CHL1   C22  574   4.172   1.811   9.189  0.7688  0.5220  0.3632
    8CHL1  H22A  575   4.220   1.911   9.186  0.5486  0.6112 -0.3815
    8CHL1  H22B  576   4.245   1.729   9.174  0.2834 -0.5067  3.0061
    8CHL1   C23  577   4.081   1.827   9.060 -0.2248  0.6017  0.6985
    8CHL1  H23A  578   4.025   1.734   9.037  0.7867 -0.0311  0.7356
    8CHL1  H23B  579   4.005   1.903   9.089  0.5269  1.6078  0.1019
    8CHL1   C24  580   4.147   1.895   8.941 -0.4975 -0.1610  0.2308
    8CHL1  H24A  581   4.201   1.983   8.982  1.8050 -1.6434  0.5693
    8CHL1  H24B  582   4.230   1.831   8.905 -1.8359 -1.5002 -0.6150
    8CHL1   C25  583   4.065   1.945   8.821  0.7082 -0.0768 -0.5016
    8CHL1   H25  584   4.016   1.849   8.793 -1.0890  0.0136  1.9590
    8CHL1   C26  585   3.955   2.046   8.865 -0.2096  0.5390  0.0151
    8CHL1  H26A  586   4.011   2.122   8.924  0.7392  1.8559 -2.4286
    8CHL1  H26B  587   3.911   2.090   8.774  2.0377  0.0998 -1.3724
    8CHL1  H26C  588   3.882   1.986   8.924 -1.1100  0.4057 -1.2091
    8CHL1   C27  589   4.153   1.996   8.708  0.0477  0.9696  0.4343
    8CHL1  H27A  590   4.225   1.918   8.675  1.6881  3.2479 -1.7681
    8CHL1  H27B  591   4.093   2.023   8.618  0.6219 -1.5255 -0.8151
    8CHL1  H27C  592   4.211   2.087   8.733  1.4764 -0.0412  0.9917
    9CHL1    C3  593   6.576   3.955  10.166 -0.7591  0.6074  0.2098
    9CHL1    H3  594   6.545   3.849  10.169  0.3294  0.2899  0.6019
    9CHL1    O3  595   6.527   4.006  10.284  0.5849 -0.1551 -0.3636
    9CHL1   H3'  596   6.458   3.943  10.307  0.1577  0.0712 -1.0185
    9CHL1    C4  597   6.727   3.965  10.152  0.1875 -0.5972 -0.2124
    9CHL1   H4A  598   6.762   4.068  10.175 -1.9810 -0.3062  2.3216
    9CHL1   H4B  599   6.763   3.898  10.233  0.2952  0.8526  0.9718
    9CHL1    C5  600   6.771   3.906  10.021 -0.1544  0.3653  0.3330
    9CHL1    C6  601   6.856   3.797  10.012  0.5471  0.3643 -0.4575
    9CHL1    H6  602   6.903   3.745  10.096  1.5228 -0.6834 -1.6220
    9CHL1    C7  603   6.904   3.730   9.885  0.1898 -0.1265  0.4587
    9CHL1   H7A  604   7.012   3.710   9.874  0.1650  0.0019 -0.0295
    9CHL1   H7B  605   6.860   3.628   9.879  0.9366 -0.4256 -0.0974
    9CHL1    C8  606   6.881   3.828   9.766  0.1913  0.4781  0.8923
    9CHL1    H8  607   6.954   3.912   9.763  0.4961  0.2019 -0.9076
    9CHL1   C14  608   6.880   3.742   9.630 -0.2008 -0.5735  0.5109
    9CHL1   H14  609   6.798   3.667   9.634 -1.0251  0.0102 -2.6723
    9CHL1   C15  610   7.003   3.655   9.594  0.1370 -0.3262  0.1389
    9CHL1  H15A  611   7.099   3.704   9.618 -0.6753  1.4993 -0.2009
    9CHL1  H15B  612   7.001   3.554   9.641  1.1318 -1.0459 -1.2806
    9CHL1   C16  613   6.996   3.630   9.442  0.0019 -0.5950  0.0010
    9CHL1  H16A  614   7.089   3.675   9.402  0.1080 -1.1593 -0.4005
    9CHL1  H16B  615   7.001   3.521   9.423  1.6601 -0.5184 -0.1514
    9CHL1   C17  616   6.877   3.712   9.381 -0.3778  0.2442 -0.1773
    9CHL1   H17  617   6.779   3.659   9.379 -0.7784  0.9777 -0.4822
    9CHL1   C13  618   6.852   3.822   9.495  0.5291  0.5944 -0.4332
    9CHL1   C18  619   6.955   3.939   9.479  0.1666 -0.0572 -0.4687
    9CHL1  H18A  620   6.962   3.999   9.573 -0.7008 -0.1993 -0.2973
    9CHL1  H18B  621   7.054   3.904   9.445  0.5056  0.4903 -0.0596
    9CHL1  H18C  622   6.915   4.006   9.400  2.2500  0.1864 -1.3785
    9CHL1   C12  623   6.712   3.869   9.514 -0.0708  0.6784  0.2762
    9CHL1  H12A  624   6.666   3.918   9.425 -0.3244 -2.0267 -1.1703
    9CHL1  H12B  625   6.650   3.779   9.531  0.5826 -0.2740 -1.9982
    9CHL1   C11  626   6.693   3.957   9.639  0.1348  0.0092 -0.1773
    9CHL1  H11A  627   6.737   4.058   9.621 -1.9233  1.6594  2.9890
    9CHL1  H11B  628   6.583   3.977   9.639  0.0235 -0.4922 -1.5087
    9CHL1    C9  629   6.741   3.893   9.773 -0.2214 -0.2255  0.0412
    9CHL1    H9  630   6.675   3.804   9.781  0.6718 -0.8410  0.6553
    9CHL1   C10  631   6.708   3.971   9.901  0.2302 -0.5509  0.0510
    9CHL1   C19  632   6.744   4.117   9.875 -0.5251  0.0070  0.6951
    9CHL1  H19A  633   6.847   4.126   9.835 -0.8521 -1.0829 -0.4672
    9CHL1  H19B  634   6.669   4.162   9.806  0.8715 -1.7160 -2.1073
    9CHL1  H19C  635   6.729   4.179   9.967 -1.3716  0.2991  0.3721
    9CHL1    C1  636   6.553   3.969   9.918  0.5164 -0.4254 -0.5973
    9CHL1   H1A  637   6.511   4.026   9.833 -0.6454 -0.4231 -0.0391
    9CHL1   H1B  638   6.527   3.863   9.897  1.4193 -0.9155  0.6634
    9CHL1    C2  639   6.498   4.025  10.053 -0.0104 -0.0053  0.6763
    9CHL1   H2A  640   6.388   4.024  10.064 -0.0769 -0.3742  0.0012
    9CHL1   H2B  641   6.523   4.134  10.055  0.2183 -0.0516  0.4189
    9CHL1   C20  642   6.920   3.759   9.238  0.0622  0.0867  0.0129
    9CHL1   H20  643   7.007   3.827   9.238 -0.3109  0.5778 -1.0011
    9CHL1   C21  644   6.802   3.841   9.173  0.2861  0.2859 -0.3922
    9CHL1  H21A  645   6.822   3.854   9.064 -3.3046 -1.0930 -1.3813
    9CHL1  H21B  646   6.808   3.942   9.220  1.6166 -0.5396  1.3290
    9CHL1  H21C  647   6.697   3.805   9.172  1.0860 -2.2857  0.8365
    9CHL1   C22  648   6.961   3.643   9.140 -0.2259  0.1253 -1.0942
    9CHL1  H22A  649   7.000   3.562   9.206 -1.6196 -0.4624 -0.9510
    9CHL1  H22B  650   6.874   3.594   9.091  0.7047 -1.4529 -1.2501
    9CHL1   C23  651   7.074   3.672   9.053  0.1753 -0.2345 -0.1646
    9CHL1  H23A  652   7.054   3.758   8.986 -1.6670  0.8998  1.7139
    9CHL1  H23B  653   7.173   3.689   9.100 -0.1998  2.1839 -0.1130
    9CHL1   C24  654   7.101   3.557   8.960 -0.8941  1.0063  0.6750
    9CHL1  H24A  655   7.124   3.466   9.019  0.5734  1.8624  1.4903
    9CHL1  H24B  656   7.005   3.541   8.907 -0.9087  1.8600  0.4232
    9CHL1   C25  657   7.206   3.594   8.846 -0.5594  0.1836 -0.3518
    9CHL1   H25  658   7.186   3.697   8.809 -2.5187  0.0823  0.3213
    9CHL1   C26  659   7.350   3.599   8.904 -1.0340 -0.2476 -0.2131
    9CHL1  H26A  660   7.381   3.700   8.938 -1.8173 -0.6025  1.6964
    9CHL1  H26B  661   7.360   3.536   8.994 -2.4344  2.9731  2.4439
    9CHL1  H26C  662   7.424   3.576   8.825 -0.9043 -1.4264  0.2431
    9CHL1   C27  663   7.186   3.497   8.735  0.0768 -1.1885  0.2069
    9CHL1  H27A  664   7.082   3.498   8.696 -0.8804 -1.9515  2.5882
    9CHL1  H27B  665   7.263   3.524   8.659 -0.1617 -0.9992  0.0318
    9CHL1  H27C  666   7.208   3.392   8.765 -2.0413 -1.5529  0.6390
   10CHL1    C3  667   0.667   2.165  10.055 -0.1939 -0.5282  0.1253
   10CHL1    H3  668   0.580   2.097  10.067  1.1062 -2.3708 -0.5630
   10CHL1    O3  669   0.699   2.234  10.177  0.2542 -0.6770 -0.4371
   10CHL1   H3'  670   0.625   2.291  10.199 -0.1191 -1.9615  1.9216
   10CHL1    C4  671   0.782   2.075  10.020  0.5389 -0.4198 -0.3347
   10CHL1   H4A  672   0.870   2.142  10.013  0.4720 -0.2093  0.6943
   10CHL1   H4B  673   0.805   2.000  10.099  0.0183  0.6222  0.8434
   10CHL1    C5  674   0.762   2.018   9.882 -0.3269  0.7300 -0.3313
   10CHL1    C6  675   0.747   1.886   9.864  0.2264 -0.2763  0.1859
   10CHL1    H6  676   0.757   1.825   9.955 -1.4112  0.9402  1.2391
   10CHL1    C7  677   0.733   1.819   9.732  0.8450 -0.1404  0.4014
   10CHL1   H7A  678   0.799   1.730   9.728 -2.3887 -2.7552  0.6012
   10CHL1   H7B  679   0.636   1.767   9.721  0.5481 -0.1110  2.5267
   10CHL1    C8  680   0.751   1.916   9.604  0.2677 -0.3630 -0.7873
   10CHL1    H8  681   0.861   1.928   9.604 -0.0357  4.2455  0.4817
   10CHL1   C14  682   0.701   1.858   9.468 -0.3059 -0.6140 -0.1628
   10CHL1   H14  683   0.591   1.849   9.484 -0.4698  0.6589 -0.4499
   10CHL1   C15  684   0.758   1.715   9.440 -0.0883 -0.1399  0.6682
   10CHL1  H15A  685   0.868   1.723   9.450  0.1295 -0.5691 -1.1337
   10CHL1  H15B  686   0.722   1.639   9.513  0.4016  0.2359  1.3173
   10CHL1   C16  687   0.737   1.703   9.288  0.1073  0.3989 -0.5781
   10CHL1  H16A  688   0.833   1.673   9.243  0.1424 -0.1144 -0.1704
   10CHL1  H16B  689   0.658   1.626   9.275  0.1597  0.2011  0.2412
   10CHL1   C17  690   0.688   1.844   9.244 -0.0612 -0.5139 -0.1394
   10CHL1   H17  691   0.577   1.840   9.250 -0.0781 -0.3975 -0.3575
   10CHL1   C13  692   0.735   1.941   9.350  0.3474 -0.3776  0.2526
   10CHL1   C18  693   0.888   1.961   9.336  0.2422 -0.0912  1.4135
   10CHL1  H18A  694   0.928   2.005   9.430  0.0271  1.1372  0.9546
   10CHL1  H18B  695   0.942   1.864   9.330 -1.7846 -1.1789 -1.2354
   10CHL1  H18C  696   0.905   2.032   9.252 -0.3706  2.5065  3.3402
   10CHL1   C12  697   0.667   2.077   9.376  0.5122 -0.1119  0.0251
   10CHL1  H12A  698   0.703   2.136   9.289 -1.2180 -0.7399 -1.1728
   10CHL1  H12B  699   0.561   2.071   9.345  0.3205 -0.6435  0.7647
   10CHL1   C11  700   0.709   2.144   9.510 -0.5322  0.0839 -0.5061
   10CHL1  H11A  701   0.814   2.176   9.489 -1.3447  0.3039 -5.1323
   10CHL1  H11B  702   0.660   2.239   9.539  1.8705  1.2183  0.1442
   10CHL1    C9  703   0.689   2.052   9.634 -0.1095  0.1769 -0.1748
   10CHL1    H9  704   0.583   2.024   9.651 -0.1129  0.1849 -0.1823
   10CHL1   C10  705   0.733   2.114   9.767 -0.2314 -0.3829  0.6418
   10CHL1   C19  706   0.873   2.189   9.736 -0.2871  0.4914 -0.1179
   10CHL1  H19A  707   0.952   2.135   9.680  1.2936  0.8568  1.6447
   10CHL1  H19B  708   0.854   2.288   9.689 -2.5976 -0.5516 -1.5461
   10CHL1  H19C  709   0.920   2.201   9.836  0.9739 -2.3286 -0.2863
   10CHL1    C1  710   0.622   2.210   9.817  0.6571 -0.0192  0.3682
   10CHL1   H1A  711   0.591   2.284   9.740 -0.2911  0.3161  1.0563
   10CHL1   H1B  712   0.530   2.148   9.819 -1.1132  2.4196 -0.3059
   10CHL1    C2  713   0.648   2.273   9.952  0.2598 -0.1123 -0.0866
   10CHL1   H2A  714   0.566   2.344   9.976 -0.6193 -0.8763 -0.7564
   10CHL1   H2B  715   0.744   2.328   9.941  1.2637 -1.5484  1.0468
   10CHL1   C20  716   0.716   1.874   9.087 -0.0053  0.7164 -0.0447
   10CHL1   H20  717   0.825   1.876   9.067  0.3994 -1.6954  1.5030
   10CHL1   C21  718   0.644   2.009   9.053 -0.1278  0.0022 -0.1679
   10CHL1  H21A  719   0.546   2.011   9.105  0.5364  0.3392  1.1068
   10CHL1  H21B  720   0.635   2.022   8.943 -0.7912 -0.0930 -0.1334
   10CHL1  H21C  721   0.708   2.093   9.087 -1.0251  1.2496 -1.4369
   10CHL1   C22  722   0.654   1.762   8.997 -0.3715  0.0806  0.8436
   10CHL1  H22A  723   0.665   1.661   9.043 -1.3375 -0.2285  0.4121
   10CHL1  H22B  724   0.547   1.791   8.989  0.3758  3.3454  1.0564
   10CHL1   C23  725   0.715   1.745   8.846 -0.5058  0.2023  0.1036
   10CHL1  H23A  726   0.647   1.670   8.800 -0.2838 -0.5987  1.0436
   10CHL1  H23B  727   0.688   1.841   8.798  0.8939  0.8675  0.5952
   10CHL1   C24  728   0.863   1.720   8.838 -0.2995 -0.3197  0.3144
   10CHL1  H24A  729   0.918   1.816   8.833 -3.0751  1.5727  2.5246
   10CHL1  H24B  730   0.894   1.675   8.934 -1.6199  1.2465  1.5283
   10CHL1   C25  731   0.906   1.624   8.728  0.1342 -0.0375 -0.1509
   10CHL1   H25  732   0.864   1.670   8.636 -0.1217  1.2209  0.5553
   10CHL1   C26  733   1.057   1.630   8.704  0.7970 -0.1146  0.3661
   10CHL1  H26A  734   1.093   1.525   8.703  0.8659 -0.0856 -0.6194
   10CHL1  H26B  735   1.088   1.686   8.614  0.8370 -0.4758  0.1556
   10CHL1  H26C  736   1.111   1.670   8.793  0.0751  1.0991  0.2701
   10CHL1   C27  737   0.862   1.479   8.753 -0.1118  0.3884  0.5101
   10CHL1  H27A  738   0.752   1.463   8.763 -0.1654 -0.1461 -0.7374
   10CHL1  H27B  739   0.899   1.420   8.666  1.9153 -1.4689  2.5083
   10CHL1  H27C  740   0.916   1.443   8.843 -0.3010  2.0319  1.3144
   11CHL1    C3  741   2.595   4.740  10.002  0.1038  0.5929  0.1938
   11CHL1    H3  742   2.637   4.637   9.997 -0.9107  0.0809  1.6635
   11CHL1    O3  743   2.561   4.762  10.135 -0.6212 -0.5565 -0.0498
   11CHL1   H3'  744   2.483   4.817  10.129  0.0319  0.4864  0.7325
   11CHL1    C4  745   2.682   4.852   9.950 -0.4504  0.0497  0.3517
   11CHL1   H4A  746   2.633   4.952   9.949 -1.1681 -0.2871 -0.2497
   11CHL1   H4B  747   2.774   4.853  10.012  0.6763  1.3620 -1.2571
   11CHL1    C5  748   2.721   4.827   9.810  0.3428 -0.2776 -0.5385
   11CHL1    C6  749   2.850   4.818   9.775 -0.4888 -0.3735  0.0933
   11CHL1    H6  750   2.927   4.835   9.852 -1.2528  0.8638  0.6146
   11CHL1    C7  751   2.898   4.793   9.635 -0.3848  0.1326 -0.8136
   11CHL1   H7A  752   2.960   4.877   9.596  0.8194 -0.8918 -1.1903
   11CHL1   H7B  753   2.968   4.707   9.642 -1.8870 -1.0568  0.2062
   11CHL1    C8  754   2.778   4.781   9.538  0.3458  0.0287  0.7677
   11CHL1    H8  755   2.742   4.885   9.522 -1.4660 -0.6488  0.0873
   11CHL1   C14  756   2.829   4.708   9.412  0.0275 -0.2744  0.0793
   11CHL1   H14  757   2.855   4.604   9.442 -1.7157 -0.7881 -0.0872
   11CHL1   C15  758   2.949   4.772   9.349 -0.4286 -0.0766  0.0252
   11CHL1  H15A  759   2.941   4.883   9.349  1.0678  0.1006  2.4806
   11CHL1  H15B  760   3.046   4.758   9.402  1.0553  2.2565 -1.8528
   11CHL1   C16  761   2.956   4.715   9.206 -0.1918  0.0666 -0.0241
   11CHL1  H16A  762   2.966   4.796   9.131  2.6868  0.9483  1.1903
   11CHL1  H16B  763   3.048   4.654   9.194 -1.0263 -1.3312  0.3745
   11CHL1   C17  764   2.828   4.633   9.190  0.1654 -0.5830  0.4626
   11CHL1   H17  765   2.857   4.533   9.229  0.8518 -1.1983 -1.4816
   11CHL1   C13  766   2.732   4.692   9.296 -0.5637 -0.1767 -0.1435
   11CHL1   C18  767   2.683   4.829   9.253 -0.1715 -0.3635 -0.0233
   11CHL1  H18A  768   2.767   4.887   9.209 -0.2477 -0.4305 -0.2581
   11CHL1  H18B  769   2.600   4.814   9.181 -1.0686 -0.5424  1.0080
   11CHL1  H18C  770   2.636   4.890   9.334 -2.0951 -1.4733 -0.2392
   11CHL1   C12  771   2.616   4.613   9.347 -0.4491  0.3620 -0.4765
   11CHL1  H12A  772   2.536   4.607   9.270  0.2549  0.7029 -1.2440
   11CHL1  H12B  773   2.649   4.508   9.361 -0.5442  0.2559 -1.0232
   11CHL1   C11  774   2.545   4.677   9.479  0.6335 -0.0045 -0.2258
   11CHL1  H11A  775   2.493   4.768   9.440  0.7202 -0.0691 -0.4960
   11CHL1  H11B  776   2.481   4.593   9.513 -0.8009 -0.0695 -2.7823
   11CHL1    C9  777   2.656   4.709   9.593  1.3741  0.2972  0.4802
   11CHL1    H9  778   2.688   4.608   9.629 -0.8592 -0.2391  1.1067
   11CHL1   C10  779   2.601   4.789   9.717 -0.3261 -0.5184  0.4507
   11CHL1   C19  780   2.544   4.923   9.668  0.2343 -0.0785  0.1005
   11CHL1  H19A  781   2.482   4.970   9.747 -0.3847 -0.2557 -0.2606
   11CHL1  H19B  782   2.622   4.998   9.648  1.0907 -0.4101  2.0361
   11CHL1  H19C  783   2.468   4.928   9.586  1.5855  1.3556 -1.1147
   11CHL1    C1  784   2.488   4.700   9.780  0.0409  0.6536  0.6434
   11CHL1   H1A  785   2.398   4.709   9.715  0.3829  0.8922  0.1951
   11CHL1   H1B  786   2.528   4.598   9.758 -0.5435  0.5426  0.0454
   11CHL1    C2  787   2.456   4.733   9.930 -0.1465 -0.2906  0.2737
   11CHL1   H2A  788   2.388   4.659   9.976 -0.6348  0.2360  0.4181
   11CHL1   H2B  789   2.413   4.836   9.932  2.7094  1.0210  0.4269
   11CHL1   C20  790   2.766   4.615   9.054  0.1105  0.2860 -0.3838
   11CHL1   H20  791   2.703   4.704   9.033  2.8563  2.1654 -1.1389
   11CHL1   C21  792   2.682   4.486   9.045  0.0143  0.2057  0.5074
   11CHL1  H21A  793   2.626   4.462   9.138 -0.5499 -0.5560 -0.0105
   11CHL1  H21B  794   2.754   4.403   9.027 -1.5672 -1.6059  2.0749
   11CHL1  H21C  795   2.613   4.495   8.958  1.0828 -0.7592 -0.4677
   11CHL1   C22  796   2.869   4.613   8.941  0.2256 -0.0407 -0.3181
   11CHL1  H22A  797   2.930   4.706   8.934  1.0346 -0.6066 -1.0599
   11CHL1  H22B  798   2.944   4.536   8.969 -0.4721  0.2324  2.6020
   11CHL1   C23  799   2.812   4.576   8.799 -0.2014 -0.1610  0.3925
   11CHL1  H23A  800   2.768   4.473   8.797  2.1906 -1.3052  2.1998
   11CHL1  H23B  801   2.728   4.646   8.779  0.0279  0.0076  0.0155
   11CHL1   C24  802   2.918   4.594   8.690  0.2672  0.4857  0.4498
   11CHL1  H24A  803   2.941   4.701   8.669  0.5775 -0.0958 -2.7801
   11CHL1  H24B  804   3.009   4.547   8.731 -0.9231 -1.8170  0.5854
   11CHL1   C25  805   2.885   4.522   8.554  0.6024 -0.3883 -0.7210
   11CHL1   H25  806   2.780   4.558   8.538  0.8948  0.8115 -0.0628
   11CHL1   C26  807   2.971   4.570   8.440 -0.2916  0.2129  0.8303
   11CHL1  H26A  808   3.078   4.550   8.458 -0.1861  0.9604  1.0895
   11CHL1  H26B  809   2.941   4.522   8.344  0.9756 -2.0411  1.5127
   11CHL1  H26C  810   2.959   4.679   8.421 -1.4552  0.1810  1.2933
   11CHL1   C27  811   2.891   4.372   8.573  0.0683  0.2358  0.6848
   11CHL1  H27A  812   2.988   4.318   8.568 -0.0652  0.0127  0.4453
   11CHL1  H27B  813   2.857   4.345   8.675 -0.4371 -2.9733 -0.2064
   11CHL1  H27C  814   2.832   4.312   8.500  1.8049 -1.8720  0.9045
   12CHL1    C3  815   5.073   2.774  10.306  0.4464 -0.8740 -0.3517
   12CHL1    H3  816   4.970   2.734  10.302  0.7651 -1.6832 -0.8396
   12CHL1    O3  817   5.103   2.814  10.438 -0.7793  0.4459 -0.3964
   12CHL1   H3'  818   5.192   2.849  10.435 -1.1483  1.3488 -1.4297
   12CHL1    C4  819   5.172   2.672  10.263 -0.8730 -0.6429 -0.0564
   12CHL1   H4A  820   5.275   2.700  10.297 -1.0376  1.7142 -1.2739
   12CHL1   H4B  821   5.150   2.583  10.325 -0.1440 -2.4517 -2.2773
   12CHL1    C5  822   5.174   2.638  10.115 -0.2792  0.7724 -0.0774
   12CHL1    C6  823   5.154   2.511  10.075  0.1790 -0.7701 -0.1623
   12CHL1    H6  824   5.141   2.436  10.154  1.2991 -0.7762  0.0377
   12CHL1    C7  825   5.163   2.461   9.931  0.5594 -0.4316  0.2280
   12CHL1   H7A  826   5.206   2.360   9.915  0.0782 -0.5977 -0.0301
   12CHL1   H7B  827   5.064   2.458   9.880  0.4676  2.2692  0.0931
   12CHL1    C8  828   5.257   2.563   9.856  0.0194  0.2924 -0.1382
   12CHL1    H8  829   5.356   2.540   9.899  0.8726  1.3553 -1.4466
   12CHL1   C14  830   5.247   2.525   9.712  0.0573  0.1702 -0.1499
   12CHL1   H14  831   5.143   2.535   9.673 -0.5438 -0.8557  1.1228
   12CHL1   C15  832   5.281   2.384   9.672  0.5341  0.1093 -0.2923
   12CHL1  H15A  833   5.355   2.327   9.732 -1.3382 -0.2885  1.7628
   12CHL1  H15B  834   5.192   2.319   9.679 -0.6159  1.7143  0.6761
   12CHL1   C16  835   5.320   2.390   9.529 -0.4348 -0.3602  0.8102
   12CHL1  H16A  836   5.419   2.347   9.504 -0.6803 -0.1238 -0.6828
   12CHL1  H16B  837   5.243   2.338   9.469 -1.7707  0.9623  1.2984
   12CHL1   C17  838   5.331   2.546   9.494  0.0022 -0.2932  0.0401
   12CHL1   H17  839   5.230   2.577   9.459  0.3681 -0.0140 -0.7783
   12CHL1   C13  840   5.340   2.618   9.629 -0.6181  0.4007 -0.7578
   12CHL1   C18  841   5.487   2.592   9.672  0.8395 -0.7164 -0.0871
   12CHL1  H18A  842   5.500   2.641   9.771 -0.4852 -1.7950  0.6600
   12CHL1  H18B  843   5.512   2.484   9.668  0.8515 -0.7114 -0.1512
   12CHL1  H18C  844   5.560   2.637   9.601 -1.1694  0.4046 -1.5463
   12CHL1   C12  845   5.283   2.756   9.638 -0.4055  0.0670  0.8744
   12CHL1  H12A  846   5.337   2.839   9.588  0.9587 -1.2108  0.1627
   12CHL1  H12B  847   5.185   2.764   9.587  0.3039 -1.4945 -0.8805
   12CHL1   C11  848   5.269   2.807   9.785  0.2034  0.4973 -0.0725
   12CHL1  H11A  849   5.373   2.820   9.822 -0.2799  3.5915  0.5312
   12CHL1  H11B  850   5.231   2.912   9.791  0.0492  0.4748 -0.5930
   12CHL1    C9  851   5.199   2.702   9.875  0.6344  0.6022 -0.2143
   12CHL1    H9  852   5.093   2.695   9.842 -0.1468  0.1394  2.2197
   12CHL1   C10  853   5.199   2.756  10.017  0.0061 -0.1062 -1.1034
   12CHL1   C19  854   5.343   2.812  10.057  0.5342  0.0396  0.2546
   12CHL1  H19A  855   5.347   2.827  10.167  0.5786 -2.5839  0.6784
   12CHL1  H19B  856   5.421   2.741  10.023  1.8229 -0.0297  3.1185
   12CHL1  H19C  857   5.350   2.909  10.002  0.4961 -0.3200 -0.4029
   12CHL1    C1  858   5.098   2.873  10.059  0.2802  0.4574  0.7095
   12CHL1   H1A  859   5.111   2.972  10.010  4.0944 -1.2818 -2.4419
   12CHL1   H1B  860   4.995   2.840  10.034  0.6807 -0.5943  0.3628
   12CHL1    C2  861   5.091   2.904  10.218 -0.1663 -0.1472  0.9345
   12CHL1   H2A  862   5.007   2.975  10.235  1.1262  1.8253 -0.4652
   12CHL1   H2B  863   5.188   2.951  10.243  0.9990 -1.1169 -1.3985
   12CHL1   C20  864   5.426   2.585   9.381 -0.7907  0.3038  0.3363
   12CHL1   H20  865   5.530   2.551   9.403  0.1193  2.3670 -0.5102
   12CHL1   C21  866   5.427   2.736   9.358  0.5594  0.5644 -0.0802
   12CHL1  H21A  867   5.494   2.786   9.431  1.3395 -0.5893  0.0163
   12CHL1  H21B  868   5.328   2.777   9.387  1.1873  1.0483  1.5061
   12CHL1  H21C  869   5.436   2.780   9.257 -1.4614  1.1805 -0.0324
   12CHL1   C22  870   5.396   2.503   9.253  0.4307 -0.4661  0.0725
   12CHL1  H22A  871   5.465   2.538   9.174 -0.1476  1.5486  0.3994
   12CHL1  H22B  872   5.413   2.394   9.265  0.5166 -0.5478 -0.7151
   12CHL1   C23  873   5.259   2.533   9.185 -0.0662 -0.4037 -0.3675
   12CHL1  H23A  874   5.188   2.488   9.258 -3.4580  1.4584 -2.2686
   12CHL1  H23B  875   5.234   2.640   9.169  1.0250 -0.2113 -0.8628
   12CHL1   C24  876   5.236   2.479   9.041  0.2120 -0.3174  0.1821
   12CHL1  H24A  877   5.309   2.509   8.963 -0.0312  0.5017  0.2537
   12CHL1  H24B  878   5.255   2.370   9.047 -1.9091 -0.8821 -2.1717
   12CHL1   C25  879   5.094   2.500   8.992 -0.1718  0.4034 -1.3240
   12CHL1   H25  880   5.073   2.605   9.019  0.0355  0.0017  0.5376
   12CHL1   C26  881   5.076   2.481   8.837 -0.2268 -0.3669  0.1241
   12CHL1  H26A  882   5.135   2.558   8.784 -2.4819  1.1336 -0.3110
   12CHL1  H26B  883   5.105   2.377   8.808 -1.1383 -0.6748  0.2772
   12CHL1  H26C  884   4.973   2.509   8.808 -0.4291  1.0108  1.9927
   12CHL1   C27  885   4.991   2.412   9.064  0.5555 -0.8704  0.2650
   12CHL1  H27A  886   5.003   2.416   9.175  1.1010 -0.2734  0.1891
   12CHL1  H27B  887   4.886   2.446   9.049  0.8912  0.1362  0.1293
   12CHL1  H27C  888   4.994   2.308   9.025 -2.9324 -0.3045 -1.9322
   13CHL1    C3  889   3.852   3.629   9.915  0.5399 -0.9146  0.0958
   13CHL1    H3  890   3.943   3.651   9.856  0.6587  0.2859  0.6991
   13CHL1    O3  891   3.879   3.655  10.051 -0.3679  0.1134  0.2048
   13CHL1   H3'  892   3.907   3.746  10.042 -1.2697  0.6386  2.2694
   13CHL1    C4  893   3.731   3.725   9.877  0.0999  0.1326 -0.2566
   13CHL1   H4A  894   3.647   3.686   9.938  0.0300 -0.1647 -0.5415
   13CHL1   H4B  895   3.751   3.832   9.897 -0.0198  0.5425 -2.1186
   13CHL1    C5  896   3.685   3.705   9.730  0.2726  0.5380 -0.4546
   13CHL1    C6  897   3.679   3.799   9.639  0.3120 -0.5177  0.0346
   13CHL1    H6  898   3.709   3.900   9.670 -2.7717  0.2828  0.7965
   13CHL1    C7  899   3.628   3.785   9.497  0.2090 -0.4378  0.2668
   13CHL1   H7A  900   3.564   3.872   9.471  1.2607  0.3600  0.2681
   13CHL1   H7B  901   3.711   3.802   9.426  0.0486  0.2570  0.2343
   13CHL1    C8  902   3.558   3.649   9.477 -0.1593 -0.5056  0.8468
   13CHL1    H8  903   3.456   3.661   9.518 -0.4729 -0.6868  0.1464
   13CHL1   C14  904   3.556   3.622   9.320  0.0116 -0.6881 -0.9551
   13CHL1   H14  905   3.663   3.611   9.291  0.8649  0.3792  1.5121
   13CHL1   C15  906   3.514   3.731   9.218 -0.6621 -0.2602 -0.4251
   13CHL1  H15A  907   3.434   3.797   9.259 -0.3343  0.4498 -0.9002
   13CHL1  H15B  908   3.607   3.784   9.190 -0.2041  0.2532  1.9064
   13CHL1   C16  909   3.468   3.653   9.103  0.2197  0.5126  0.1266
   13CHL1  H16A  910   3.357   3.659   9.102  0.1447 -0.0695  1.8321
   13CHL1  H16B  911   3.499   3.697   9.006  0.7641  2.3022  1.0673
   13CHL1   C17  912   3.494   3.504   9.124  0.0763  0.2813 -0.0534
   13CHL1   H17  913   3.600   3.488   9.095 -0.1009 -1.3737  0.0918
   13CHL1   C13  914   3.499   3.497   9.283 -0.5108  0.2714 -0.7732
   13CHL1   C18  915   3.351   3.497   9.335  0.5203 -0.4135  0.0297
   13CHL1  H18A  916   3.297   3.588   9.302  0.7541 -0.5689 -0.7941
   13CHL1  H18B  917   3.300   3.400   9.314 -1.6441  0.6027  0.3506
   13CHL1  H18C  918   3.357   3.506   9.446 -0.5960  1.5062 -0.0218
   13CHL1   C12  919   3.591   3.390   9.344 -0.4989 -0.3983 -0.5010
   13CHL1  H12A  920   3.556   3.285   9.334  2.6313 -1.6411  0.2029
   13CHL1  H12B  921   3.698   3.389   9.313  0.6939 -0.9530  3.1882
   13CHL1   C11  922   3.598   3.395   9.503  0.1790  0.5459  0.1995
   13CHL1  H11A  923   3.502   3.367   9.550 -0.9408  0.9753 -1.7287
   13CHL1  H11B  924   3.680   3.328   9.537  0.9772  0.5631 -1.5779
   13CHL1    C9  925   3.641   3.536   9.549  0.0790 -0.2227  0.3190
   13CHL1    H9  926   3.743   3.545   9.505 -0.2845  1.1010 -0.3120
   13CHL1   C10  927   3.652   3.557   9.699  0.6071  0.0159  0.1613
   13CHL1   C19  928   3.515   3.508   9.757 -0.1036 -0.3079 -0.3696
   13CHL1  H19A  929   3.519   3.398   9.774 -0.6969  0.0180  2.2179
   13CHL1  H19B  930   3.496   3.562   9.852 -2.2514  0.3332 -1.1157
   13CHL1  H19C  931   3.439   3.538   9.681  1.9199  0.5895 -2.1748
   13CHL1    C1  932   3.762   3.463   9.754  0.5498  0.0046 -0.0579
   13CHL1   H1A  933   3.729   3.361   9.726 -2.2663  0.7341  0.3696
   13CHL1   H1B  934   3.851   3.478   9.689  0.9393  1.9892  0.8671
   13CHL1    C2  935   3.806   3.483   9.900  1.0986  0.2197  0.0474
   13CHL1   H2A  936   3.881   3.408   9.932  1.6333  1.7549  2.7671
   13CHL1   H2B  937   3.713   3.469   9.960  1.6440  0.8896  1.0834
   13CHL1   C20  938   3.402   3.406   9.043  0.0880  0.7733 -0.2695
   13CHL1   H20  939   3.308   3.384   9.098 -0.1714 -0.3569 -1.1329
   13CHL1   C21  940   3.488   3.276   9.020 -0.6934 -0.6343 -0.5177
   13CHL1  H21A  941   3.558   3.283   8.934 -0.0300  0.5217  0.0940
   13CHL1  H21B  942   3.410   3.199   9.001 -2.6879  1.7118 -2.4249
   13CHL1  H21C  943   3.543   3.242   9.111  1.5215 -0.9162 -1.8902
   13CHL1   C22  944   3.369   3.454   8.898 -0.1233 -0.2581 -0.9825
   13CHL1  H22A  945   3.309   3.546   8.911  1.2622  1.3757 -4.7384
   13CHL1  H22B  946   3.466   3.479   8.851 -0.1392  0.5663 -0.5924
   13CHL1   C23  947   3.277   3.372   8.807 -0.6715  0.2528 -0.4100
   13CHL1  H23A  948   3.327   3.280   8.769  0.3484  1.0605 -1.0846
   13CHL1  H23B  949   3.186   3.349   8.866 -0.5638  2.8314  0.8538
   13CHL1   C24  950   3.229   3.455   8.687  0.2631 -0.3769  0.1495
   13CHL1  H24A  951   3.176   3.547   8.718  0.9284 -0.3755  1.3054
   13CHL1  H24B  952   3.310   3.494   8.622 -0.3572  0.0444 -0.3854
   13CHL1   C25  953   3.130   3.378   8.600 -0.5574  0.4418 -0.7236
   13CHL1   H25  954   3.077   3.314   8.675  2.7274 -2.9247 -1.0182
   13CHL1   C26  955   3.056   3.464   8.505  0.1854 -0.0218  0.3853
   13CHL1  H26A  956   3.002   3.391   8.442 -0.9025  1.6405 -0.6997
   13CHL1  H26B  957   2.992   3.539   8.555  0.0731  0.3122 -0.2467
   13CHL1  H26C  958   3.123   3.522   8.437  0.2500  0.8442  1.1609
   13CHL1   C27  959   3.202   3.272   8.521  0.0779 -0.3149  0.6023
   13CHL1  H27A  960   3.264   3.207   8.587  3.5146  0.6781 -1.4135
   13CHL1  H27B  961   3.128   3.208   8.468 -3.0441  2.2406  1.5659
   13CHL1  H27C  962   3.269   3.314   8.444  1.2194 -1.9031  0.6819
   14CHL1    C3  963   3.801   0.179  10.360 -0.7253 -0.2732 -0.0448
   14CHL1    H3  964   3.854   0.271  10.325 -2.1275  1.0622  1.1680
   14CHL1    O3  965   3.815   0.183  10.499 -0.5787  0.2897 -0.3233
   14CHL1   H3'  966   3.768   0.104  10.525 -0.8005  1.0852  1.9024
   14CHL1    C4  967   3.656   0.173  10.306 -0.0998 -0.0459 -0.1962
   14CHL1   H4A  968   3.596   0.097  10.360  0.9408  0.6134  2.0265
   14CHL1   H4B  969   3.610   0.271  10.331  1.0158 -0.0161  2.0259
   14CHL1    C5  970   3.654   0.132  10.159  0.6353  0.0061 -0.5618
   14CHL1    C6  971   3.588   0.209  10.074 -0.6379 -0.0410  0.3494
   14CHL1    H6  972   3.534   0.297  10.111 -0.9072 -0.0912  0.0806
   14CHL1    C7  973   3.594   0.194   9.927  0.5406 -0.2039  0.2486
   14CHL1   H7A  974   3.497   0.215   9.878  1.5025  1.5609 -1.0657
   14CHL1   H7B  975   3.657   0.281   9.895  0.3441 -0.2384 -0.2472
   14CHL1    C8  976   3.647   0.051   9.883 -0.3803 -0.2363 -0.4269
   14CHL1    H8  977   3.563  -0.018   9.907 -1.9930  1.7303 -0.0966
   14CHL1   C14  978   3.673   0.048   9.737  0.0627 -0.5164 -1.0175
   14CHL1   H14  979   3.759   0.117   9.726  0.5437 -0.8584  0.3368
   14CHL1   C15  980   3.566   0.096   9.643 -0.7420  0.4399 -0.1657
   14CHL1  H15A  981   3.468   0.056   9.675 -0.0242 -1.7205 -0.5588
   14CHL1  H15B  982   3.546   0.206   9.648 -5.3402 -0.1964 -0.1023
   14CHL1   C16  983   3.608   0.045   9.498 -0.5214  0.1539 -0.2580
   14CHL1  H16A  984   3.525  -0.005   9.444  0.2512 -1.6005  0.0892
   14CHL1  H16B  985   3.632   0.135   9.438 -0.5679  1.1390  1.1396
   14CHL1   C17  986   3.743  -0.034   9.524 -0.4348 -0.1007  0.4513
   14CHL1   H17  987   3.831   0.034   9.526 -0.9288  0.5498  0.6678
   14CHL1   C13  988   3.720  -0.079   9.671 -0.6476  0.3581 -0.8015
   14CHL1   C18  989   3.615  -0.196   9.673 -0.2375 -0.3050  0.2428
   14CHL1  H18A  990   3.524  -0.177   9.613  1.5456  0.9345 -2.2273
   14CHL1  H18B  991   3.671  -0.283   9.632  2.2974  0.0798  2.5447
   14CHL1  H18C  992   3.583  -0.216   9.778 -1.8309  1.2616  0.0859
   14CHL1   C12  993   3.846  -0.125   9.758  0.0770 -0.8650  0.1500
   14CHL1  H12A  994   3.885  -0.219   9.714  1.8559  0.0769 -0.3857
   14CHL1  H12B  995   3.923  -0.047   9.740 -0.9499 -0.1007 -1.1039
   14CHL1   C11  996   3.813  -0.132   9.909  0.4250 -0.4856  0.5341
   14CHL1  H11A  997   3.733  -0.202   9.942 -0.1987  0.7474  1.7728
   14CHL1  H11B  998   3.911  -0.165   9.952  1.0818 -0.7754 -1.1277
   14CHL1    C9  999   3.766   0.005   9.956  0.6033  0.5571 -0.7826
   14CHL1    H9 1000   3.848   0.073   9.925  0.0757  0.0625 -3.4816
   14CHL1   C10 1001   3.746   0.017  10.115 -0.1340 -0.4277  0.4361
   14CHL1   C19 1002   3.676  -0.118  10.169  0.1304 -0.2378 -0.0456
   14CHL1  H19A 1003   3.747  -0.204  10.165 -0.6487 -0.8646 -3.8032
   14CHL1  H19B 1004   3.641  -0.107  10.274 -0.4249  0.0566 -0.2575
   14CHL1  H19C 1005   3.588  -0.144  10.107 -0.7263 -0.8536  1.3832
   14CHL1    C1 1006   3.885   0.031  10.173 -0.4906 -0.0330  0.2533
   14CHL1   H1A 1007   3.939  -0.064  10.155  1.1786  0.3612  2.7077
   14CHL1   H1B 1008   3.946   0.107  10.119  0.1260 -0.0322  0.9349
   14CHL1    C2 1009   3.885   0.057  10.324  0.4315  0.5708 -0.2713
   14CHL1   H2A 1010   3.988   0.069  10.364  0.5908  0.7321 -0.7226
   14CHL1   H2B 1011   3.847  -0.038  10.367 -0.0213  1.4734  1.4025
   14CHL1   C20 1012   3.759  -0.139   9.414 -0.2661 -1.2967 -0.1947
   14CHL1   H20 1013   3.662  -0.194   9.413 -2.0013  1.4677 -2.6958
   14CHL1   C21 1014   3.877  -0.227   9.439  0.1302  0.2098  0.2552
   14CHL1  H21A 1015   3.972  -0.169   9.444  0.7028 -0.4645 -1.6887
   14CHL1  H21B 1016   3.873  -0.296   9.352 -1.4513  0.4652  0.0868
   14CHL1  H21C 1017   3.874  -0.292   9.529  1.1376  0.0009  0.1482
   14CHL1   C22 1018   3.761  -0.071   9.266 -0.2715 -0.4802 -0.1175
   14CHL1  H22A 1019   3.660  -0.025   9.255 -0.3907 -1.0329 -1.5299
   14CHL1  H22B 1020   3.839   0.008   9.275 -1.1127  0.3087  0.5489
   14CHL1   C23 1021   3.788  -0.151   9.139 -0.0984 -0.4829 -0.0763
   14CHL1  H23A 1022   3.896  -0.178   9.140  0.6816  2.3748  0.9061
   14CHL1  H23B 1023   3.721  -0.238   9.155 -1.4212  0.0728 -2.1486
   14CHL1   C24 1024   3.748  -0.080   9.012  0.3022 -0.9441  0.0459
   14CHL1  H24A 1025   3.643  -0.044   9.013  1.4046  2.6628  0.3047
   14CHL1  H24B 1026   3.813   0.008   8.997  0.4286 -1.4361 -2.9395
   14CHL1   C25 1027   3.782  -0.166   8.888  0.0151  0.0644  0.6303
   14CHL1   H25 1028   3.883  -0.211   8.899  0.0870  0.4721  1.8492
   14CHL1   C26 1029   3.697  -0.290   8.882 -0.4395 -0.7985 -0.1772
   14CHL1  H26A 1030   3.590  -0.262   8.880 -0.2433 -0.0443 -0.3605
   14CHL1  H26B 1031   3.714  -0.342   8.786 -0.5586  0.9219 -1.1659
   14CHL1  H26C 1032   3.711  -0.353   8.973 -3.1891  0.2294  1.0656
   14CHL1   C27 1033   3.766  -0.084   8.758  0.0696  0.4225  0.2053
   14CHL1  H27A 1034   3.801  -0.154   8.679  0.2249  1.8377 -1.0043
   14CHL1  H27B 1035   3.661  -0.054   8.737 -0.3178 -2.1416 -1.9787
   14CHL1  H27C 1036   3.835   0.003   8.758  0.3596  0.2784  2.4494
   15CHL1    C3 1037   3.956   5.532  10.092  0.1421 -0.6804 -0.0366
   15CHL1    H3 1038   3.992   5.440  10.041 -1.4775 -1.3948  0.0458
   15CHL1    O3 1039   3.973   5.514  10.229  0.3838  0.3674 -0.5646
   15CHL1   H3' 1040   3.882   5.521  10.257 -0.0831 -1.2138 -1.6159
   15CHL1    C4 1041   4.035   5.658  10.059 -0.6086  0.5866 -0.0780
   15CHL1   H4A 1042   3.989   5.744  10.113  0.0061 -0.0238  1.4705
   15CHL1   H4B 1043   4.141   5.643  10.090  0.3064 -1.5962 -3.6550
   15CHL1    C5 1044   4.045   5.671   9.912 -0.3025 -0.8835  0.5035
   15CHL1    C6 1045   4.155   5.660   9.837  0.5471 -0.2729 -0.2853
   15CHL1    H6 1046   4.246   5.657   9.898  1.4985  0.8291 -1.5834
   15CHL1    C7 1047   4.172   5.671   9.688 -0.5212 -0.2930  0.7950
   15CHL1   H7A 1048   4.252   5.744   9.666 -1.0282 -0.0127 -0.1310
   15CHL1   H7B 1049   4.191   5.568   9.649 -0.0712 -0.3688  1.2005
   15CHL1    C8 1050   4.045   5.732   9.630  0.4959  0.8415 -0.1098
   15CHL1    H8 1051   4.045   5.840   9.654  0.8889  0.9475 -0.5695
   15CHL1   C14 1052   4.050   5.713   9.473 -0.3649  0.8834 -0.4259
   15CHL1   H14 1053   4.059   5.603   9.459 -3.8069  0.1296  1.8281
   15CHL1   C15 1054   4.160   5.776   9.401  0.6240  0.3887 -0.4562
   15CHL1  H15A 1055   4.172   5.883   9.427 -0.3592  0.2869  0.4731
   15CHL1  H15B 1056   4.255   5.720   9.417 -0.7642 -2.5627 -1.7712
   15CHL1   C16 1057   4.116   5.766   9.257 -0.1526 -0.4127 -1.4381
   15CHL1  H16A 1058   4.141   5.867   9.218  1.6642 -0.0809  0.4209
   15CHL1  H16B 1059   4.180   5.693   9.204  1.0058  0.2721 -1.0366
   15CHL1   C17 1060   3.962   5.733   9.259 -0.6572 -0.1597 -0.4191
   15CHL1   H17 1061   3.943   5.626   9.240 -0.8219 -0.0799 -0.7112
   15CHL1   C13 1062   3.922   5.760   9.407 -0.0878  0.2707  0.3453
   15CHL1   C18 1063   3.897   5.914   9.430 -0.1450  0.0754  0.6023
   15CHL1  H18A 1064   3.795   5.926   9.389 -0.1265 -2.0120 -0.1858
   15CHL1  H18B 1065   3.906   5.935   9.538  2.5806  0.3920  0.4035
   15CHL1  H18C 1066   3.973   5.977   9.379  0.7907  0.9515  2.9605
   15CHL1   C12 1067   3.805   5.682   9.462  0.2221  0.6529  0.2466
   15CHL1  H12A 1068   3.710   5.703   9.409  2.3089  3.4044 -2.7804
   15CHL1  H12B 1069   3.834   5.585   9.416  1.5346  2.0420 -2.0764
   15CHL1   C11 1070   3.785   5.683   9.613  0.3438  0.9141 -0.1948
   15CHL1  H11A 1071   3.755   5.783   9.650 -1.0675  0.3425  0.2654
   15CHL1  H11B 1072   3.708   5.619   9.661 -1.6652  3.5656  0.3205
   15CHL1    C9 1073   3.917   5.664   9.693 -0.2303  0.6120 -0.4186
   15CHL1    H9 1074   3.938   5.557   9.677 -1.4824  0.6790 -2.8760
   15CHL1   C10 1075   3.905   5.680   9.843  0.7313 -0.2437 -0.2319
   15CHL1   C19 1076   3.840   5.818   9.883  0.5385 -0.2961  0.2223
   15CHL1  H19A 1077   3.875   5.905   9.824 -0.1120  0.2570  0.6477
   15CHL1  H19B 1078   3.732   5.816   9.854  1.2028  1.7396 -2.9056
   15CHL1  H19C 1079   3.843   5.836   9.992  0.8625  2.1496 -0.1504
   15CHL1    C1 1080   3.813   5.559   9.898  0.4211  0.3138 -0.0298
   15CHL1   H1A 1081   3.707   5.586   9.875  0.8904  3.6052  1.0438
   15CHL1   H1B 1082   3.834   5.467   9.840 -0.7443  0.7813 -1.2505
   15CHL1    C2 1083   3.812   5.543  10.055  0.4201  0.2917  0.1784
   15CHL1   H2A 1084   3.757   5.453  10.089  2.2955 -0.9985 -0.0719
   15CHL1   H2B 1085   3.761   5.628  10.105  1.2349  1.1320 -0.3812
   15CHL1   C20 1086   3.893   5.810   9.150  0.5552  0.4526  0.5925
   15CHL1   H20 1087   3.903   5.919   9.170 -2.0925  0.5014  2.0566
   15CHL1   C21 1088   3.743   5.785   9.145 -0.0714 -0.3576  0.3251
   15CHL1  H21A 1089   3.693   5.839   9.062  0.6664 -1.9222 -1.1860
   15CHL1  H21B 1090   3.700   5.812   9.245  0.9651 -0.4110  0.7927
   15CHL1  H21C 1091   3.731   5.675   9.131 -0.6068 -0.0352 -2.2057
   15CHL1   C22 1092   3.959   5.788   9.016 -0.2424 -1.3594 -0.7316
   15CHL1  H22A 1093   4.070   5.779   9.022 -0.0349  0.6898 -0.8094
   15CHL1  H22B 1094   3.920   5.695   8.970  0.0583 -2.7415  1.6376
   15CHL1   C23 1095   3.925   5.906   8.920  0.2124 -0.1075  0.8974
   15CHL1  H23A 1096   3.822   5.946   8.928 -0.9874 -3.1258  2.1149
   15CHL1  H23B 1097   3.975   6.000   8.952 -2.6693  1.1736  2.0162
   15CHL1   C24 1098   3.961   5.877   8.768 -0.1967  0.1057 -0.1849
   15CHL1  H24A 1099   4.071   5.872   8.751 -0.4727 -0.7420 -1.9204
   15CHL1  H24B 1100   3.922   5.777   8.740  0.2566  0.0523 -0.6441
   15CHL1   C25 1101   3.917   5.991   8.661  0.3080 -0.3591  0.3846
   15CHL1   H25 1102   3.977   5.968   8.570 -0.4986  0.1713 -0.2973
   15CHL1   C26 1103   3.763   5.979   8.628 -0.2851 -0.3155  0.8762
   15CHL1  H26A 1104   3.751   5.888   8.565 -1.1605  0.5168 -0.2040
   15CHL1  H26B 1105   3.701   5.977   8.720 -0.4475 -1.5152  0.7643
   15CHL1  H26C 1106   3.740   6.065   8.563 -0.7849 -0.4575  0.8616
   15CHL1   C27 1107   3.946   6.129   8.719  0.3854  1.0933  0.8819
   15CHL1  H27A 1108   3.903   6.213   8.661 -3.5089 -0.4031  1.2767
   15CHL1  H27B 1109   3.903   6.151   8.819  1.4170  0.4264  1.4886
   15CHL1  H27C 1110   4.055   6.124   8.737  0.2550 -2.3605  1.4151
   16CHL1    C3 1111   5.061   0.099  10.336 -0.3571 -0.0320  0.2850
   16CHL1    H3 1112   4.992   0.182  10.366 -0.1543  0.4384 -0.5159
   16CHL1    O3 1113   5.109   0.029  10.450  0.7045  0.3265 -0.5438
   16CHL1   H3' 1114   5.184   0.081  10.478 -0.6922  2.6985 -0.9116
   16CHL1    C4 1115   4.977   0.011  10.237 -0.2940 -0.3621 -0.4648
   16CHL1   H4A 1116   5.022  -0.087  10.211 -1.3769 -0.5100 -1.9031
   16CHL1   H4B 1117   4.888  -0.028  10.291  1.8686 -3.3609  1.2412
   16CHL1    C5 1118   4.938   0.094  10.113  1.1198 -0.6100 -0.3207
   16CHL1    C6 1119   4.810   0.112  10.080  0.9782 -0.2283 -0.0722
   16CHL1    H6 1120   4.733   0.059  10.137  0.9634  0.8541  0.9391
   16CHL1    C7 1121   4.767   0.190   9.958  0.4401  0.1270  0.0759
   16CHL1   H7A 1122   4.679   0.150   9.904 -1.2317  0.8838  2.1041
   16CHL1   H7B 1123   4.740   0.291   9.996  2.8428  0.6943  0.4768
   16CHL1    C8 1124   4.883   0.210   9.863 -0.4058 -0.4649 -0.3369
   16CHL1    H8 1125   4.910   0.109   9.825  1.6466 -0.4882  1.0140
   16CHL1   C14 1126   4.845   0.307   9.748  0.3429  0.2793  0.3944
   16CHL1   H14 1127   4.827   0.407   9.792 -0.1609  0.7367 -0.7961
   16CHL1   C15 1128   4.717   0.277   9.670 -0.8834 -0.0684  0.0093
   16CHL1  H15A 1129   4.701   0.168   9.653  0.2172 -0.2301 -0.0439
   16CHL1  H15B 1130   4.638   0.299   9.745 -1.2985 -0.0208 -0.4358
   16CHL1   C16 1131   4.730   0.367   9.546  0.6711  0.0921 -0.3364
   16CHL1  H16A 1132   4.686   0.311   9.461  0.5032 -1.2705  0.6293
   16CHL1  H16B 1133   4.652   0.447   9.544  1.2266  0.8005  2.5321
   16CHL1   C17 1134   4.878   0.407   9.542 -0.3052  0.4530 -0.6554
   16CHL1   H17 1135   4.880   0.499   9.604 -0.8330 -0.9525  1.5687
   16CHL1   C13 1136   4.957   0.322   9.644  0.7500 -0.8109 -0.2605
   16CHL1   C18 1137   5.003   0.191   9.578  0.5972  0.4190 -0.3007
   16CHL1  H18A 1138   4.918   0.139   9.529 -0.0971  2.5189 -1.4458
   16CHL1  H18B 1139   5.070   0.226   9.496 -1.2884  2.0804 -1.2198
   16CHL1  H18C 1140   5.043   0.120   9.653 -2.2468 -0.3931  0.5804
   16CHL1   C12 1141   5.069   0.403   9.718 -0.1864  0.2018 -0.0448
   16CHL1  H12A 1142   5.153   0.430   9.650  0.5700 -0.7854  0.4611
   16CHL1  H12B 1143   5.033   0.493   9.771  2.3115 -0.3073  2.8423
   16CHL1   C11 1144   5.118   0.316   9.836  0.7216 -0.4575  0.0316
   16CHL1  H11A 1145   5.179   0.231   9.798  1.6377 -0.0012  0.4585
   16CHL1  H11B 1146   5.184   0.378   9.900 -1.2189 -0.6615  2.3492
   16CHL1    C9 1147   5.006   0.266   9.937 -0.7151 -0.1094  0.4043
   16CHL1    H9 1148   4.967   0.357   9.988  1.0704  0.3024  1.1151
   16CHL1   C10 1149   5.054   0.166  10.042 -0.3192  0.5611  0.2273
   16CHL1   C19 1150   5.134   0.046   9.984 -0.1732 -0.0982  0.4637
   16CHL1  H19A 1151   5.244   0.056   9.999 -0.0603 -0.1651 -0.2993
   16CHL1  H19B 1152   5.102  -0.052  10.025  0.1489 -0.2671  0.3128
   16CHL1  H19C 1153   5.112   0.043   9.875 -1.0214  1.3460  0.5640
   16CHL1    C1 1154   5.133   0.243  10.152 -0.6585  0.3894 -0.5386
   16CHL1   H1A 1155   5.216   0.280  10.088 -1.9131  3.7464 -0.4428
   16CHL1   H1B 1156   5.075   0.329  10.192  1.1122  0.1248  2.9422
   16CHL1    C2 1157   5.184   0.156  10.268  0.8372 -0.0934 -0.3072
   16CHL1   H2A 1158   5.245   0.226  10.330  1.5173  0.0332 -1.1019
   16CHL1   H2B 1159   5.248   0.072  10.234 -0.9868 -1.3416 -0.7969
   16CHL1   C20 1160   4.938   0.437   9.400  0.1025 -0.2578  0.5562
   16CHL1   H20 1161   5.048   0.449   9.412  0.0947  0.2305  0.1482
   16CHL1   C21 1162   4.872   0.572   9.369  1.0746 -0.2485 -0.1276
   16CHL1  H21A 1163   4.866   0.650   9.448 -2.8982 -2.3225  1.9200
   16CHL1  H21B 1164   4.765   0.541   9.362  1.3889 -1.4668  0.2490
   16CHL1  H21C 1165   4.906   0.624   9.277  2.0285  1.8065  1.3164
   16CHL1   C22 1166   4.926   0.327   9.294  0.3200  0.0053  0.4816
   16CHL1  H22A 1167   4.986   0.236   9.318  1.6054  0.4143 -1.0314
   16CHL1  H22B 1168   4.819   0.297   9.284 -0.0932  1.1036  1.3936
   16CHL1   C23 1169   4.969   0.366   9.152  0.4158  0.2125 -0.4552
   16CHL1  H23A 1170   4.911   0.451   9.110 -2.3090 -1.1407  0.2991
   16CHL1  H23B 1171   5.074   0.401   9.165  0.3672  0.5396 -0.9202
   16CHL1   C24 1172   4.957   0.244   9.063 -0.1451 -0.6941  0.1940
   16CHL1  H24A 1173   5.038   0.172   9.085  1.7032  0.6458 -1.7514
   16CHL1  H24B 1174   4.859   0.193   9.070 -1.8157  1.9842 -1.6857
   16CHL1   C25 1175   4.982   0.281   8.915  0.0391  0.0480  0.2038
   16CHL1   H25 1176   5.002   0.187   8.859  0.6631  1.0074 -1.2295
   16CHL1   C26 1177   4.860   0.344   8.847  0.0131 -0.3880 -0.1414
   16CHL1  H26A 1178   4.814   0.437   8.888 -2.5135 -1.3046 -0.7079
   16CHL1  H26B 1179   4.895   0.368   8.744 -0.9431  2.4537  0.1001
   16CHL1  H26C 1180   4.781   0.269   8.825 -0.2665  0.6584 -3.2619
   16CHL1   C27 1181   5.101   0.371   8.900  0.1524  0.3004 -0.2219
   16CHL1  H27A 1182   5.148   0.366   8.799 -0.6784 -1.4750 -0.5585
   16CHL1  H27B 1183   5.081   0.477   8.923  0.9875  0.3585  0.2888
   16CHL1  H27C 1184   5.181   0.338   8.969 -1.7361  1.3088  2.6131
   17CHL1    C3 1185   0.527   3.312  10.389 -0.2201 -0.4525  0.1434
   17CHL1    H3 1186   0.452   3.231  10.400  0.3729 -1.1296 -0.7221
   17CHL1    O3 1187   0.539   3.352  10.522  0.1057  0.1673 -0.2038
   17CHL1   H3' 1188   0.513   3.274  10.572 -4.1188  0.7851 -1.0730
   17CHL1    C4 1189   0.654   3.250  10.334  0.2044 -0.6813 -0.1149
   17CHL1   H4A 1190   0.732   3.329  10.338 -1.5268  1.0696  2.0957
   17CHL1   H4B 1191   0.678   3.164  10.399  0.9232 -1.4244 -1.3330
   17CHL1    C5 1192   0.635   3.207  10.189  0.1589 -0.1387  0.0937
   17CHL1    C6 1193   0.654   3.082  10.149 -0.2648  0.4159 -0.1818
   17CHL1    H6 1194   0.677   3.012  10.231  1.4358  1.2221  0.0786
   17CHL1    C7 1195   0.658   3.042  10.002  0.0921 -0.2741 -0.3058
   17CHL1   H7A 1196   0.749   2.979   9.988  0.7825  0.5019  0.5294
   17CHL1   H7B 1197   0.561   2.991   9.983  0.1170  0.0024 -1.2444
   17CHL1    C8 1198   0.660   3.157   9.905  0.2957 -0.6088  0.6117
   17CHL1    H8 1199   0.762   3.202   9.904  0.2163 -0.3788  1.6858
   17CHL1   C14 1200   0.624   3.108   9.762 -0.3028  0.5917 -0.5750
   17CHL1   H14 1201   0.519   3.073   9.760 -1.1991  2.9942  0.7377
   17CHL1   C15 1202   0.709   2.989   9.697 -0.2621 -0.6127 -0.1723
   17CHL1  H15A 1203   0.819   2.987   9.714 -0.4151 -1.7361  0.8720
   17CHL1  H15B 1204   0.664   2.901   9.748 -1.0743 -0.7845 -1.1582
   17CHL1   C16 1205   0.688   3.011   9.551 -0.2067 -0.5830  0.1272
   17CHL1  H16A 1206   0.788   3.036   9.507 -0.9375  0.5386 -0.9671
   17CHL1  H16B 1207   0.637   2.923   9.507 -2.9436  0.9578  0.0025
   17CHL1   C17 1208   0.602   3.134   9.533 -0.4593  0.2632  0.8659
   17CHL1   H17 1209   0.498   3.094   9.538  0.2059 -1.9802 -1.0144
   17CHL1   C13 1210   0.616   3.223   9.659 -0.3744 -0.1970  0.8643
   17CHL1   C18 1211   0.750   3.300   9.638 -0.2598 -0.0842 -0.1855
   17CHL1  H18A 1212   0.780   3.336   9.738 -2.2401  2.8368 -0.5138
   17CHL1  H18B 1213   0.832   3.231   9.609  1.7031  1.8280  0.5330
   17CHL1  H18C 1214   0.732   3.377   9.559  1.0726  1.2777  0.7901
   17CHL1   C12 1215   0.497   3.312   9.702 -0.4271  0.0905  0.1002
   17CHL1  H12A 1216   0.478   3.391   9.626  1.3563 -0.2339 -0.7357
   17CHL1  H12B 1217   0.414   3.239   9.710  0.3822 -0.6331  2.6325
   17CHL1   C11 1218   0.524   3.372   9.835  0.3092  0.3470  0.1282
   17CHL1  H11A 1219   0.607   3.446   9.829  1.5738 -1.0028  0.4385
   17CHL1  H11B 1220   0.435   3.433   9.862 -1.1982 -1.8670  0.4473
   17CHL1    C9 1221   0.556   3.269   9.947 -0.1719  0.8407 -0.7188
   17CHL1    H9 1222   0.457   3.220   9.960 -0.7438  2.5080  2.1014
   17CHL1   C10 1223   0.596   3.321  10.086 -0.1066  0.4948 -0.2771
   17CHL1   C19 1224   0.705   3.428  10.081  0.5141 -0.1652 -0.1098
   17CHL1  H19A 1225   0.738   3.464  10.180  0.7815  0.5562 -0.4516
   17CHL1  H19B 1226   0.792   3.402  10.016  0.8863  2.0674 -0.5651
   17CHL1  H19C 1227   0.667   3.516  10.024  1.4136 -0.0435 -0.5387
   17CHL1    C1 1228   0.469   3.377  10.149 -0.0459 -0.1570 -0.0448
   17CHL1   H1A 1229   0.428   3.469  10.103 -2.9036 -0.9444  0.6762
   17CHL1   H1B 1230   0.382   3.308  10.139  0.1878 -0.4700  0.0705
   17CHL1    C2 1231   0.477   3.428  10.300  0.7761 -0.0855  1.2102
   17CHL1   H2A 1232   0.368   3.438  10.318  0.5687  1.3469 -0.5515
   17CHL1   H2B 1233   0.541   3.518  10.312 -1.2835  1.3895  1.6588
   17CHL1   C20 1234   0.605   3.203   9.392  0.3399 -0.2736  0.1306
   17CHL1   H20 1235   0.695   3.267   9.379  0.2041 -0.1413 -0.1849
   17CHL1   C21 1236   0.495   3.304   9.369 -0.4992  0.0597 -0.2770
   17CHL1  H21A 1237   0.520   3.396   9.425 -0.4047 -1.3777  2.1534
   17CHL1  H21B 1238   0.404   3.253   9.408 -0.2091 -0.9620 -0.8948
   17CHL1  H21C 1239   0.475   3.320   9.261  0.1670 -1.4661 -0.6468
   17CHL1   C22 1240   0.615   3.095   9.284  0.1822 -0.0916 -0.3082
   17CHL1  H22A 1241   0.712   3.047   9.310  0.9033  2.0213  1.2046
   17CHL1  H22B 1242   0.527   3.028   9.291  0.5997 -0.6768 -0.6359
   17CHL1   C23 1243   0.630   3.148   9.139  0.7030  0.2620  0.6461
   17CHL1  H23A 1244   0.530   3.187   9.109  0.1372  0.0763  2.1663
   17CHL1  H23B 1245   0.712   3.222   9.131  1.4651 -0.6582 -0.2111
   17CHL1   C24 1246   0.647   3.028   9.039 -0.2239 -0.5235 -0.1798
   17CHL1  H24A 1247   0.742   2.983   9.073  1.3279  2.9224  0.5374
   17CHL1  H24B 1248   0.557   2.965   9.052  0.6459 -1.8043 -0.2153
   17CHL1   C25 1249   0.672   3.061   8.895 -0.1994 -0.1734 -0.4311
   17CHL1   H25 1250   0.760   3.129   8.899 -0.6129  0.4555 -1.6473
   17CHL1   C26 1251   0.703   2.945   8.807 -0.2299 -1.0469 -0.1536
   17CHL1  H26A 1252   0.736   2.976   8.705  0.5366  3.9329  1.3504
   17CHL1  H26B 1253   0.788   2.894   8.857 -0.9714 -0.6115  1.6032
   17CHL1  H26C 1254   0.625   2.865   8.799 -1.4521  0.1863 -1.0261
   17CHL1   C27 1255   0.550   3.142   8.832 -0.3971  0.6684  0.6259
   17CHL1  H27A 1256   0.577   3.174   8.729 -1.5705 -1.8667 -0.5821
   17CHL1  H27B 1257   0.452   3.089   8.842 -1.5347  2.8049  1.2782
   17CHL1  H27C 1258   0.530   3.232   8.893 -1.4835  0.7648  0.1418
   18CHL1    C3 1259   1.074   1.185  10.062 -0.1300 -0.6578 -0.2629
   18CHL1    H3 1260   0.967   1.163  10.082 -0.2081  1.3422  1.9303
   18CHL1    O3 1261   1.148   1.191  10.182 -0.8025  0.5208  0.4284
   18CHL1   H3' 1262   1.094   1.243  10.242  0.8111  1.7004  0.9500
   18CHL1    C4 1263   1.135   1.092   9.957 -0.4440  0.2776  0.0890
   18CHL1   H4A 1264   1.240   1.127   9.947 -0.7402  0.5180 -4.5886
   18CHL1   H4B 1265   1.142   0.998  10.016  4.1439 -0.3121 -0.9516
   18CHL1    C5 1266   1.069   1.086   9.818 -0.1184 -0.1502  0.5239
   18CHL1    C6 1267   1.027   0.966   9.780  0.9437  0.1142  0.5487
   18CHL1    H6 1268   1.061   0.878   9.836 -0.8886 -0.4277  0.8710
   18CHL1    C7 1269   0.947   0.940   9.654  0.4987 -0.0009  0.1267
   18CHL1   H7A 1270   0.970   0.851   9.591  1.4337  1.9065 -2.4330
   18CHL1   H7B 1271   0.844   0.938   9.696 -0.4981  1.4219 -2.0662
   18CHL1    C8 1272   0.945   1.068   9.559  0.7198 -0.4714  0.4118
   18CHL1    H8 1273   1.042   1.070   9.505 -0.8647  1.4921 -2.6738
   18CHL1   C14 1274   0.830   1.061   9.454 -0.0642 -0.7198  0.5341
   18CHL1   H14 1275   0.734   1.065   9.510 -0.3212  1.7054  0.0035
   18CHL1   C15 1276   0.831   0.934   9.358 -0.2354  0.9955 -0.3040
   18CHL1  H15A 1277   0.934   0.915   9.322  0.2828 -0.3028  1.6712
   18CHL1  H15B 1278   0.802   0.837   9.404  0.0065 -0.3971 -2.9454
   18CHL1   C16 1279   0.747   0.969   9.239  0.8184 -0.3542  0.2375
   18CHL1  H16A 1280   0.788   0.941   9.140 -0.5163 -0.8148 -0.2093
   18CHL1  H16B 1281   0.652   0.911   9.238  1.0907 -0.8289 -1.2524
   18CHL1   C17 1282   0.713   1.120   9.261  1.2882 -0.7257 -0.0700
   18CHL1   H17 1283   0.624   1.138   9.324  0.5293 -1.2573 -0.9589
   18CHL1   C13 1284   0.820   1.176   9.355 -0.1430 -0.2667  0.2998
   18CHL1   C18 1285   0.952   1.191   9.267  0.7022  0.3149  0.0130
   18CHL1  H18A 1286   0.946   1.115   9.186  1.4043 -0.6009  0.7928
   18CHL1  H18B 1287   0.962   1.295   9.230  0.5193  0.7196  1.0618
   18CHL1  H18C 1288   1.046   1.164   9.320  0.7178  0.3414  0.0000
   18CHL1   C12 1289   0.800   1.301   9.447  0.0151  0.0401 -0.4627
   18CHL1  H12A 1290   0.778   1.396   9.393  0.6783  0.1550 -0.5432
   18CHL1  H12B 1291   0.720   1.281   9.521  1.1714 -2.0531  0.2837
   18CHL1   C11 1292   0.919   1.314   9.537  0.0277 -0.2525  0.2175
   18CHL1  H11A 1293   1.016   1.308   9.481  0.8152  3.4749  0.9568
   18CHL1  H11B 1294   0.917   1.409   9.594 -1.5673  0.2285 -0.5962
   18CHL1    C9 1295   0.931   1.199   9.639  0.0818 -0.0666  0.1367
   18CHL1    H9 1296   0.829   1.193   9.681  0.1512  0.5898  0.4183
   18CHL1   C10 1297   1.034   1.218   9.754  0.2011 -0.0035  1.0995
   18CHL1   C19 1298   1.166   1.283   9.695  0.4245  0.1109  0.0471
   18CHL1  H19A 1299   1.239   1.287   9.779  0.1044  1.2771  0.2829
   18CHL1  H19B 1300   1.201   1.224   9.608  0.2010  2.2338 -1.5657
   18CHL1  H19C 1301   1.153   1.385   9.653  0.5162 -1.5611 -4.6215
   18CHL1    C1 1302   0.985   1.316   9.857  0.0390  0.2690 -0.2410
   18CHL1   H1A 1303   0.984   1.419   9.816  2.2591 -0.0621 -1.2894
   18CHL1   H1B 1304   0.879   1.297   9.886  0.8921 -2.3669  1.5269
   18CHL1    C2 1305   1.068   1.322   9.989 -0.3536 -0.3423  0.5301
   18CHL1   H2A 1306   1.025   1.402  10.053  0.6873 -0.0481  0.8871
   18CHL1   H2B 1307   1.169   1.366   9.973 -1.5780  2.2324 -0.6609
   18CHL1   C20 1308   0.689   1.190   9.128  0.4079 -0.0149 -0.4235
   18CHL1   H20 1309   0.786   1.189   9.074  2.4597 -1.6223  2.9874
   18CHL1   C21 1310   0.662   1.338   9.156 -0.0120 -0.1167  0.5409
   18CHL1  H21A 1311   0.751   1.401   9.176  1.7088 -1.7890 -1.4138
   18CHL1  H21B 1312   0.580   1.343   9.231 -0.4523 -3.7123  0.4623
   18CHL1  H21C 1313   0.619   1.372   9.059 -0.6606 -1.5645  0.2986
   18CHL1   C22 1314   0.567   1.119   9.051 -0.0102 -0.1531 -0.1187
   18CHL1  H22A 1315   0.526   1.039   9.116 -0.2165 -0.4941 -0.6598
   18CHL1  H22B 1316   0.499   1.204   9.027  0.3489  0.1814  0.0425
   18CHL1   C23 1317   0.597   1.072   8.912 -0.2100 -1.0501  0.8258
   18CHL1  H23A 1318   0.657   1.147   8.857  0.1349 -0.6817  1.6779
   18CHL1  H23B 1319   0.666   0.985   8.912  1.6865  0.3293 -1.4186
   18CHL1   C24 1320   0.469   1.030   8.831 -0.9653 -0.3868 -0.4723
   18CHL1  H24A 1321   0.405   0.974   8.902  0.0974 -0.5201  0.4026
   18CHL1  H24B 1322   0.413   1.121   8.798 -0.6895 -0.1977 -0.4224
   18CHL1   C25 1323   0.496   0.962   8.702  1.0594 -0.2522 -0.1026
   18CHL1   H25 1324   0.587   1.014   8.665  0.5579  0.5814 -0.1827
   18CHL1   C26 1325   0.522   0.811   8.722 -0.7758 -0.7790  0.2476
   18CHL1  H26A 1326   0.617   0.797   8.777 -0.6016 -0.3416  0.0642
   18CHL1  H26B 1327   0.433   0.761   8.765 -1.9424 -2.6699 -3.8945
   18CHL1  H26C 1328   0.543   0.766   8.623  1.0014  3.0225 -1.3215
   18CHL1   C27 1329   0.380   0.984   8.603 -0.5983  0.5648  0.3970
   18CHL1  H27A 1330   0.367   1.093   8.588  2.0094  1.1095  1.5110
   18CHL1  H27B 1331   0.404   0.939   8.504  3.9007 -0.8988  1.8759
   18CHL1  H27C 1332   0.286   0.941   8.644  0.0862 -2.8522 -1.2265
   19CHL1    C3 1333   5.421   5.366  10.016 -0.2303 -0.0562 -0.2156
   19CHL1    H3 1334   5.319   5.326  10.037 -2.0971  3.2623 -2.0992
   19CHL1    O3 1335   5.476   5.419  10.133  0.4803  0.1871 -0.5335
   19CHL1   H3' 1336   5.535   5.489  10.105  2.8698 -1.0154  1.1254
   19CHL1    C4 1337   5.510   5.247   9.967  0.0451  0.8607 -0.2106
   19CHL1   H4A 1338   5.616   5.278   9.979  0.0386  0.6801  0.3080
   19CHL1   H4B 1339   5.487   5.168  10.041 -1.2519  0.5933 -0.8678
   19CHL1    C5 1340   5.473   5.192   9.831 -0.6009  0.5479  0.3084
   19CHL1    C6 1341   5.453   5.057   9.811  0.4323 -0.2531 -0.3969
   19CHL1    H6 1342   5.454   4.995   9.902 -2.2678 -0.9938 -0.7732
   19CHL1    C7 1343   5.429   4.995   9.678  0.0325 -0.2613 -0.0870
   19CHL1   H7A 1344   5.490   4.904   9.661  2.6696  1.3195  0.3273
   19CHL1   H7B 1345   5.324   4.959   9.678 -0.4929  1.1949 -0.1536
   19CHL1    C8 1346   5.455   5.099   9.564 -0.8366 -0.1913 -0.2660
   19CHL1    H8 1347   5.564   5.120   9.556 -0.7048 -0.1396  1.3621
   19CHL1   C14 1348   5.409   5.047   9.431  1.3863 -0.9917 -0.3689
   19CHL1   H14 1349   5.299   5.035   9.447  1.5721 -0.0836  2.0256
   19CHL1   C15 1350   5.467   4.914   9.378 -0.3822 -0.1902 -0.6514
   19CHL1  H15A 1351   5.578   4.907   9.386 -0.3561  0.4843 -0.3719
   19CHL1  H15B 1352   5.422   4.832   9.438 -1.4147 -0.1702 -1.3902
   19CHL1   C16 1353   5.431   4.916   9.231  0.2709  0.3372  0.0951
   19CHL1  H16A 1354   5.524   4.906   9.171 -0.2471  3.1226 -1.3355
   19CHL1  H16B 1355   5.357   4.836   9.210 -0.2800  0.2975  1.9971
   19CHL1   C17 1356   5.374   5.052   9.195  0.2315  0.1193  0.3254
   19CHL1   H17 1357   5.266   5.044   9.216 -0.4405 -0.2918 -2.7659
   19CHL1   C13 1358   5.427   5.138   9.313  0.3181 -0.4310  0.2788
   19CHL1   C18 1359   5.579   5.179   9.293  0.1605 -0.3601 -0.1886
   19CHL1  H18A 1360   5.629   5.085   9.262  0.4400  0.2331 -1.6126
   19CHL1  H18B 1361   5.593   5.256   9.215  0.0518 -0.3847 -0.2316
   19CHL1  H18C 1362   5.630   5.211   9.387 -1.0154  1.8248 -0.2285
   19CHL1   C12 1363   5.345   5.266   9.344 -0.1292 -1.2581 -0.2922
   19CHL1  H12A 1364   5.358   5.338   9.260 -1.1712  1.0271  1.3974
   19CHL1  H12B 1365   5.239   5.235   9.347 -0.3787 -0.4767 -0.6764
   19CHL1   C11 1366   5.400   5.343   9.474  0.2961  0.4180  0.0669
   19CHL1  H11A 1367   5.494   5.399   9.456 -0.5267  1.5529 -0.8509
   19CHL1  H11B 1368   5.325   5.421   9.498 -1.2035 -1.0326  0.2658
   19CHL1    C9 1369   5.402   5.243   9.596 -0.2608  0.3004  0.5791
   19CHL1    H9 1370   5.295   5.227   9.623 -0.7676  1.5540 -0.5210
   19CHL1   C10 1371   5.467   5.308   9.719  0.1869  0.7770 -0.3469
   19CHL1   C19 1372   5.617   5.358   9.694 -0.3381 -0.1446  0.1832
   19CHL1  H19A 1373   5.661   5.289   9.619  0.1972 -0.3567  0.6825
   19CHL1  H19B 1374   5.625   5.457   9.644  4.0696 -0.9126 -1.0931
   19CHL1  H19C 1375   5.673   5.353   9.790  0.6356 -1.3130 -0.4233
   19CHL1    C1 1376   5.370   5.421   9.772 -0.1419 -0.6916  0.4960
   19CHL1   H1A 1377   5.361   5.502   9.697 -2.3644 -0.4578  0.9526
   19CHL1   H1B 1378   5.267   5.379   9.775  0.5094 -2.3251  1.1336
   19CHL1    C2 1379   5.410   5.482   9.916  0.2077 -0.3069  0.3667
   19CHL1   H2A 1380   5.327   5.549   9.948 -0.7899 -0.9804 -0.7817
   19CHL1   H2B 1381   5.507   5.537   9.920 -0.1628  0.2969  2.3480
   19CHL1   C20 1382   5.384   5.090   9.051 -0.1846  0.8828  0.0215
   19CHL1   H20 1383   5.490   5.113   9.029 -0.7145  1.5310 -2.0483
   19CHL1   C21 1384   5.300   5.223   9.023 -0.4465  0.6300  0.4118
   19CHL1  H21A 1385   5.296   5.252   8.916 -0.2320  1.7517  0.7005
   19CHL1  H21B 1386   5.356   5.301   9.078  1.7830  0.4676 -1.4687
   19CHL1  H21C 1387   5.195   5.202   9.053  0.3717 -1.4830  2.0508
   19CHL1   C22 1388   5.331   4.979   8.951 -0.2876  0.2801 -0.5520
   19CHL1  H22A 1389   5.372   4.878   8.975 -0.4161  0.8490  2.4656
   19CHL1  H22B 1390   5.223   4.957   8.969  0.1648 -0.5103  1.4567
   19CHL1   C23 1391   5.386   4.996   8.809  0.5264  0.0188 -0.9980
   19CHL1  H23A 1392   5.373   5.102   8.779 -1.1417  0.2964  0.5042
   19CHL1  H23B 1393   5.495   4.975   8.819  0.2789 -0.9429 -0.1406
   19CHL1   C24 1394   5.334   4.897   8.703 -0.1452  0.6139 -0.6656
   19CHL1  H24A 1395   5.374   4.923   8.603  0.0679 -3.5033 -1.8426
   19CHL1  H24B 1396   5.372   4.796   8.728 -0.8147  0.3116 -0.8626
   19CHL1   C25 1397   5.179   4.901   8.690 -0.3011  0.1263 -0.1694
   19CHL1   H25 1398   5.138   4.867   8.788 -0.3588 -1.2124 -0.6333
   19CHL1   C26 1399   5.133   5.044   8.649  0.0703 -0.0108 -0.2737
   19CHL1  H26A 1400   5.027   5.033   8.620  0.7554 -1.7936 -2.4791
   19CHL1  H26B 1401   5.142   5.109   8.739  3.5518  0.0800 -0.5458
   19CHL1  H26C 1402   5.179   5.096   8.563  0.8405  1.5133  1.0002
   19CHL1   C27 1403   5.134   4.792   8.593  0.2817  0.3450 -0.0011
   19CHL1  H27A 1404   5.023   4.794   8.586  0.1994 -2.3853 -0.5917
   19CHL1  H27B 1405   5.171   4.798   8.489 -0.9415 -1.2194 -0.5676
   19CHL1  H27C 1406   5.155   4.689   8.630 -0.8867 -1.0302 -2.8512
   20CHL1    C3 1407   5.435   6.371  10.413 -0.0810  0.6080  0.1230
   20CHL1    H3 1408   5.520   6.303  10.391  0.0014  0.4284  0.9457
   20CHL1    O3 1409   5.408   6.374  10.554 -0.5750 -0.0168 -1.0610
   20CHL1   H3' 1410   5.350   6.449  10.567 -0.8245 -0.4393  0.4767
   20CHL1    C4 1411   5.453   6.512  10.363  0.0251 -0.1092 -0.1556
   20CHL1   H4A 1412   5.362   6.564  10.399 -0.1494  0.1261 -0.9172
   20CHL1   H4B 1413   5.545   6.552  10.411 -0.3064  0.4459  0.0309
   20CHL1    C5 1414   5.461   6.512  10.209  0.0088  0.3510 -0.3666
   20CHL1    C6 1415   5.568   6.568  10.157 -0.0318 -0.6419  0.0460
   20CHL1    H6 1416   5.641   6.621  10.220 -1.7474  1.2317  0.5703
   20CHL1    C7 1417   5.605   6.568  10.011 -0.3533  0.2181 -0.7349
   20CHL1   H7A 1418   5.663   6.660   9.989 -1.4975  1.0210 -0.5021
   20CHL1   H7B 1419   5.669   6.479   9.996  1.0664  0.9657  0.6031
   20CHL1    C8 1420   5.482   6.559   9.919  0.7910 -0.3373  0.2105
   20CHL1    H8 1421   5.426   6.654   9.928 -0.9369 -1.3722  1.0207
   20CHL1   C14 1422   5.503   6.534   9.768 -0.0826 -0.1033  0.2868
   20CHL1   H14 1423   5.545   6.432   9.754  0.8925  0.3702 -0.3375
   20CHL1   C15 1424   5.604   6.631   9.697 -0.0802  0.3978 -0.5500
   20CHL1  H15A 1425   5.592   6.734   9.735  1.3829  0.1646  0.6659
   20CHL1  H15B 1426   5.712   6.610   9.717 -0.0901 -0.2024 -1.0899
   20CHL1   C16 1427   5.564   6.616   9.544  0.3476  0.2416 -0.1222
   20CHL1  H16A 1428   5.539   6.714   9.499  0.1751 -0.9954 -2.8810
   20CHL1  H16B 1429   5.647   6.575   9.482  0.9111  0.0452  0.7372
   20CHL1   C17 1430   5.430   6.536   9.537  0.0882  0.6546 -0.2390
   20CHL1   H17 1431   5.456   6.431   9.511 -3.2984  0.1771 -2.3238
   20CHL1   C13 1432   5.374   6.535   9.683  0.7802  0.2700 -0.4331
   20CHL1   C18 1433   5.301   6.669   9.711  0.2396  0.4997  0.0390
   20CHL1  H18A 1434   5.224   6.689   9.633 -1.0224  1.5599  1.4891
   20CHL1  H18B 1435   5.245   6.665   9.807  0.8681  1.1898  0.4454
   20CHL1  H18C 1436   5.373   6.753   9.708  2.0414 -0.9874 -0.0972
   20CHL1   C12 1437   5.287   6.415   9.722 -0.7272 -0.5649  0.3635
   20CHL1  H12A 1438   5.186   6.433   9.679 -0.7373  1.9530  1.2734
   20CHL1  H12B 1439   5.330   6.325   9.675  1.1711  1.1990 -1.4647
   20CHL1   C11 1440   5.273   6.384   9.873 -0.2941  0.1840  0.0837
   20CHL1  H11A 1441   5.168   6.411   9.896 -0.2384  0.0370  0.5279
   20CHL1  H11B 1442   5.261   6.274   9.884 -3.0034  0.3207 -0.7754
   20CHL1    C9 1443   5.388   6.446   9.969  0.1001  0.2078  0.7702
   20CHL1    H9 1444   5.459   6.362   9.955  2.6406  2.2779  0.3596
   20CHL1   C10 1445   5.354   6.448  10.123 -0.2325  0.1206 -0.2489
   20CHL1   C19 1446   5.229   6.537  10.134  0.4998 -0.2940 -0.5769
   20CHL1  H19A 1447   5.186   6.532  10.236  3.3254  1.0797  0.7827
   20CHL1  H19B 1448   5.256   6.642  10.110 -0.3710  0.2128  0.5652
   20CHL1  H19C 1449   5.155   6.495  10.062 -0.6266  0.6887 -0.0254
   20CHL1    C1 1450   5.326   6.311  10.187 -0.7583  0.5026 -0.2755
   20CHL1   H1A 1451   5.235   6.276  10.134  1.1379  0.2982 -3.6654
   20CHL1   H1B 1452   5.398   6.235  10.151 -3.8013 -1.6423 -2.3262
   20CHL1    C2 1453   5.312   6.310  10.339 -0.4765  0.3263 -0.1715
   20CHL1   H2A 1454   5.283   6.206  10.364 -1.2744  0.0538 -2.0606
   20CHL1   H2B 1455   5.224   6.369  10.372  1.3305  2.8990  0.3869
   20CHL1   C20 1456   5.340   6.582   9.417  0.0881 -0.2200 -0.3905
   20CHL1   H20 1457   5.318   6.690   9.436  0.0285  0.1533 -2.3187
   20CHL1   C21 1458   5.207   6.505   9.411 -0.0585 -0.0999 -0.1584
   20CHL1  H21A 1459   5.142   6.563   9.480 -1.3531 -0.1439 -1.3043
   20CHL1  H21B 1460   5.217   6.403   9.454 -0.7363  1.3636  3.9502
   20CHL1  H21C 1461   5.148   6.507   9.317  0.9211  1.2520 -0.7937
   20CHL1   C22 1462   5.412   6.565   9.278 -0.1433  0.0060  0.3333
   20CHL1  H22A 1463   5.512   6.613   9.283  1.1730 -2.1229 -2.8444
   20CHL1  H22B 1464   5.435   6.457   9.274  0.3531  0.1097  0.3488
   20CHL1   C23 1465   5.327   6.621   9.162  0.8688  0.2653 -0.5236
   20CHL1  H23A 1466   5.240   6.557   9.136  1.4123 -1.7404  2.0926
   20CHL1  H23B 1467   5.281   6.717   9.194  1.9029  0.7092 -0.3275
   20CHL1   C24 1468   5.404   6.626   9.033 -0.2542  0.1470  0.3799
   20CHL1  H24A 1469   5.481   6.706   9.040 -0.0717  0.1463 -1.1779
   20CHL1  H24B 1470   5.456   6.530   9.014 -1.5421 -0.7735  1.3233
   20CHL1   C25 1471   5.314   6.662   8.907  0.4080  0.0532 -0.0579
   20CHL1   H25 1472   5.226   6.594   8.904  0.3148  0.1996 -0.8235
   20CHL1   C26 1473   5.256   6.801   8.927 -0.4823 -0.1566  0.6888
   20CHL1  H26A 1474   5.202   6.805   9.024 -0.7516  2.1192  0.4892
   20CHL1  H26B 1475   5.342   6.872   8.930  0.0587 -0.6996 -0.9363
   20CHL1  H26C 1476   5.190   6.834   8.845  1.2481  1.1300 -0.2598
   20CHL1   C27 1477   5.395   6.635   8.779  0.6456  0.6357 -0.0638
   20CHL1  H27A 1478   5.406   6.525   8.774 -2.3556  0.2997 -1.7435
   20CHL1  H27B 1479   5.322   6.653   8.697  0.9240 -1.7107 -0.9039
   20CHL1  H27C 1480   5.486   6.698   8.782  0.6003  0.6494  1.4515
   21CHL1    C3 1481   6.100   3.964  10.167  0.1920  0.0464 -0.5004
   21CHL1    H3 1482   6.206   3.998  10.172 -0.7757  3.1767  1.9238
   21CHL1    O3 1483   6.038   3.987  10.289 -0.1330  0.1971 -0.2128
   21CHL1   H3' 1484   6.099   4.034  10.345 -1.3478 -0.9524  2.2394
   21CHL1    C4 1485   6.034   4.059  10.061 -0.1290  0.7481  0.2440
   21CHL1   H4A 1486   5.924   4.048  10.074 -0.3203  2.2167  0.0211
   21CHL1   H4B 1487   6.069   4.159  10.096  1.1680  0.6678 -0.7666
   21CHL1    C5 1488   6.084   4.040   9.916  0.4919 -0.6468 -0.3729
   21CHL1    C6 1489   6.138   4.137   9.846  0.1664 -0.4461 -0.0319
   21CHL1    H6 1490   6.130   4.239   9.886 -1.5772 -0.6955  0.3347
   21CHL1    C7 1491   6.181   4.127   9.706 -0.0001  0.3781  0.5689
   21CHL1   H7A 1492   6.136   4.206   9.643 -0.7573  0.1695  0.8394
   21CHL1   H7B 1493   6.290   4.136   9.689 -0.2335  0.9092 -0.7163
   21CHL1    C8 1494   6.146   3.996   9.638  0.4833  0.1374 -0.7127
   21CHL1    H8 1495   6.037   4.007   9.621  0.5474  0.9105 -0.6574
   21CHL1   C14 1496   6.220   3.971   9.507 -0.3994 -0.3162 -0.3089
   21CHL1   H14 1497   6.329   3.971   9.525 -0.1927  1.8222 -1.2275
   21CHL1   C15 1498   6.210   4.086   9.398 -0.0920 -0.5183 -1.3225
   21CHL1  H15A 1499   6.109   4.130   9.412 -0.0596 -0.6357 -0.6527
   21CHL1  H15B 1500   6.282   4.168   9.419 -0.9335 -0.3708  1.4714
   21CHL1   C16 1501   6.236   4.014   9.265 -0.0164 -0.3119 -0.5669
   21CHL1  H16A 1502   6.158   4.024   9.187 -1.5356  0.9924  1.0283
   21CHL1  H16B 1503   6.324   4.064   9.220 -0.1662 -0.4103 -0.9696
   21CHL1   C17 1504   6.273   3.866   9.302  0.5537  0.0132  0.7081
   21CHL1   H17 1505   6.380   3.874   9.332  0.1927  1.0062  1.7508
   21CHL1   C13 1506   6.194   3.841   9.438  0.4819 -0.6138  0.0268
   21CHL1   C18 1507   6.045   3.835   9.403  0.1999  1.0639 -0.1156
   21CHL1  H18A 1508   6.008   3.908   9.328 -2.0469  0.5365  0.3752
   21CHL1  H18B 1509   6.020   3.732   9.371 -1.5206  1.6264 -0.7051
   21CHL1  H18C 1510   5.981   3.848   9.493  0.8957  0.7000  0.4418
   21CHL1   C12 1511   6.238   3.730   9.531 -0.5735  0.4413  0.8687
   21CHL1  H12A 1512   6.220   3.629   9.487 -0.8645  0.3791  1.1269
   21CHL1  H12B 1513   6.347   3.734   9.549 -0.4973 -2.1982  1.4179
   21CHL1   C11 1514   6.155   3.738   9.663  0.2159 -0.7563 -0.0084
   21CHL1  H11A 1515   6.053   3.693   9.655  1.1576 -2.6337 -2.7093
   21CHL1  H11B 1516   6.202   3.659   9.725 -0.7564 -1.8220 -0.5864
   21CHL1    C9 1517   6.171   3.881   9.733  0.1069  0.3351  0.2077
   21CHL1    H9 1518   6.281   3.889   9.751  0.8592 -1.1102 -2.9601
   21CHL1   C10 1519   6.092   3.895   9.869 -0.3789 -0.2079 -0.5615
   21CHL1   C19 1520   5.949   3.841   9.845 -0.4419 -0.5432 -0.7524
   21CHL1  H19A 1521   5.960   3.731   9.854 -0.0777 -0.3683  1.4360
   21CHL1  H19B 1522   5.876   3.863   9.926  0.6161 -2.2400  0.7419
   21CHL1  H19C 1523   5.905   3.869   9.747 -1.8619 -2.6395 -0.7839
   21CHL1    C1 1524   6.153   3.809   9.989 -0.2343 -0.5590  0.1774
   21CHL1   H1A 1525   6.141   3.703   9.958  1.6283 -0.0908 -2.4319
   21CHL1   H1B 1526   6.261   3.830  10.007 -0.9503  1.9656  1.9971
   21CHL1    C2 1527   6.089   3.823  10.123  0.1052 -0.4234 -0.0745
   21CHL1   H2A 1528   6.136   3.744  10.186  0.1352  0.7175  1.3901
   21CHL1   H2B 1529   5.982   3.794  10.127  0.3243 -1.1933  3.3770
   21CHL1   C20 1530   6.260   3.767   9.188  0.0806 -0.7520  0.5717
   21CHL1   H20 1531   6.151   3.753   9.173 -0.1173  1.5770 -0.6556
   21CHL1   C21 1532   6.333   3.635   9.221 -0.3947 -0.5487 -0.0074
   21CHL1  H21A 1533   6.294   3.594   9.317 -0.3016  1.7016  1.0623
   21CHL1  H21B 1534   6.439   3.657   9.247 -0.5435  0.4296 -0.1664
   21CHL1  H21C 1535   6.326   3.559   9.140  0.6354  1.1780 -1.8171
   21CHL1   C22 1536   6.325   3.828   9.061 -0.4436 -0.6988  0.3740
   21CHL1  H22A 1537   6.262   3.915   9.034  0.1266 -0.7663 -1.3209
   21CHL1  H22B 1538   6.428   3.863   9.082  0.0808 -1.2003 -1.1892
   21CHL1   C23 1539   6.321   3.734   8.941 -0.4381  0.5177 -0.1898
   21CHL1  H23A 1540   6.360   3.633   8.967 -0.2006  0.4203 -0.9084
   21CHL1  H23B 1541   6.214   3.714   8.920 -0.8141 -0.1949  2.1126
   21CHL1   C24 1542   6.391   3.778   8.809  0.1193  0.1894 -0.0445
   21CHL1  H24A 1543   6.341   3.859   8.752 -1.3813 -0.2963  0.5293
   21CHL1  H24B 1544   6.485   3.816   8.853 -1.4144 -0.4941  4.2879
   21CHL1   C25 1545   6.419   3.672   8.700 -0.4325  0.0688  0.4104
   21CHL1   H25 1546   6.335   3.601   8.684  0.3261 -0.6656 -0.4974
   21CHL1   C26 1547   6.443   3.736   8.559  0.2570 -0.0843  0.7584
   21CHL1  H26A 1548   6.352   3.748   8.496  1.1955 -1.4427 -0.9201
   21CHL1  H26B 1549   6.512   3.823   8.563  0.3571 -0.1058 -0.2232
   21CHL1  H26C 1550   6.509   3.665   8.507  1.3117  1.1732  0.3228
   21CHL1   C27 1551   6.541   3.588   8.731  0.3438  0.1191 -0.0339
   21CHL1  H27A 1552   6.637   3.640   8.751  0.1770 -0.0664  1.3590
   21CHL1  H27B 1553   6.523   3.553   8.835 -0.3835  0.8281  0.0893
   21CHL1  H27C 1554   6.554   3.507   8.656  0.9114  0.8427 -0.7321
   22CHL1    C3 1555   4.485   4.343  10.064  0.5613  0.3852  0.1068
   22CHL1    H3 1556   4.507   4.446  10.028 -1.2381 -0.0595 -2.5652
   22CHL1    O3 1557   4.455   4.324  10.201 -0.6399  0.1320 -0.4226
   22CHL1   H3' 1558   4.524   4.379  10.241 -1.3308  0.4006  0.4426
   22CHL1    C4 1559   4.353   4.298   9.991 -0.4717 -0.0821  0.1047
   22CHL1   H4A 1560   4.341   4.190  10.015  0.6755  0.0565  1.4928
   22CHL1   H4B 1561   4.267   4.356  10.030 -1.5809 -0.4270 -1.6866
   22CHL1    C5 1562   4.369   4.313   9.843 -0.2223 -0.5606 -0.2804
   22CHL1    C6 1563   4.277   4.382   9.771 -0.6614  0.0718  0.0498
   22CHL1    H6 1564   4.188   4.421   9.822 -0.4166  0.5025  0.1609
   22CHL1    C7 1565   4.296   4.404   9.621 -0.0895  0.3242  1.0287
   22CHL1   H7A 1566   4.201   4.397   9.564 -0.5027  2.4474  1.3558
   22CHL1   H7B 1567   4.341   4.503   9.598  0.6738 -0.5040 -1.2964
   22CHL1    C8 1568   4.387   4.299   9.555 -0.6389  1.4765 -0.2078
   22CHL1    H8 1569   4.338   4.200   9.544  0.9881  0.3462  2.0543
   22CHL1   C14 1570   4.414   4.327   9.407  0.4740 -0.3446  0.0895
   22CHL1   H14 1571   4.468   4.423   9.419 -1.2621  0.5171  1.4212
   22CHL1   C15 1572   4.300   4.360   9.308  0.3285  0.5357  0.1233
   22CHL1  H15A 1573   4.225   4.279   9.321 -0.2522  1.1211  0.4767
   22CHL1  H15B 1574   4.251   4.458   9.323  0.8366  1.4203 -3.1890
   22CHL1   C16 1575   4.366   4.339   9.175 -0.5930  0.3236 -0.2648
   22CHL1  H16A 1576   4.304   4.265   9.121 -1.5438  2.7487 -2.7250
   22CHL1  H16B 1577   4.351   4.430   9.114 -3.4030  1.8719  2.4093
   22CHL1   C17 1578   4.512   4.304   9.197  0.0164  0.5482  0.2599
   22CHL1   H17 1579   4.570   4.398   9.209  1.4128 -0.4012  1.1755
   22CHL1   C13 1580   4.513   4.232   9.331  0.2035 -0.0706 -0.1381
   22CHL1   C18 1581   4.446   4.093   9.329 -0.5309  0.0058  0.1357
   22CHL1  H18A 1582   4.353   4.090   9.268 -0.6976 -1.2219  0.4192
   22CHL1  H18B 1583   4.525   4.028   9.286  0.1591 -0.7897  2.4237
   22CHL1  H18C 1584   4.432   4.060   9.435 -0.6130  1.5115  0.6181
   22CHL1   C12 1585   4.643   4.233   9.404  0.7150  0.9066  0.6427
   22CHL1  H12A 1586   4.712   4.153   9.368 -0.1373 -0.4314  1.8775
   22CHL1  H12B 1587   4.698   4.325   9.377  0.4106  0.3519 -2.1632
   22CHL1   C11 1588   4.633   4.204   9.557 -0.0285 -0.2268 -0.0697
   22CHL1  H11A 1589   4.629   4.094   9.571 -0.3568 -0.2641 -0.4405
   22CHL1  H11B 1590   4.719   4.246   9.614 -1.3167 -1.4800  3.0343
   22CHL1    C9 1591   4.514   4.283   9.638  0.0585  0.1489  0.2254
   22CHL1    H9 1592   4.552   4.387   9.628 -2.8990  1.3170  0.0328
   22CHL1   C10 1593   4.498   4.241   9.784  0.3275 -0.4753  0.6795
   22CHL1   C19 1594   4.476   4.080   9.784 -0.4460  0.3421 -0.7704
   22CHL1  H19A 1595   4.386   4.046   9.729 -0.1721 -2.7027  0.4609
   22CHL1  H19B 1596   4.570   4.026   9.759 -0.4256 -1.7606  3.0831
   22CHL1  H19C 1597   4.457   4.048   9.889  0.1469 -0.7931 -0.9883
   22CHL1    C1 1598   4.630   4.274   9.861 -0.1583 -0.3522 -0.2053
   22CHL1   H1A 1599   4.714   4.205   9.838 -1.8504 -2.1505 -1.3124
   22CHL1   H1B 1600   4.667   4.374   9.833 -0.5015 -0.0215  0.4914
   22CHL1    C2 1601   4.610   4.257  10.015 -0.4939 -0.2549 -0.4741
   22CHL1   H2A 1602   4.690   4.301  10.079 -1.9027  0.0966  1.1331
   22CHL1   H2B 1603   4.607   4.149  10.039  1.1301 -0.2293 -0.0364
   22CHL1   C20 1604   4.570   4.233   9.074  0.1572  0.1868 -1.2167
   22CHL1   H20 1605   4.507   4.142   9.061 -1.7704  1.4399 -0.8823
   22CHL1   C21 1606   4.719   4.204   9.089 -0.2927  0.1190 -0.3790
   22CHL1  H21A 1607   4.734   4.116   9.154 -0.8697 -0.1122 -0.5528
   22CHL1  H21B 1608   4.766   4.294   9.134  0.1752  0.3560 -1.3146
   22CHL1  H21C 1609   4.765   4.186   8.989 -1.8536  0.4541 -1.1933
   22CHL1   C22 1610   4.537   4.312   8.943  0.5911 -0.4131 -0.3281
   22CHL1  H22A 1611   4.511   4.417   8.967  2.4733 -0.0544  0.2238
   22CHL1  H22B 1612   4.620   4.304   8.870 -0.2419  1.3739 -1.5605
   22CHL1   C23 1613   4.418   4.249   8.864 -0.3493  0.1379 -0.0435
   22CHL1  H23A 1614   4.459   4.177   8.790  0.6033  1.9940 -1.3806
   22CHL1  H23B 1615   4.357   4.198   8.942  0.5697 -1.1691 -0.1314
   22CHL1   C24 1616   4.339   4.350   8.782 -0.2741  0.2551  0.1499
   22CHL1  H24A 1617   4.294   4.428   8.846  1.9373  2.0403 -0.3770
   22CHL1  H24B 1618   4.415   4.407   8.724  1.9623 -2.7140 -0.0862
   22CHL1   C25 1619   4.229   4.292   8.694  0.2873 -0.1653  0.2744
   22CHL1   H25 1620   4.174   4.218   8.756  0.7212 -0.9286 -0.2346
   22CHL1   C26 1621   4.122   4.396   8.654 -0.6085 -0.2070  0.3685
   22CHL1  H26A 1622   4.073   4.438   8.745 -0.6368 -0.7541  0.6109
   22CHL1  H26B 1623   4.166   4.475   8.590  1.0950 -2.2515 -1.0946
   22CHL1  H26C 1624   4.043   4.348   8.593 -0.6494  0.1549  0.1372
   22CHL1   C27 1625   4.285   4.221   8.575 -0.3102 -0.1870 -0.4545
   22CHL1  H27A 1626   4.384   4.172   8.589  0.8259  2.2768  0.9362
   22CHL1  H27B 1627   4.225   4.139   8.532  0.6432 -0.4955 -1.2169
   22CHL1  H27C 1628   4.293   4.299   8.496  0.4985  2.1763  1.7960
   23CHL1    C3 1629   1.470   4.550  10.230  0.2953  0.5631  0.1195
   23CHL1    H3 1630   1.542   4.467  10.216 -0.3908 -0.6541  3.0938
   23CHL1    O3 1631   1.472   4.581  10.368 -0.5015 -0.2484 -0.2501
   23CHL1   H3' 1632   1.380   4.604  10.382 -0.5213  2.6773 -3.6600
   23CHL1    C4 1633   1.514   4.680  10.166  0.2049 -0.5117 -0.1249
   23CHL1   H4A 1634   1.455   4.768  10.199 -0.1275 -0.5014 -0.7423
   23CHL1   H4B 1635   1.610   4.713  10.211  0.7320 -1.1950 -0.7094
   23CHL1    C5 1636   1.515   4.681  10.015 -0.0061  0.1581  0.0170
   23CHL1    C6 1637   1.626   4.712   9.942 -0.2236 -0.2562 -0.8491
   23CHL1    H6 1638   1.714   4.753   9.994 -2.1034  2.5053  0.3368
   23CHL1    C7 1639   1.635   4.720   9.797 -0.5270 -0.1911 -0.0236
   23CHL1   H7A 1640   1.688   4.813   9.767  2.5468 -1.2301  1.7263
   23CHL1   H7B 1641   1.691   4.635   9.753  2.0339  0.6996  1.2985
   23CHL1    C8 1642   1.492   4.713   9.729  0.9620  0.2351 -0.4747
   23CHL1    H8 1643   1.450   4.816   9.735  0.7043  0.0680  0.9025
   23CHL1   C14 1644   1.506   4.659   9.582  0.3111  0.2237  0.2040
   23CHL1   H14 1645   1.536   4.555   9.608 -1.3117  0.3480  3.0045
   23CHL1   C15 1646   1.601   4.722   9.483 -0.3214 -1.1420  0.0539
   23CHL1  H15A 1647   1.573   4.830   9.486  3.0457 -0.1547  0.2636
   23CHL1  H15B 1648   1.708   4.716   9.513 -0.0027  0.9895 -0.4781
   23CHL1   C16 1649   1.562   4.675   9.346  0.0373  0.1711  0.7580
   23CHL1  H16A 1650   1.564   4.761   9.276 -0.1365  1.0801  1.8444
   23CHL1  H16B 1651   1.626   4.592   9.308 -0.4023 -0.2043  0.8270
   23CHL1   C17 1652   1.424   4.596   9.370  0.3383 -0.0853 -0.4373
   23CHL1   H17 1653   1.445   4.488   9.386 -0.2554 -0.1626 -0.1646
   23CHL1   C13 1654   1.370   4.641   9.512  0.6067 -0.2723 -0.4050
   23CHL1   C18 1655   1.299   4.776   9.493 -0.0983  0.4236  0.1296
   23CHL1  H18A 1656   1.194   4.773   9.458 -0.8658  0.2629  2.3101
   23CHL1  H18B 1657   1.294   4.830   9.589  0.9096  0.3504  0.2353
   23CHL1  H18C 1658   1.365   4.839   9.428 -0.2772  1.2504  0.7325
   23CHL1   C12 1659   1.276   4.549   9.590 -0.0473  0.0475 -0.1032
   23CHL1  H12A 1660   1.175   4.545   9.544 -0.3964  0.2649  0.6283
   23CHL1  H12B 1661   1.329   4.452   9.599 -2.0673 -1.3917 -2.4144
   23CHL1   C11 1662   1.256   4.601   9.728 -0.4752  0.0493  0.3434
   23CHL1  H11A 1663   1.205   4.700   9.726 -2.1702 -0.7763  0.3107
   23CHL1  H11B 1664   1.184   4.531   9.774  1.5556 -3.6699 -1.6712
   23CHL1    C9 1665   1.396   4.614   9.804 -0.2467 -0.4979 -0.7518
   23CHL1    H9 1666   1.434   4.511   9.784 -0.5589 -0.5856 -0.9084
   23CHL1   C10 1667   1.379   4.644   9.957 -0.9577 -0.2678  0.5274
   23CHL1   C19 1668   1.288   4.770   9.970 -0.4162 -0.2064 -0.5770
   23CHL1  H19A 1669   1.344   4.859   9.936  0.0349  1.0413  3.0187
   23CHL1  H19B 1670   1.189   4.763   9.919 -1.3584 -2.2973  1.3676
   23CHL1  H19C 1671   1.260   4.775  10.077 -1.3560  1.4650 -0.8644
   23CHL1    C1 1672   1.325   4.523  10.024 -0.3424 -0.0623  0.0216
   23CHL1   H1A 1673   1.216   4.522   9.999 -0.8567 -1.0477  2.0629
   23CHL1   H1B 1674   1.379   4.436   9.980  1.9173  1.4963 -0.4302
   23CHL1    C2 1675   1.332   4.517  10.181  0.0265 -0.0522 -0.3531
   23CHL1   H2A 1676   1.292   4.425  10.229  1.3484  0.6640  2.3321
   23CHL1   H2B 1677   1.259   4.594  10.213  0.1227 -0.0339 -0.1770
   23CHL1   C20 1678   1.327   4.603   9.250  0.0239  0.7299  0.5542
   23CHL1   H20 1679   1.272   4.699   9.239  0.0782  0.7196  0.1728
   23CHL1   C21 1680   1.216   4.501   9.270  0.6138  1.0290  0.6216
   23CHL1  H21A 1681   1.153   4.484   9.179  1.9114  1.9666 -0.4992
   23CHL1  H21B 1682   1.158   4.533   9.359 -0.9828 -3.7961  1.6288
   23CHL1  H21C 1683   1.259   4.404   9.305 -1.8439 -0.5693 -0.4935
   23CHL1   C22 1684   1.400   4.581   9.115  0.7066 -0.1305  0.1191
   23CHL1  H22A 1685   1.468   4.666   9.094  1.0097 -0.6969 -1.3030
   23CHL1  H22B 1686   1.458   4.487   9.121  1.6264  0.4040 -0.1497
   23CHL1   C23 1687   1.319   4.574   8.990  0.2169 -0.1468  0.0781
   23CHL1  H23A 1688   1.260   4.481   8.991 -0.5107  0.2882 -0.8847
   23CHL1  H23B 1689   1.239   4.652   8.994 -0.6734 -1.0622  0.3608
   23CHL1   C24 1690   1.406   4.579   8.859 -0.2374  0.3094 -0.1390
   23CHL1  H24A 1691   1.477   4.660   8.886  1.2356 -1.0474  0.2273
   23CHL1  H24B 1692   1.471   4.490   8.843  0.6736  1.4176 -3.4771
   23CHL1   C25 1693   1.330   4.606   8.726 -0.2878 -0.8630  0.3061
   23CHL1   H25 1694   1.399   4.606   8.638 -1.5137  3.5567 -0.9160
   23CHL1   C26 1695   1.217   4.514   8.692 -0.6952 -0.1807  0.0436
   23CHL1  H26A 1696   1.155   4.501   8.783  2.1470  2.1071  2.5009
   23CHL1  H26B 1697   1.149   4.561   8.617 -3.1929 -1.0171  1.6468
   23CHL1  H26C 1698   1.255   4.416   8.658 -2.3860 -1.2030  0.9462
   23CHL1   C27 1699   1.291   4.756   8.720 -0.2569 -0.6587 -0.4990
   23CHL1  H27A 1700   1.243   4.776   8.622 -3.8681 -0.0935  1.2378
   23CHL1  H27B 1701   1.209   4.776   8.792 -0.9485 -0.6790 -1.2658
   23CHL1  H27C 1702   1.380   4.817   8.746 -1.8897  1.9598 -0.6839
   24CHL1    C3 1703   3.827   4.654  10.032  0.2713 -0.3449 -0.3272
   24CHL1    H3 1704   3.723   4.619  10.018  0.1715 -0.4705  0.6496
   24CHL1    O3 1705   3.850   4.650  10.171 -0.0093  0.1582 -1.0974
   24CHL1   H3' 1706   3.946   4.648  10.183 -0.1738  0.2207  0.3544
   24CHL1    C4 1707   3.917   4.557   9.957  0.1473  0.3550 -0.3271
   24CHL1   H4A 1708   4.023   4.563   9.991 -0.1003  1.4920  0.3017
   24CHL1   H4B 1709   3.898   4.450   9.976 -1.1273 -0.0127 -3.1676
   24CHL1    C5 1710   3.893   4.573   9.808 -0.5324 -0.6174 -0.4006
   24CHL1    C6 1711   3.851   4.464   9.731  0.6721 -0.4374 -0.4778
   24CHL1    H6 1712   3.838   4.369   9.784  3.2035  0.1798  1.4436
   24CHL1    C7 1713   3.849   4.464   9.582  0.3180 -0.4309 -0.4495
   24CHL1   H7A 1714   3.910   4.377   9.552  3.3270  1.5302 -0.4346
   24CHL1   H7B 1715   3.742   4.456   9.551 -1.0444 -0.5293  3.7112
   24CHL1    C8 1716   3.919   4.589   9.525 -0.3335  0.2313 -0.3869
   24CHL1    H8 1717   4.028   4.576   9.543 -0.2319 -0.3562 -1.3853
   24CHL1   C14 1718   3.879   4.607   9.380 -0.3215 -0.5006  0.0070
   24CHL1   H14 1719   3.769   4.627   9.377 -0.2933 -0.4301 -0.8023
   24CHL1   C15 1720   3.907   4.484   9.284 -0.2239 -0.0319 -0.7766
   24CHL1  H15A 1721   4.004   4.429   9.290 -1.6547 -2.5507  1.3997
   24CHL1  H15B 1722   3.833   4.409   9.318 -0.6025  1.5891  2.2618
   24CHL1   C16 1723   3.883   4.549   9.144 -0.0833  0.2603  0.3989
   24CHL1  H16A 1724   3.967   4.512   9.080 -1.2367 -1.1067 -0.3853
   24CHL1  H16B 1725   3.792   4.506   9.097  1.6993 -0.5077 -2.6267
   24CHL1   C17 1726   3.883   4.705   9.167 -0.3271 -0.5038 -0.4099
   24CHL1   H17 1727   3.778   4.736   9.181  0.3170  1.6942 -0.0740
   24CHL1   C13 1728   3.940   4.728   9.310  0.1238  0.3002  0.2622
   24CHL1   C18 1729   4.100   4.713   9.303 -0.0524 -0.2800  0.0322
   24CHL1  H18A 1730   4.139   4.710   9.407  0.9706  0.0701 -0.3249
   24CHL1  H18B 1731   4.133   4.618   9.256  0.7914 -0.3261  0.6788
   24CHL1  H18C 1732   4.146   4.806   9.262 -0.4811  0.1462  0.5010
   24CHL1   C12 1733   3.897   4.856   9.389  0.5571 -0.1053 -0.1220
   24CHL1  H12A 1734   3.941   4.952   9.353 -0.0785 -0.6158 -2.4195
   24CHL1  H12B 1735   3.787   4.873   9.382  0.1123 -1.9648  1.5920
   24CHL1   C11 1736   3.932   4.846   9.535  0.5800 -0.6716 -1.2470
   24CHL1  H11A 1737   4.043   4.856   9.542  0.8506 -3.2001 -0.8690
   24CHL1  H11B 1738   3.901   4.939   9.587  1.4617 -0.6116 -0.7970
   24CHL1    C9 1739   3.878   4.719   9.608  0.2824  0.6733  0.5326
   24CHL1    H9 1740   3.767   4.721   9.603  0.1975 -1.5392  0.4881
   24CHL1   C10 1741   3.918   4.713   9.753  0.8478  0.4793 -0.0760
   24CHL1   C19 1742   4.068   4.739   9.772  1.0065 -0.3997 -0.1002
   24CHL1  H19A 1743   4.100   4.711   9.875 -2.4950  0.4365  1.3652
   24CHL1  H19B 1744   4.130   4.684   9.698  1.3643  1.6469 -1.4030
   24CHL1  H19C 1745   4.087   4.847   9.755 -0.3075 -0.2182 -0.5293
   24CHL1    C1 1746   3.832   4.812   9.839 -0.2346 -1.1636  0.5858
   24CHL1   H1A 1747   3.865   4.917   9.821 -3.2622 -0.2153  0.0475
   24CHL1   H1B 1748   3.728   4.802   9.802  0.7998 -0.4534 -2.8985
   24CHL1    C2 1749   3.846   4.797   9.992 -0.1999 -0.6559  0.3677
   24CHL1   H2A 1750   3.786   4.870  10.049  1.2083  0.0487  1.0114
   24CHL1   H2B 1751   3.950   4.828  10.018 -0.9643  1.5196  1.0275
   24CHL1   C20 1752   3.942   4.787   9.047 -0.2310  0.0122 -0.1873
   24CHL1   H20 1753   4.050   4.764   9.036  0.0042  0.1763  1.5159
   24CHL1   C21 1754   3.957   4.940   9.082 -0.5968  0.1065 -0.5685
   24CHL1  H21A 1755   3.861   4.965   9.132 -1.0304 -2.4084 -0.0592
   24CHL1  H21B 1756   3.972   5.008   8.995 -0.7824  0.7894 -0.0796
   24CHL1  H21C 1757   4.038   4.954   9.156 -0.8807  0.7080 -0.3585
   24CHL1   C22 1758   3.864   4.773   8.912 -0.0437 -0.2686 -0.6499
   24CHL1  H22A 1759   3.833   4.668   8.891 -1.4280 -0.1360  0.5888
   24CHL1  H22B 1760   3.771   4.831   8.930 -0.7028 -2.0874  2.6208
   24CHL1   C23 1761   3.942   4.828   8.786  0.3382 -0.4974 -0.3617
   24CHL1  H23A 1762   3.988   4.925   8.812 -2.0944  0.2751  1.5155
   24CHL1  H23B 1763   4.030   4.766   8.760 -1.0040 -1.6664 -2.4025
   24CHL1   C24 1764   3.844   4.848   8.669  0.0717 -0.0720  0.3391
   24CHL1  H24A 1765   3.792   4.751   8.656 -1.5483  0.6538  1.0227
   24CHL1  H24B 1766   3.767   4.922   8.700  1.0581  1.4920 -0.7823
   24CHL1   C25 1767   3.918   4.898   8.539 -0.3234 -0.2796 -0.0136
   24CHL1   H25 1768   3.835   4.941   8.479 -0.5215  0.3448  0.6940
   24CHL1   C26 1769   4.001   5.022   8.580  0.5386  0.6295 -0.1063
   24CHL1  H26A 1770   3.967   5.082   8.667 -0.7612  0.8127 -0.7138
   24CHL1  H26B 1771   4.102   4.987   8.610 -0.3842 -1.6052  0.6020
   24CHL1  H26C 1772   4.006   5.088   8.491  0.9459 -0.2208 -0.7238
   24CHL1   C27 1773   3.977   4.780   8.459  0.1206 -0.7391 -0.2916
   24CHL1  H27A 1774   3.908   4.693   8.460 -0.0091 -0.6376  0.7776
   24CHL1  H27B 1775   3.996   4.817   8.356 -1.3437  0.9109 -0.0220
   24CHL1  H27C 1776   4.073   4.754   8.509  0.6692  1.0483 -0.3467
   25CHL1    C3 1777   4.157   0.655  10.320  0.7752  0.4607 -0.3650
   25CHL1    H3 1778   4.247   0.688  10.264  0.2554  0.0861 -1.4404
   25CHL1    O3 1779   4.171   0.691  10.456 -0.0999  0.1336 -0.0179
   25CHL1   H3' 1780   4.084   0.674  10.493 -0.7702  0.5406 -1.3324
   25CHL1    C4 1781   4.029   0.726  10.281 -0.4047 -0.0902  0.8292
   25CHL1   H4A 1782   3.946   0.692  10.346 -0.2336  0.0442  1.1196
   25CHL1   H4B 1783   4.054   0.833  10.293 -0.0503 -0.3420  2.7252
   25CHL1    C5 1784   4.001   0.697  10.131  0.3547  0.4498 -0.3669
   25CHL1    C6 1785   4.005   0.802  10.050 -0.0805  0.5176  0.3587
   25CHL1    H6 1786   4.004   0.907  10.084 -1.6257  0.9092 -0.7651
   25CHL1    C7 1787   3.994   0.791   9.897 -0.8912 -0.2868  0.1071
   25CHL1   H7A 1788   3.924   0.865   9.854 -0.6482  0.9467  1.7278
   25CHL1   H7B 1789   4.088   0.818   9.844 -1.0296 -1.3862 -0.7419
   25CHL1    C8 1790   3.948   0.655   9.853  0.2967 -0.0889  0.0897
   25CHL1    H8 1791   3.840   0.651   9.877  0.0450  1.2305 -0.7705
   25CHL1   C14 1792   3.966   0.641   9.704  0.3055  0.5397 -0.1324
   25CHL1   H14 1793   4.072   0.650   9.672 -0.1391 -0.7189 -2.1845
   25CHL1   C15 1794   3.911   0.752   9.609 -0.5284 -0.8241  0.2288
   25CHL1  H15A 1795   3.815   0.789   9.653 -0.4748 -0.6025  0.1606
   25CHL1  H15B 1796   3.986   0.833   9.592 -1.8341  0.6738  1.2474
   25CHL1   C16 1797   3.906   0.680   9.467  0.3188  0.7113  0.2180
   25CHL1  H16A 1798   3.807   0.701   9.420 -1.2821 -1.0794  2.5098
   25CHL1  H16B 1799   3.991   0.717   9.407  0.7949 -0.8377 -0.1242
   25CHL1   C17 1800   3.934   0.529   9.491  0.7389 -0.3545  0.3276
   25CHL1   H17 1801   4.044   0.519   9.481  0.6600 -0.2778 -0.8135
   25CHL1   C13 1802   3.913   0.508   9.642  0.9734  0.1153  0.1174
   25CHL1   C18 1803   3.764   0.498   9.673 -0.8350 -0.3698 -0.2129
   25CHL1  H18A 1804   3.722   0.402   9.636  1.1500 -1.0797 -0.7662
   25CHL1  H18B 1805   3.749   0.499   9.783 -0.4102  1.1330 -0.1400
   25CHL1  H18C 1806   3.705   0.579   9.624 -0.3846 -1.2668 -2.3519
   25CHL1   C12 1807   3.981   0.394   9.711  0.1217  0.1262  0.5630
   25CHL1  H12A 1808   3.931   0.301   9.676  0.5893  0.4259 -0.9833
   25CHL1  H12B 1809   4.085   0.397   9.671 -0.5707  0.7657 -1.2713
   25CHL1   C11 1810   3.984   0.409   9.865  0.1877 -0.5527 -0.0083
   25CHL1  H11A 1811   3.886   0.366   9.896 -1.3928  2.5858 -0.2192
   25CHL1  H11B 1812   4.058   0.334   9.899  0.2610 -0.1964  0.6370
   25CHL1    C9 1813   4.021   0.547   9.930  0.1555  1.1366  0.1084
   25CHL1    H9 1814   4.128   0.568   9.911  0.4079  0.5147  0.8061
   25CHL1   C10 1815   3.996   0.551  10.090  0.4492 -0.4565  0.5976
   25CHL1   C19 1816   3.853   0.503  10.127 -0.7118  0.1742 -0.0199
   25CHL1  H19A 1817   3.772   0.558  10.075 -0.9631  2.0806  2.2459
   25CHL1  H19B 1818   3.837   0.394  10.113 -0.1193 -0.1204  1.4671
   25CHL1  H19C 1819   3.842   0.522  10.236  0.8030 -0.5809  0.2966
   25CHL1    C1 1820   4.110   0.473  10.158  0.7083  0.3281 -0.0518
   25CHL1   H1A 1821   4.084   0.366  10.144 -1.0166  0.8650 -1.1702
   25CHL1   H1B 1822   4.199   0.482  10.093  2.2030 -1.2622  1.6448
   25CHL1    C2 1823   4.140   0.502  10.302  0.0786  0.4769 -0.2993
   25CHL1   H2A 1824   4.223   0.437  10.337 -1.3023 -1.9256 -1.2358
   25CHL1   H2B 1825   4.053   0.470  10.363  0.2718  1.2878  0.4216
   25CHL1   C20 1826   3.863   0.442   9.387  0.2667  0.2022  0.1893
   25CHL1   H20 1827   3.762   0.420   9.427  0.0380  1.8548  0.5898
   25CHL1   C21 1828   3.936   0.307   9.389 -0.4787 -0.1276  0.2624
   25CHL1  H21A 1829   3.912   0.249   9.297  1.5542  2.9158 -2.3711
   25CHL1  H21B 1830   3.916   0.253   9.485 -0.4326  0.3704  0.5573
   25CHL1  H21C 1831   4.046   0.316   9.390 -0.4224 -0.7537  0.2187
   25CHL1   C22 1832   3.849   0.505   9.242 -0.9115  0.7251  0.7525
   25CHL1  H22A 1833   3.801   0.433   9.173  3.7717 -1.6625 -0.4804
   25CHL1  H22B 1834   3.797   0.602   9.251  3.5799  3.3284  1.8257
   25CHL1   C23 1835   3.984   0.539   9.169  0.2495  0.0872  0.3036
   25CHL1  H23A 1836   4.036   0.611   9.236  1.9695  1.2805 -2.1773
   25CHL1  H23B 1837   4.063   0.462   9.158  0.4803  0.5035 -1.0942
   25CHL1   C24 1838   3.951   0.608   9.033 -0.2386  0.0572  0.1162
   25CHL1  H24A 1839   3.916   0.527   8.964 -0.0631  0.0430  0.0456
   25CHL1  H24B 1840   3.869   0.682   9.045 -0.2260 -0.3027  3.0206
   25CHL1   C25 1841   4.069   0.681   8.969 -0.2052  0.0398  0.3845
   25CHL1   H25 1842   4.142   0.599   8.948  0.0637  0.0762  1.1575
   25CHL1   C26 1843   4.026   0.752   8.843  0.0090  0.1233 -0.2283
   25CHL1  H26A 1844   3.959   0.837   8.872 -0.0908 -0.7796  2.4879
   25CHL1  H26B 1845   4.109   0.791   8.780  0.1810  0.7620  0.3773
   25CHL1  H26C 1846   3.977   0.677   8.778  0.5011  1.5976 -2.4137
   25CHL1   C27 1847   4.136   0.792   9.047  0.4576 -0.1296 -0.2652
   25CHL1  H27A 1848   4.228   0.825   8.996  0.0752  0.4166 -0.6184
   25CHL1  H27B 1849   4.074   0.884   9.055  0.2961 -0.2231 -0.4411
   25CHL1  H27C 1850   4.148   0.750   9.149  1.9402 -0.9257 -0.7424
   26CHL1    C3 1851   0.414   4.003  10.200  0.3226  0.6207  0.1254
   26CHL1    H3 1852   0.325   3.954  10.156  0.8105  1.8423 -2.3984
   26CHL1    O3 1853   0.417   4.021  10.338  0.1446 -0.2904  0.3744
   26CHL1   H3' 1854   0.511   4.030  10.355  0.6228 -1.0803 -1.5687
   26CHL1    C4 1855   0.531   3.910  10.165  1.0087 -0.2262 -0.1372
   26CHL1   H4A 1856   0.629   3.951  10.199  0.0941  2.6302 -0.6446
   26CHL1   H4B 1857   0.521   3.813  10.218  0.7170 -0.8387 -1.2830
   26CHL1    C5 1858   0.547   3.894  10.010 -0.3326 -0.1099 -0.3028
   26CHL1    C6 1859   0.541   3.776   9.954  0.2330 -0.4532  0.5809
   26CHL1    H6 1860   0.530   3.687  10.017 -1.1390 -1.4210 -0.9198
   26CHL1    C7 1861   0.555   3.752   9.806 -0.1563  0.2550 -0.4317
   26CHL1   H7A 1862   0.637   3.681   9.784 -1.4290 -1.2284 -0.6047
   26CHL1   H7B 1863   0.465   3.715   9.752  0.1700  2.8991 -3.0483
   26CHL1    C8 1864   0.600   3.883   9.728  0.2535  0.2566 -0.2674
   26CHL1    H8 1865   0.708   3.902   9.743  0.2311 -0.8347  1.6258
   26CHL1   C14 1866   0.568   3.864   9.585  0.6465  1.0318 -0.1374
   26CHL1   H14 1867   0.457   3.852   9.584  0.7387  0.1997 -0.2712
   26CHL1   C15 1868   0.611   3.732   9.516 -0.4253 -0.3118 -0.4173
   26CHL1  H15A 1869   0.710   3.705   9.558  0.4605  2.2132 -0.7035
   26CHL1  H15B 1870   0.533   3.654   9.530  0.1767 -0.8635 -0.1098
   26CHL1   C16 1871   0.620   3.770   9.370  0.2989  0.5134 -0.9513
   26CHL1  H16A 1872   0.725   3.739   9.350  0.3469  0.3530 -0.4736
   26CHL1  H16B 1873   0.553   3.706   9.310  1.5729 -0.9106 -0.9216
   26CHL1   C17 1874   0.580   3.918   9.360 -0.1209 -0.1024  0.2359
   26CHL1   H17 1875   0.469   3.922   9.363 -0.0999 -0.3137  1.4276
   26CHL1   C13 1876   0.609   3.978   9.498  0.5957 -0.1633  0.2594
   26CHL1   C18 1877   0.757   4.022   9.512 -0.2265 -0.2582  0.5648
   26CHL1  H18A 1878   0.777   4.052   9.617  1.6093  0.1187  0.1336
   26CHL1  H18B 1879   0.823   3.936   9.486  0.0962  0.2401 -0.2828
   26CHL1  H18C 1880   0.795   4.102   9.446  2.5275 -0.1013  2.2066
   26CHL1   C12 1881   0.519   4.094   9.537 -0.2250 -0.3490  0.1272
   26CHL1  H12A 1882   0.545   4.179   9.471  2.2963  0.0730  1.5430
   26CHL1  H12B 1883   0.413   4.059   9.531 -0.7716  1.3250 -0.7115
   26CHL1   C11 1884   0.532   4.133   9.685  0.0777  0.5122  0.5729
   26CHL1  H11A 1885   0.628   4.178   9.716 -0.7429  1.0023  2.5473
   26CHL1  H11B 1886   0.444   4.198   9.706 -1.4697 -0.5562 -2.0284
   26CHL1    C9 1887   0.518   4.005   9.775 -0.0545 -0.4181 -0.7624
   26CHL1    H9 1888   0.414   3.967   9.766  1.1920 -4.5549  0.1138
   26CHL1   C10 1889   0.546   4.029   9.932  0.8096 -0.2815  0.2694
   26CHL1   C19 1890   0.688   4.097   9.952 -0.4339 -0.0684  0.1949
   26CHL1  H19A 1891   0.763   4.030   9.904  0.8885  2.3499 -1.3634
   26CHL1  H19B 1892   0.696   4.198   9.905 -1.9830 -0.1572 -0.2997
   26CHL1  H19C 1893   0.717   4.102  10.059 -0.3173 -1.9972  0.2774
   26CHL1    C1 1894   0.444   4.137   9.983 -0.4784 -0.6163  1.1226
   26CHL1   H1A 1895   0.476   4.237   9.945 -0.0103 -0.9388  0.6512
   26CHL1   H1B 1896   0.341   4.111   9.953 -0.5163 -0.9402  1.5184
   26CHL1    C2 1897   0.433   4.138  10.133 -0.0741 -0.1200 -0.1773
   26CHL1   H2A 1898   0.339   4.193  10.154  0.5857  1.2218 -0.6321
   26CHL1   H2B 1899   0.524   4.179  10.182  0.1652  1.4811 -1.8545
   26CHL1   C20 1900   0.624   3.988   9.231  0.1753 -0.3091  1.0897
   26CHL1   H20 1901   0.633   4.098   9.242  0.6621  0.1976 -2.7842
   26CHL1   C21 1902   0.519   3.966   9.122  1.0008 -0.6114 -0.4913
   26CHL1  H21A 1903   0.508   3.856   9.107 -1.3199 -0.2071 -2.3576
   26CHL1  H21B 1904   0.539   4.002   9.019  0.2972  0.5738 -0.2286
   26CHL1  H21C 1905   0.414   3.987   9.151  0.2563 -1.3483 -2.5208
   26CHL1   C22 1906   0.759   3.939   9.179 -0.6839 -0.0019  0.0877
   26CHL1  H22A 1907   0.841   3.972   9.247 -2.1623  1.1449  1.3754
   26CHL1  H22B 1908   0.772   3.833   9.150 -0.0274  0.4606 -1.4465
   26CHL1   C23 1909   0.798   4.011   9.046 -0.2893 -0.0081 -0.6269
   26CHL1  H23A 1910   0.743   3.967   8.960 -0.4202 -2.2280  0.5029
   26CHL1  H23B 1911   0.782   4.118   9.070  0.4083 -0.3181  1.4319
   26CHL1   C24 1912   0.950   3.991   9.019 -0.4034  0.2062  0.7790
   26CHL1  H24A 1913   1.004   4.020   9.111 -1.0124  0.5325  1.0454
   26CHL1  H24B 1914   0.967   3.884   8.994  1.8045  0.6687  0.1452
   26CHL1   C25 1915   1.001   4.072   8.895 -0.1950 -0.4180 -0.0389
   26CHL1   H25 1916   0.984   4.179   8.921  0.7799 -0.2921  0.1405
   26CHL1   C26 1917   1.152   4.057   8.867  0.3705  0.6508 -0.4175
   26CHL1  H26A 1918   1.188   4.125   8.788  2.2693  2.3543  1.7513
   26CHL1  H26B 1919   1.213   4.079   8.958  0.5254  1.5752 -0.7356
   26CHL1  H26C 1920   1.165   3.949   8.845 -1.1156 -0.0564  1.7580
   26CHL1   C27 1921   0.913   4.039   8.771  0.1291 -0.3751  0.3603
   26CHL1  H27A 1922   0.884   3.932   8.770  1.4333 -0.7470  0.8492
   26CHL1  H27B 1923   0.822   4.103   8.762 -0.8687 -1.7616  0.3189
   26CHL1  H27C 1924   0.973   4.055   8.679 -0.0595  1.5641  0.5279
   27CHL1    C3 1925   4.965   1.126  10.462 -0.4453  0.1982  0.4360
   27CHL1    H3 1926   4.855   1.114  10.471 -0.3422 -1.0210  0.1983
   27CHL1    O3 1927   5.027   1.154  10.581 -0.3240 -0.0408 -0.2122
   27CHL1   H3' 1928   5.043   1.074  10.631 -3.5532  0.2356  1.5300
   27CHL1    C4 1929   5.034   1.003  10.397 -0.2663 -0.1730  0.1493
   27CHL1   H4A 1930   5.144   1.017  10.388 -0.1609  0.0814  1.6783
   27CHL1   H4B 1931   5.011   0.919  10.465 -1.0713 -0.1331 -0.0659
   27CHL1    C5 1932   4.977   0.977  10.253 -0.0869  0.0219  0.2068
   27CHL1    C6 1933   4.907   0.866  10.218 -0.0154 -0.6833 -0.1929
   27CHL1    H6 1934   4.890   0.794  10.300 -1.5497  0.8003  0.8574
   27CHL1    C7 1935   4.846   0.849  10.081  0.2816 -0.2874  0.2739
   27CHL1   H7A 1936   4.860   0.748  10.036 -1.5350 -1.0762  1.3705
   27CHL1   H7B 1937   4.736   0.861  10.084 -0.0234 -2.3714 -0.6517
   27CHL1    C8 1938   4.903   0.947   9.975  0.6809  0.0055 -0.3857
   27CHL1    H8 1939   5.008   0.924   9.948  0.3703  0.3814 -2.0298
   27CHL1   C14 1940   4.830   0.952   9.841 -0.0700  0.0360  0.3986
   27CHL1   H14 1941   4.724   0.982   9.856 -0.4902 -1.3954  0.4329
   27CHL1   C15 1942   4.823   0.817   9.769 -0.5086 -0.7415 -0.4143
   27CHL1  H15A 1943   4.928   0.781   9.767 -0.5096 -0.7498 -2.2982
   27CHL1  H15B 1944   4.757   0.744   9.821  1.1014 -1.0360  1.3318
   27CHL1   C16 1945   4.767   0.853   9.626 -0.1710  0.6614  0.0677
   27CHL1  H16A 1946   4.825   0.808   9.543  0.4248  0.2204  0.7125
   27CHL1  H16B 1947   4.658   0.835   9.627 -0.0004 -0.4314  1.0180
   27CHL1   C17 1948   4.783   1.009   9.622  0.1910 -0.1954  0.0389
   27CHL1   H17 1949   4.683   1.056   9.636  1.0623  2.5188 -1.9007
   27CHL1   C13 1950   4.887   1.043   9.733 -0.2916  0.2486 -0.7587
   27CHL1   C18 1951   5.032   1.014   9.690 -0.1179 -0.1470 -0.6234
   27CHL1  H18A 1952   5.101   0.989   9.774 -2.2886  0.2162  1.3969
   27CHL1  H18B 1953   5.034   0.939   9.608 -0.4070 -0.8049 -0.0414
   27CHL1  H18C 1954   5.064   1.109   9.644  1.7337  0.0447  0.9364
   27CHL1   C12 1955   4.869   1.188   9.785 -0.1247 -0.1299 -0.1469
   27CHL1  H12A 1956   4.913   1.260   9.713  0.0349 -1.6404 -1.6567
   27CHL1  H12B 1957   4.764   1.218   9.803 -0.1559 -0.8729  1.0501
   27CHL1   C11 1958   4.936   1.196   9.922  0.0669  0.5784  0.5361
   27CHL1  H11A 1959   5.041   1.201   9.887  0.5154 -0.1474  1.7433
   27CHL1  H11B 1960   4.913   1.292   9.973 -2.3418  0.2422  0.2271
   27CHL1    C9 1961   4.909   1.083  10.027  0.1977 -0.8852  0.3685
   27CHL1    H9 1962   4.803   1.107  10.049 -0.1848 -0.4381 -1.7339
   27CHL1   C10 1963   4.998   1.103  10.155 -0.8421 -0.9808 -0.3903
   27CHL1   C19 1964   5.150   1.127  10.118  0.2126 -0.0902  0.5090
   27CHL1  H19A 1965   5.197   1.040  10.068  0.3248  0.5544 -0.5481
   27CHL1  H19B 1966   5.156   1.217  10.053 -0.5854 -0.0751  0.4529
   27CHL1  H19C 1967   5.214   1.160  10.203  1.0233  1.3381 -0.6183
   27CHL1    C1 1968   4.943   1.230  10.221 -0.9306  0.3300 -0.2649
   27CHL1   H1A 1969   4.975   1.322  10.170  0.6548  0.5293  1.0237
   27CHL1   H1B 1970   4.832   1.235  10.226 -0.9908 -0.5345 -0.4958
   27CHL1    C2 1971   4.996   1.247  10.370  0.5393 -0.3584  0.4229
   27CHL1   H2A 1972   4.943   1.334  10.414 -0.5442 -0.2045 -1.1373
   27CHL1   H2B 1973   5.102   1.278  10.380  0.9927 -2.1612  1.8850
   27CHL1   C20 1974   4.815   1.055   9.480  0.5773 -0.1692 -0.1502
   27CHL1   H20 1975   4.917   1.024   9.449  0.2929 -0.1640 -1.1261
   27CHL1   C21 1976   4.814   1.210   9.477 -0.7419  0.2082 -0.4175
   27CHL1  H21A 1977   4.913   1.254   9.499 -1.4625  1.7136 -0.0921
   27CHL1  H21B 1978   4.740   1.263   9.541 -2.7704 -0.3972 -2.1419
   27CHL1  H21C 1979   4.785   1.235   9.373  0.3116  0.2517 -0.7163
   27CHL1   C22 1980   4.733   0.994   9.366 -0.3467 -0.9194  0.0004
   27CHL1  H22A 1981   4.714   0.886   9.384 -1.9371 -0.5241  0.8758
   27CHL1  H22B 1982   4.632   1.041   9.364 -0.1021 -0.3901 -0.4530
   27CHL1   C23 1983   4.815   1.007   9.228  0.1452  0.4356 -0.0113
   27CHL1  H23A 1984   4.812   1.114   9.197 -2.1463 -0.0602 -1.8327
   27CHL1  H23B 1985   4.916   0.963   9.233 -0.6925 -2.2818 -3.2829
   27CHL1   C24 1986   4.748   0.922   9.113 -0.1147  0.0471 -0.4366
   27CHL1  H24A 1987   4.761   0.821   9.156 -3.6915 -0.0408  0.7853
   27CHL1  H24B 1988   4.638   0.934   9.099  0.1996  0.7345 -2.7913
   27CHL1   C25 1989   4.825   0.935   8.985  0.4891  0.2504 -0.1569
   27CHL1   H25 1990   4.932   0.911   9.005  0.6250 -2.0374 -3.0029
   27CHL1   C26 1991   4.768   0.825   8.883 -0.8265 -0.0614 -0.3359
   27CHL1  H26A 1992   4.661   0.843   8.859 -0.8337 -0.6621 -0.7772
   27CHL1  H26B 1993   4.832   0.822   8.792  1.2234 -0.0740  1.0435
   27CHL1  H26C 1994   4.773   0.725   8.931 -1.8152  0.6938  1.4313
   27CHL1   C27 1995   4.821   1.074   8.924  0.7330 -0.3313  0.4509
   27CHL1  H27A 1996   4.715   1.105   8.910  0.9351 -0.1703 -0.8694
   27CHL1  H27B 1997   4.856   1.145   9.003  1.0703 -0.8984  0.8165
   27CHL1  H27C 1998   4.880   1.094   8.832  0.8884  2.0592  1.0036
   28CHL1    C3 1999   4.532   6.509  10.021 -0.0768 -0.3442  0.3236
   28CHL1    H3 2000   4.425   6.510   9.992  0.3186 -0.2314 -1.2134
   28CHL1    O3 2001   4.540   6.488  10.158 -0.2315 -0.2942  0.3919
   28CHL1   H3' 2002   4.635   6.490  10.175  0.1749 -0.3254 -1.6430
   28CHL1    C4 2003   4.618   6.392   9.958  0.8054  0.1830  0.5507
   28CHL1   H4A 2004   4.722   6.392   9.997  0.8597  0.8641  0.4052
   28CHL1   H4B 2005   4.562   6.303   9.993 -1.5123  0.0862 -2.8563
   28CHL1    C5 2006   4.605   6.405   9.808 -0.4173 -0.8252  0.1571
   28CHL1    C6 2007   4.548   6.313   9.737  0.2450  0.7425  0.1897
   28CHL1    H6 2008   4.522   6.215   9.781 -0.1885  0.7185 -0.1149
   28CHL1    C7 2009   4.541   6.323   9.587 -0.6030 -0.2469  0.1238
   28CHL1   H7A 2010   4.554   6.229   9.531 -0.8763 -0.0920 -0.1980
   28CHL1   H7B 2011   4.436   6.351   9.566 -0.4234 -0.1948 -0.7373
   28CHL1    C8 2012   4.648   6.421   9.525  0.3254  1.0325  0.3141
   28CHL1    H8 2013   4.746   6.374   9.546  0.8715  2.1386  0.3349
   28CHL1   C14 2014   4.614   6.444   9.380  0.2084  0.6298 -0.7508
   28CHL1   H14 2015   4.514   6.492   9.369 -0.4200 -1.0056 -2.8552
   28CHL1   C15 2016   4.597   6.323   9.288 -0.8269 -0.0264 -0.6749
   28CHL1  H15A 2017   4.673   6.246   9.313 -1.3259 -0.5075 -0.6244
   28CHL1  H15B 2018   4.497   6.277   9.299 -0.9385  0.1711 -0.8772
   28CHL1   C16 2019   4.621   6.383   9.152  0.3705  0.5558  0.1710
   28CHL1  H16A 2020   4.702   6.328   9.099  0.2269 -0.1739  0.6962
   28CHL1  H16B 2021   4.527   6.375   9.093  0.6798  0.9574 -0.3811
   28CHL1   C17 2022   4.671   6.527   9.162  0.5289 -0.1622 -0.5095
   28CHL1   H17 2023   4.587   6.598   9.152  1.2422  0.8202  0.2486
   28CHL1   C13 2024   4.718   6.543   9.309 -0.0655 -0.3691  0.2416
   28CHL1   C18 2025   4.864   6.486   9.317 -0.8702  0.6079  0.0015
   28CHL1  H18A 2026   4.864   6.390   9.260  0.8913  0.6553 -0.1251
   28CHL1  H18B 2027   4.934   6.550   9.259 -2.6737  0.1008 -3.0016
   28CHL1  H18C 2028   4.895   6.468   9.422  0.2811 -0.0952 -0.4413
   28CHL1   C12 2029   4.711   6.680   9.379  0.3178  0.5181 -0.4326
   28CHL1  H12A 2030   4.791   6.747   9.341  0.1424 -0.8014 -3.3862
   28CHL1  H12B 2031   4.612   6.730   9.368  0.4163  0.6013 -0.9481
   28CHL1   C11 2032   4.731   6.659   9.535  0.0297 -0.2305 -0.1849
   28CHL1  H11A 2033   4.837   6.650   9.567  0.0708  1.6917  0.3747
   28CHL1  H11B 2034   4.690   6.751   9.583 -0.5761 -0.0026 -1.1020
   28CHL1    C9 2035   4.643   6.553   9.602 -0.3397  0.3459  0.9329
   28CHL1    H9 2036   4.540   6.592   9.594  0.6228  2.7734 -0.9986
   28CHL1   C10 2037   4.674   6.533   9.755 -0.6184 -0.6714 -0.5327
   28CHL1   C19 2038   4.823   6.531   9.789 -0.6195  0.0351 -0.2242
   28CHL1  H19A 2039   4.869   6.631   9.774 -0.9894  0.2296 -0.0576
   28CHL1  H19B 2040   4.860   6.496   9.888  0.8478 -1.2564 -1.1724
   28CHL1  H19C 2041   4.875   6.463   9.718 -0.2709 -0.7135  0.7147
   28CHL1    C1 2042   4.611   6.656   9.822  0.3011  0.0630  0.1481
   28CHL1   H1A 2043   4.671   6.744   9.790 -0.8660  0.5792 -0.7149
   28CHL1   H1B 2044   4.518   6.692   9.773  0.5458  0.4985 -0.0097
   28CHL1    C2 2045   4.597   6.648   9.975 -0.0438 -0.1306 -0.1750
   28CHL1   H2A 2046   4.552   6.733  10.029 -0.0038 -2.0457  3.1324
   28CHL1   H2B 2047   4.693   6.651  10.030 -0.4814  1.3557  0.5554
   28CHL1   C20 2048   4.762   6.571   9.050 -0.3008  0.2818 -0.2259
   28CHL1   H20 2049   4.845   6.496   9.050  0.6462  1.3006 -0.5874
   28CHL1   C21 2050   4.813   6.713   9.071  0.4041 -0.3287 -0.1698
   28CHL1  H21A 2051   4.854   6.759   8.979 -0.1256 -0.5877 -0.5400
   28CHL1  H21B 2052   4.886   6.709   9.155 -1.1481 -1.9119  1.1938
   28CHL1  H21C 2053   4.726   6.775   9.103 -0.0152 -1.4163  0.8744
   28CHL1   C22 2054   4.692   6.548   8.909 -0.3578  0.5271 -0.0671
   28CHL1  H22A 2055   4.622   6.463   8.918 -0.3139  0.4087 -0.8018
   28CHL1  H22B 2056   4.649   6.648   8.889 -0.8139  0.4585  0.5382
   28CHL1   C23 2057   4.788   6.518   8.796  0.6362 -0.0040 -0.2050
   28CHL1  H23A 2058   4.716   6.534   8.713  0.3999 -3.0449 -0.7156
   28CHL1  H23B 2059   4.863   6.598   8.780 -1.1754  1.6770 -0.7672
   28CHL1   C24 2060   4.850   6.386   8.804  0.2255 -0.0073  0.2418
   28CHL1  H24A 2061   4.939   6.402   8.870  1.0279  0.4452 -0.9165
   28CHL1  H24B 2062   4.781   6.308   8.841  1.0815 -0.0712  1.7752
   28CHL1   C25 2063   4.896   6.322   8.678 -0.3710  0.7789  0.6414
   28CHL1   H25 2064   4.807   6.333   8.612 -0.0820  1.1016  0.3004
   28CHL1   C26 2065   5.004   6.408   8.609 -0.4584 -0.2164 -0.6502
   28CHL1  H26A 2066   5.108   6.390   8.643 -0.4300  1.6582  0.3785
   28CHL1  H26B 2067   5.005   6.393   8.499  1.7512 -2.8177 -0.3917
   28CHL1  H26C 2068   4.979   6.515   8.625  0.5271  0.0750 -0.9816
   28CHL1   C27 2069   4.937   6.178   8.689  0.8814  0.4157  0.2475
   28CHL1  H27A 2070   5.032   6.168   8.745 -0.1005 -1.2578  1.7380
   28CHL1  H27B 2071   4.856   6.119   8.738 -0.0123  1.4159  0.0202
   28CHL1  H27C 2072   4.945   6.130   8.589  1.1563 -2.6526  1.6328
   29CHL1    C3 2073   6.276   3.255   6.782  0.1239  0.6782 -0.2255
   29CHL1    H3 2074   6.285   3.154   6.827  1.0744  0.4877 -0.8154
   29CHL1    O3 2075   6.295   3.239   6.642  0.2291  0.0845 -0.2333
   29CHL1   H3' 2076   6.206   3.246   6.607 -0.2497 -0.9849  0.7121
   29CHL1    C4 2077   6.139   3.313   6.815  0.4012  0.3360 -0.5277
   29CHL1   H4A 2078   6.100   3.401   6.760 -0.8807  0.3275  0.3192
   29CHL1   H4B 2079   6.059   3.242   6.785  0.7124 -0.0956 -0.3471
   29CHL1    C5 2080   6.116   3.341   6.963 -0.0504 -0.1952  0.0792
   29CHL1    C6 2081   6.006   3.288   7.028  0.2309 -0.1385  0.1246
   29CHL1    H6 2082   5.928   3.233   6.974  0.1106  1.0919 -1.0174
   29CHL1    C7 2083   5.982   3.319   7.174 -0.3862 -0.5858  0.0480
   29CHL1   H7A 2084   5.882   3.364   7.188 -0.5981 -0.5328 -1.4880
   29CHL1   H7B 2085   6.002   3.231   7.240  4.3616 -0.9784 -1.4773
   29CHL1    C8 2086   6.077   3.436   7.227 -0.7458  0.0022  0.4386
   29CHL1    H8 2087   6.035   3.531   7.188  0.0003  0.5602  0.9815
   29CHL1   C14 2088   6.075   3.423   7.377 -0.4617 -0.3246  0.5443
   29CHL1   H14 2089   6.117   3.324   7.406  2.5170  0.4270 -0.7954
   29CHL1   C15 2090   5.932   3.426   7.438  0.2979 -0.4112 -0.0215
   29CHL1  H15A 2091   5.872   3.488   7.368 -0.1327 -0.4779  0.2891
   29CHL1  H15B 2092   5.889   3.323   7.430 -0.9080  0.1465 -1.2018
   29CHL1   C16 2093   5.951   3.488   7.577  0.6733  0.1242 -0.0300
   29CHL1  H16A 2094   5.897   3.585   7.571 -0.0068 -0.2566 -0.1388
   29CHL1  H16B 2095   5.912   3.429   7.663 -1.7514  1.5699 -0.0466
   29CHL1   C17 2096   6.106   3.509   7.594  0.2998  0.0512 -0.1879
   29CHL1   H17 2097   6.141   3.409   7.627 -0.9566  0.2234  1.7843
   29CHL1   C13 2098   6.155   3.535   7.451 -0.2902  0.5949  0.1682
   29CHL1   C18 2099   6.113   3.671   7.396  0.5055  0.6313  0.3677
   29CHL1  H18A 2100   6.178   3.747   7.445  0.0324  0.7584  0.8099
   29CHL1  H18B 2101   6.111   3.685   7.286  0.4181 -0.4011  0.2251
   29CHL1  H18C 2102   6.007   3.698   7.417  0.2369  0.0973 -0.2829
   29CHL1   C12 2103   6.300   3.508   7.409 -0.7558 -0.5073  0.3895
   29CHL1  H12A 2104   6.367   3.585   7.454 -0.7225 -1.1144  1.4300
   29CHL1  H12B 2105   6.333   3.410   7.448 -0.0598  0.1786  1.6153
   29CHL1   C11 2106   6.322   3.520   7.254  0.7911 -0.0480  0.3567
   29CHL1  H11A 2107   6.306   3.626   7.224  0.7650 -0.2405 -0.3417
   29CHL1  H11B 2108   6.431   3.503   7.239  1.4509  1.7948  2.6084
   29CHL1    C9 2109   6.220   3.424   7.178 -0.9183  0.4107 -0.4632
   29CHL1    H9 2110   6.252   3.320   7.204  0.3185  0.8958  0.0321
   29CHL1   C10 2111   6.232   3.431   7.024  0.8387  0.1452  0.6661
   29CHL1   C19 2112   6.207   3.579   6.982 -0.2156 -0.4074  0.3614
   29CHL1  H19A 2113   6.283   3.646   7.026 -0.5244  0.4868 -0.4264
   29CHL1  H19B 2114   6.207   3.602   6.873 -2.1005 -0.6327  0.2767
   29CHL1  H19C 2115   6.110   3.613   7.025  0.6147  1.8004  0.5838
   29CHL1    C1 2116   6.371   3.389   6.984 -1.2055  0.7164  0.2155
   29CHL1   H1A 2117   6.439   3.466   7.026 -1.2036 -0.4049  2.4756
   29CHL1   H1B 2118   6.398   3.291   7.029 -0.5136  0.0875 -1.4822
   29CHL1    C2 2119   6.386   3.358   6.829 -0.3184 -0.1721  0.1302
   29CHL1   H2A 2120   6.481   3.313   6.793 -0.7261 -0.5674 -0.4512
   29CHL1   H2B 2121   6.365   3.454   6.778 -0.4776  0.1320  0.7547
   29CHL1   C20 2122   6.149   3.616   7.692  0.6796 -0.9139 -0.3061
   29CHL1   H20 2123   6.177   3.714   7.647 -0.1869  0.4377  1.9491
   29CHL1   C21 2124   6.271   3.563   7.769 -0.2119 -0.1569  0.5615
   29CHL1  H21A 2125   6.237   3.495   7.851  0.5238  0.0718  1.0635
   29CHL1  H21B 2126   6.320   3.648   7.822  0.6871 -0.3936  0.1205
   29CHL1  H21C 2127   6.338   3.513   7.696 -1.5626 -0.7769 -0.3063
   29CHL1   C22 2128   6.044   3.668   7.800 -0.3713 -0.3529 -0.0470
   29CHL1  H22A 2129   5.939   3.651   7.771 -0.6994  1.5630 -0.0994
   29CHL1  H22B 2130   6.055   3.604   7.890 -0.5539 -2.0600 -1.2033
   29CHL1   C23 2131   6.060   3.817   7.836  0.4000  0.3586  0.4853
   29CHL1  H23A 2132   6.168   3.830   7.859  1.6057 -5.3227 -0.5139
   29CHL1  H23B 2133   6.027   3.900   7.770 -0.7324  1.1204  1.9469
   29CHL1   C24 2134   5.994   3.829   7.976  0.4396 -0.6819 -0.6080
   29CHL1  H24A 2135   5.885   3.810   7.965  0.0820  0.9866 -0.1882
   29CHL1  H24B 2136   6.037   3.750   8.042  1.0954 -0.3559 -0.6356
   29CHL1   C25 2137   6.012   3.962   8.042  0.4356 -0.1939  0.3402
   29CHL1   H25 2138   5.962   3.953   8.141  0.6942  0.2628  0.5182
   29CHL1   C26 2139   6.153   4.005   8.074  0.2261 -0.7852 -0.0325
   29CHL1  H26A 2140   6.198   3.929   8.141 -1.6107 -3.2324 -1.4048
   29CHL1  H26B 2141   6.207   4.020   7.978  0.4695 -1.5748 -0.0196
   29CHL1  H26C 2142   6.160   4.097   8.136 -0.8646 -1.2674  0.8358
   29CHL1   C27 2143   5.934   4.077   7.971 -0.2459 -0.1055  0.1281
   29CHL1  H27A 2144   5.983   4.122   7.882  1.3836  0.9227  1.4991
   29CHL1  H27B 2145   5.838   4.033   7.935  1.1866 -1.1116 -2.7503
   29CHL1  H27C 2146   5.905   4.155   8.045 -0.5827 -0.5521  0.4735
   30CHL1    C3 2147   4.639   1.778   7.233 -0.4694 -0.0129  0.4153
   30CHL1    H3 2148   4.750   1.779   7.231 -0.3653 -0.3540  2.7880
   30CHL1    O3 2149   4.584   1.773   7.101  0.4780  0.3400  0.2215
   30CHL1   H3' 2150   4.625   1.851   7.063 -1.1168  0.7061 -0.8398
   30CHL1    C4 2151   4.592   1.651   7.309  0.2990  0.2102  1.1651
   30CHL1   H4A 2152   4.486   1.625   7.293  0.7574 -0.6301 -0.7572
   30CHL1   H4B 2153   4.649   1.566   7.265 -2.2003 -0.6090 -0.6993
   30CHL1    C5 2154   4.610   1.656   7.459  0.1521 -0.5323 -0.5677
   30CHL1    C6 2155   4.685   1.564   7.516 -0.3493 -0.0675 -0.2613
   30CHL1    H6 2156   4.737   1.490   7.454 -0.9666 -0.8018  0.0770
   30CHL1    C7 2157   4.699   1.558   7.662 -0.0039  0.1548 -0.2430
   30CHL1   H7A 2158   4.666   1.454   7.680  0.0330  0.1161 -0.3955
   30CHL1   H7B 2159   4.803   1.584   7.692  0.2835  0.7603 -1.6678
   30CHL1    C8 2160   4.601   1.649   7.740 -0.3092 -0.0084  0.0427
   30CHL1    H8 2161   4.498   1.611   7.755 -0.2026 -0.0819  0.6215
   30CHL1   C14 2162   4.650   1.670   7.878  0.0013 -0.2787 -0.3829
   30CHL1   H14 2163   4.744   1.730   7.871 -0.3096  0.2023 -0.5150
   30CHL1   C15 2164   4.664   1.533   7.947  0.0515 -0.3456 -0.5402
   30CHL1  H15A 2165   4.581   1.470   7.909 -2.1695  1.9875  0.1921
   30CHL1  H15B 2166   4.762   1.489   7.917 -0.1854 -0.9082 -0.4956
   30CHL1   C16 2167   4.670   1.565   8.099  0.7828  0.1243 -0.1419
   30CHL1  H16A 2168   4.593   1.503   8.150 -0.0838  1.2031 -0.0949
   30CHL1  H16B 2169   4.763   1.543   8.154 -1.1674 -3.5838  2.0711
   30CHL1   C17 2170   4.628   1.719   8.112 -0.0130  0.2532  0.9461
   30CHL1   H17 2171   4.726   1.769   8.104  1.4316 -2.3046  1.6851
   30CHL1   C13 2172   4.561   1.745   7.973 -0.0837 -0.3140  0.3262
   30CHL1   C18 2173   4.416   1.692   7.976 -0.9512 -0.9310  0.2319
   30CHL1  H18A 2174   4.364   1.690   7.877 -0.7983  0.3609  0.1056
   30CHL1  H18B 2175   4.415   1.588   8.014  0.0158 -1.3574 -0.8651
   30CHL1  H18C 2176   4.348   1.748   8.044 -0.7098 -1.5833  1.0179
   30CHL1   C12 2177   4.547   1.890   7.912  0.1362  0.0667 -0.1020
   30CHL1  H12A 2178   4.474   1.945   7.975  1.2414  0.3334  0.9756
   30CHL1  H12B 2179   4.642   1.946   7.925  0.6276 -1.0761  1.5897
   30CHL1   C11 2180   4.500   1.885   7.769 -0.1047 -0.0922  0.3782
   30CHL1  H11A 2181   4.391   1.865   7.758 -0.1678  0.9330 -1.1553
   30CHL1  H11B 2182   4.520   1.986   7.730  0.9351 -0.3241  0.2903
   30CHL1    C9 2183   4.584   1.785   7.681 -0.2672 -0.1747  0.2276
   30CHL1    H9 2184   4.687   1.826   7.680  0.1632 -1.1708 -1.7997
   30CHL1   C10 2185   4.546   1.779   7.524 -0.9079 -0.6877  0.9068
   30CHL1   C19 2186   4.389   1.775   7.520 -0.9133  0.1489 -0.5310
   30CHL1  H19A 2187   4.324   1.852   7.567 -1.7971 -0.7772 -0.2011
   30CHL1  H19B 2188   4.352   1.782   7.416 -1.7558  0.6623 -0.1995
   30CHL1  H19C 2189   4.366   1.674   7.562 -0.3410  0.2926  0.1534
   30CHL1    C1 2190   4.611   1.903   7.453  0.2199 -0.7768  0.9116
   30CHL1   H1A 2191   4.562   1.991   7.499 -0.0272 -0.1454 -0.5024
   30CHL1   H1B 2192   4.721   1.909   7.460  0.2827 -1.7508  0.8827
   30CHL1    C2 2193   4.570   1.900   7.306  0.4280  0.9545  0.3881
   30CHL1   H2A 2194   4.599   1.995   7.258 -1.6185  1.4665  0.0625
   30CHL1   H2B 2195   4.459   1.906   7.302  0.5172  1.7912 -2.0732
   30CHL1   C20 2196   4.540   1.735   8.232  0.1815  0.1886  0.4957
   30CHL1   H20 2197   4.450   1.670   8.229  1.3563 -1.4981  0.2531
   30CHL1   C21 2198   4.481   1.875   8.233 -0.0835  0.2070  0.7645
   30CHL1  H21A 2199   4.435   1.905   8.329 -0.0315  0.5799  0.6725
   30CHL1  H21B 2200   4.400   1.903   8.163 -0.9392  0.3140  1.7702
   30CHL1  H21C 2201   4.561   1.948   8.208  0.8276 -0.0630  2.6693
   30CHL1   C22 2202   4.613   1.719   8.368  0.4374  0.3805  0.3245
   30CHL1  H22A 2203   4.526   1.740   8.435  0.0068  0.1620 -0.1533
   30CHL1  H22B 2204   4.645   1.614   8.385  1.0994  0.3023 -1.2761
   30CHL1   C23 2205   4.733   1.808   8.398 -0.1966 -0.8854  0.2208
   30CHL1  H23A 2206   4.800   1.794   8.311 -2.2398 -0.2411 -1.5457
   30CHL1  H23B 2207   4.706   1.916   8.400  0.2488 -0.6887  4.6846
   30CHL1   C24 2208   4.790   1.773   8.531 -0.4524  0.4467  0.2112
   30CHL1  H24A 2209   4.716   1.758   8.613 -3.1012  1.4999 -1.8615
   30CHL1  H24B 2210   4.847   1.677   8.527  0.0358  0.5422  2.9901
   30CHL1   C25 2211   4.916   1.860   8.574  0.1779 -0.1693 -0.5231
   30CHL1   H25 2212   4.981   1.873   8.485 -0.2830  1.2105 -0.6880
   30CHL1   C26 2213   4.874   2.004   8.619  0.1120  0.1358  0.0689
   30CHL1  H26A 2214   4.801   1.999   8.702  2.2021 -1.4228  1.9221
   30CHL1  H26B 2215   4.959   2.061   8.663  0.0324  0.2064  0.1301
   30CHL1  H26C 2216   4.826   2.057   8.534 -2.2026 -2.4383 -0.3638
   30CHL1   C27 2217   4.988   1.787   8.695  0.1130 -0.5571  0.2775
   30CHL1  H27A 2218   5.083   1.829   8.734  0.0350 -0.8793  0.8329
   30CHL1  H27B 2219   4.918   1.788   8.781 -0.6919 -1.8396 -0.3243
   30CHL1  H27C 2220   5.002   1.678   8.680 -0.4152 -0.7142  0.8839
   31CHL1    C3 2221   2.909   3.759   6.726 -0.1997 -0.7437  0.1157
   31CHL1    H3 2222   2.859   3.663   6.753  0.4970 -1.1523 -0.0168
   31CHL1    O3 2223   2.950   3.754   6.592 -0.0472 -0.6568  0.7633
   31CHL1   H3' 2224   3.029   3.703   6.577  0.1723 -1.2406  3.4356
   31CHL1    C4 2225   2.804   3.871   6.749  0.3072 -0.1542  0.2336
   31CHL1   H4A 2226   2.856   3.958   6.705  2.1959 -0.6828  1.3372
   31CHL1   H4B 2227   2.719   3.840   6.684 -2.0503  2.0825  1.9961
   31CHL1    C5 2228   2.769   3.887   6.898 -1.0234 -0.5957  0.6666
   31CHL1    C6 2229   2.640   3.877   6.936  0.6308  0.5863  0.2307
   31CHL1    H6 2230   2.574   3.858   6.850  1.8638 -0.0490 -0.6142
   31CHL1    C7 2231   2.600   3.896   7.079 -0.0215  0.1885  0.1038
   31CHL1   H7A 2232   2.526   3.978   7.087  0.0836  0.2514  0.4795
   31CHL1   H7B 2233   2.545   3.815   7.132 -1.0991 -0.4700 -1.9338
   31CHL1    C8 2234   2.719   3.957   7.170  0.8668 -0.2939  0.3044
   31CHL1    H8 2235   2.723   4.064   7.140  0.3745 -0.8934 -2.1369
   31CHL1   C14 2236   2.686   3.938   7.317 -0.2754 -0.0146  0.5552
   31CHL1   H14 2237   2.664   3.830   7.330 -1.5428  0.4392  2.6598
   31CHL1   C15 2238   2.557   4.009   7.370  0.2555 -0.2753  0.2278
   31CHL1  H15A 2239   2.564   4.116   7.338  1.4628 -0.8065 -1.4322
   31CHL1  H15B 2240   2.465   3.954   7.341  0.7779 -0.7926 -0.4730
   31CHL1   C16 2241   2.581   3.997   7.517  0.6036 -0.1916 -0.1269
   31CHL1  H16A 2242   2.584   4.097   7.566 -3.7382 -0.9513  2.1813
   31CHL1  H16B 2243   2.502   3.928   7.555  1.1169 -1.1761 -0.8099
   31CHL1   C17 2244   2.724   3.942   7.554 -0.0819  0.2052 -0.1142
   31CHL1   H17 2245   2.706   3.832   7.561  0.2798  0.2158  1.2382
   31CHL1   C13 2246   2.801   3.966   7.417  0.7147 -0.6153 -0.4004
   31CHL1   C18 2247   2.842   4.113   7.405  0.3674  0.3372 -0.5124
   31CHL1  H18A 2248   2.765   4.182   7.444  0.0977  1.0921 -2.2733
   31CHL1  H18B 2249   2.939   4.128   7.458  0.4374  0.1802 -0.5918
   31CHL1  H18C 2250   2.855   4.159   7.304 -1.1954  0.9995 -0.4333
   31CHL1   C12 2251   2.916   3.869   7.389 -0.5586  0.2446  0.4171
   31CHL1  H12A 2252   2.992   3.885   7.468  0.7376 -2.0037 -0.2771
   31CHL1  H12B 2253   2.876   3.766   7.401 -0.5121  0.4007  2.0756
   31CHL1   C11 2254   2.962   3.881   7.247  0.2759 -0.1015  0.3883
   31CHL1  H11A 2255   3.010   3.981   7.253 -0.8713  0.5669 -0.9104
   31CHL1  H11B 2256   3.035   3.804   7.214 -0.1551  1.0498 -3.8250
   31CHL1    C9 2257   2.848   3.882   7.138  0.3043  0.0650  0.9222
   31CHL1    H9 2258   2.826   3.773   7.129  1.8341 -0.1362 -1.1831
   31CHL1   C10 2259   2.888   3.896   6.992  0.3861 -0.1433 -0.1464
   31CHL1   C19 2260   2.963   4.031   6.983 -0.7614  0.6260 -0.1756
   31CHL1  H19A 2261   3.049   4.041   7.053  0.7651  0.2481 -1.8931
   31CHL1  H19B 2262   3.005   4.030   6.879  1.2784  0.5184  0.5977
   31CHL1  H19C 2263   2.902   4.123   6.993  0.5235  1.5578 -0.5731
   31CHL1    C1 2264   2.986   3.778   6.965 -0.4382 -0.2285 -0.3168
   31CHL1   H1A 2265   3.083   3.794   7.017 -0.0007 -1.6216 -0.6467
   31CHL1   H1B 2266   2.943   3.679   6.991 -0.1049  0.2357  2.2309
   31CHL1    C2 2267   3.029   3.765   6.821  0.0234  0.2341  0.0671
   31CHL1   H2A 2268   3.103   3.684   6.806  1.3594  0.8925  2.5121
   31CHL1   H2B 2269   3.094   3.848   6.788 -0.4807 -0.0595 -1.7506
   31CHL1   C20 2270   2.787   3.988   7.687 -0.1114  0.4374  0.5961
   31CHL1   H20 2271   2.845   4.082   7.675 -0.5106  0.6261  0.1242
   31CHL1   C21 2272   2.891   3.879   7.729 -0.9564  0.1569  0.1114
   31CHL1  H21A 2273   2.846   3.778   7.745  0.7513 -0.8102 -0.9171
   31CHL1  H21B 2274   2.936   3.912   7.824  1.2019  0.0793 -0.8324
   31CHL1  H21C 2275   2.967   3.863   7.650 -1.8330  1.1430 -0.9620
   31CHL1   C22 2276   2.674   4.011   7.794 -0.2683  0.2362 -0.2120
   31CHL1  H22A 2277   2.606   4.095   7.766 -0.8799  0.0057  0.5648
   31CHL1  H22B 2278   2.606   3.924   7.806  3.1485 -2.6188 -0.0052
   31CHL1   C23 2279   2.732   4.036   7.935  0.2728  0.1100  0.1816
   31CHL1  H23A 2280   2.789   3.949   7.976 -0.2957  0.7925  2.5818
   31CHL1  H23B 2281   2.810   4.115   7.933 -1.1298  1.5394 -0.1038
   31CHL1   C24 2282   2.621   4.073   8.035  0.2827  0.2956  0.0223
   31CHL1  H24A 2283   2.564   4.163   8.005 -2.1475 -1.2434 -0.3019
   31CHL1  H24B 2284   2.544   3.992   8.037  0.9898 -0.3848  0.3034
   31CHL1   C25 2285   2.682   4.087   8.182 -0.2335  0.2871 -0.4004
   31CHL1   H25 2286   2.726   3.988   8.204 -0.2086 -0.1550 -2.2799
   31CHL1   C26 2287   2.791   4.195   8.189  0.3841 -0.4829 -0.3253
   31CHL1  H26A 2288   2.752   4.293   8.157  0.0410  0.0845  1.7041
   31CHL1  H26B 2289   2.827   4.193   8.294  0.2072  0.2869 -0.2471
   31CHL1  H26C 2290   2.872   4.163   8.120  1.4926  0.1375  0.6683
   31CHL1   C27 2291   2.573   4.126   8.286  0.0880  0.1273 -0.1275
   31CHL1  H27A 2292   2.547   4.231   8.259 -0.4013 -0.6106 -2.7917
   31CHL1  H27B 2293   2.618   4.123   8.388 -0.4267  0.8771  0.1261
   31CHL1  H27C 2294   2.481   4.066   8.269  1.6359 -1.8455 -2.1604
   32CHL1    C3 2295   4.976   1.667   6.904 -0.0360 -0.2201 -0.5854
   32CHL1    H3 2296   4.874   1.694   6.939  0.2549 -0.8051  0.7450
   32CHL1    O3 2297   4.983   1.708   6.765  0.2678 -0.2347 -0.5441
   32CHL1   H3' 2298   5.076   1.711   6.741 -0.5471 -1.5580 -4.5097
   32CHL1    C4 2299   5.072   1.746   7.002  0.3241  0.2913  0.1986
   32CHL1   H4A 2300   5.177   1.725   6.974  0.3235 -0.1733  0.5398
   32CHL1   H4B 2301   5.046   1.852   6.979 -1.8485 -0.0096  1.0399
   32CHL1    C5 2302   5.054   1.706   7.147 -0.7134 -0.0285  0.0676
   32CHL1    C6 2303   5.034   1.798   7.245  0.7201 -0.6467 -0.2059
   32CHL1    H6 2304   5.039   1.904   7.215 -1.9004 -0.4785 -0.2417
   32CHL1    C7 2305   5.037   1.761   7.395 -0.2618  0.2264  0.2200
   32CHL1   H7A 2306   5.095   1.842   7.445  0.7944 -0.5629  0.2933
   32CHL1   H7B 2307   4.939   1.773   7.446  0.9368  1.9830  2.3236
   32CHL1    C8 2308   5.105   1.623   7.422  1.2279  0.1436  0.2961
   32CHL1    H8 2309   5.213   1.638   7.402  1.5220 -2.0195  0.0252
   32CHL1   C14 2310   5.069   1.574   7.564 -0.1783 -0.4815 -0.0162
   32CHL1   H14 2311   4.958   1.574   7.555 -0.1770  0.8277 -0.3078
   32CHL1   C15 2312   5.118   1.669   7.681 -0.0247 -0.2800  0.2496
   32CHL1  H15A 2313   5.218   1.715   7.663 -0.5375  1.4370  1.4908
   32CHL1  H15B 2314   5.042   1.749   7.698 -2.0045 -1.7395 -1.2210
   32CHL1   C16 2315   5.126   1.572   7.798  0.6006  0.2808 -0.3016
   32CHL1  H16A 2316   5.227   1.547   7.838  1.0140  1.1359 -0.7871
   32CHL1  H16B 2317   5.062   1.613   7.878 -1.3850  0.2144 -1.7778
   32CHL1   C17 2318   5.075   1.436   7.749 -0.0194  0.0396 -1.2928
   32CHL1   H17 2319   4.965   1.419   7.750  0.1365 -1.1533  0.3328
   32CHL1   C13 2320   5.114   1.433   7.600  0.2801 -0.6470 -0.0963
   32CHL1   C18 2321   5.268   1.430   7.605 -0.0576  0.2927 -0.4003
   32CHL1  H18A 2322   5.306   1.446   7.502  4.0783  1.4051  1.1058
   32CHL1  H18B 2323   5.313   1.513   7.664  0.0458 -0.2573  0.3114
   32CHL1  H18C 2324   5.320   1.337   7.635  2.5980  1.8452  0.1304
   32CHL1   C12 2325   5.057   1.330   7.496 -0.1407 -0.7402  0.1135
   32CHL1  H12A 2326   5.103   1.231   7.517  1.9776 -0.2168 -1.7209
   32CHL1  H12B 2327   4.946   1.323   7.507 -0.2241  0.5536  0.1990
   32CHL1   C11 2328   5.095   1.370   7.353 -0.7128  0.6697  0.1814
   32CHL1  H11A 2329   5.202   1.351   7.332 -0.8155  2.0276 -1.8795
   32CHL1  H11B 2330   5.041   1.308   7.278  2.5179 -0.9021 -1.0225
   32CHL1    C9 2331   5.054   1.515   7.317 -0.6152 -0.7409 -0.5337
   32CHL1    H9 2332   4.943   1.512   7.321 -0.5999 -0.8153 -0.1140
   32CHL1   C10 2333   5.082   1.557   7.169 -0.0355 -0.0846  0.0394
   32CHL1   C19 2334   5.228   1.516   7.131 -0.4292 -0.4897 -0.2966
   32CHL1  H19A 2335   5.282   1.515   7.229 -0.4340  2.1064 -0.2087
   32CHL1  H19B 2336   5.224   1.412   7.092  0.0701 -0.1047 -1.3936
   32CHL1  H19C 2337   5.289   1.586   7.070  1.3850 -3.0713 -1.6610
   32CHL1    C1 2338   4.986   1.478   7.072  0.3388  0.5825  1.0299
   32CHL1   H1A 2339   5.009   1.369   7.069 -0.7403  0.3686 -0.3049
   32CHL1   H1B 2340   4.883   1.489   7.111  0.1325 -2.7521  1.7345
   32CHL1    C2 2341   4.986   1.519   6.919 -0.4459  0.5879  0.6797
   32CHL1   H2A 2342   4.907   1.460   6.867  0.0760 -2.0318  2.6154
   32CHL1   H2B 2343   5.081   1.489   6.870 -2.3507 -0.7122 -2.5545
   32CHL1   C20 2344   5.107   1.320   7.842  0.0615  0.5402 -0.7933
   32CHL1   H20 2345   5.216   1.312   7.864  0.1020 -1.1849 -1.4756
   32CHL1   C21 2346   5.061   1.190   7.770 -0.3524 -0.0957 -0.7141
   32CHL1  H21A 2347   5.052   1.107   7.844  1.2342  0.2922 -0.0464
   32CHL1  H21B 2348   5.147   1.165   7.705 -0.1311  0.9809 -0.8378
   32CHL1  H21C 2349   4.966   1.202   7.713 -0.9354  2.0695  0.6209
   32CHL1   C22 2350   5.040   1.340   7.981 -0.0027 -0.5623 -1.2041
   32CHL1  H22A 2351   4.994   1.440   7.989 -0.4735 -0.8059 -0.8255
   32CHL1  H22B 2352   4.953   1.275   8.007 -2.3347  2.5159 -0.8062
   32CHL1   C23 2353   5.136   1.328   8.102  0.3513 -0.5546  0.0110
   32CHL1  H23A 2354   5.188   1.230   8.112  0.9146 -0.2154  0.4805
   32CHL1  H23B 2355   5.220   1.395   8.072 -2.4185  3.0394 -0.3401
   32CHL1   C24 2356   5.062   1.333   8.242  0.4542 -0.2976  0.5716
   32CHL1  H24A 2357   4.988   1.415   8.232  1.1051  0.7141  3.2339
   32CHL1  H24B 2358   5.007   1.238   8.252  1.7832 -1.2793 -0.8515
   32CHL1   C25 2359   5.153   1.351   8.361 -0.5803 -0.7530 -0.2141
   32CHL1   H25 2360   5.218   1.267   8.394  0.1503  0.4896  1.6673
   32CHL1   C26 2361   5.247   1.476   8.351 -0.1659  0.3233  0.6469
   32CHL1  H26A 2362   5.203   1.562   8.296  2.3283  0.3664 -1.4407
   32CHL1  H26B 2363   5.278   1.504   8.454 -2.2625 -3.2191  2.4618
   32CHL1  H26C 2364   5.337   1.450   8.292  0.0060  1.5770  0.3354
   32CHL1   C27 2365   5.060   1.371   8.482  0.4341 -0.0694 -0.5130
   32CHL1  H27A 2366   4.996   1.280   8.488  0.5702 -0.3261 -2.4868
   32CHL1  H27B 2367   5.119   1.386   8.575 -1.4674 -0.2806  0.7793
   32CHL1  H27C 2368   4.999   1.463   8.479  1.8098  0.9464  1.1762
   33CHL1    C3 2369   5.780   1.712   6.888  0.4426 -0.6739 -0.2480
   33CHL1    H3 2370   5.884   1.697   6.924  0.8264 -2.1329 -1.8361
   33CHL1    O3 2371   5.767   1.646   6.760  0.5894 -0.2341  0.4141
   33CHL1   H3' 2372   5.837   1.695   6.715 -1.8214  3.0016 -0.2233
   33CHL1    C4 2373   5.685   1.642   6.986 -0.9269  0.4969 -0.3144
   33CHL1   H4A 2374   5.589   1.626   6.932 -0.7857 -1.0242 -0.1764
   33CHL1   H4B 2375   5.729   1.540   6.977 -2.5944 -0.2599 -0.2813
   33CHL1    C5 2376   5.665   1.694   7.122  1.0980  0.6115 -0.7916
   33CHL1    C6 2377   5.686   1.625   7.236 -0.1754 -0.5603 -0.0726
   33CHL1    H6 2378   5.719   1.521   7.243  0.1619 -0.3682  1.4916
   33CHL1    C7 2379   5.642   1.685   7.373  0.2444  0.0881 -0.6484
   33CHL1   H7A 2380   5.576   1.618   7.432  1.0095 -0.6242 -0.5871
   33CHL1   H7B 2381   5.738   1.704   7.427  0.8815  0.7032 -1.9658
   33CHL1    C8 2382   5.556   1.815   7.362 -0.4238 -0.0779 -0.2669
   33CHL1    H8 2383   5.449   1.787   7.347 -0.6715  1.3416 -1.3745
   33CHL1   C14 2384   5.566   1.896   7.496  0.3001 -0.0645  1.2374
   33CHL1   H14 2385   5.674   1.920   7.505  0.8344 -1.2614 -1.0652
   33CHL1   C15 2386   5.529   1.823   7.622 -0.4636  0.2121 -0.4762
   33CHL1  H15A 2387   5.456   1.741   7.603  2.0186 -2.5494  1.1042
   33CHL1  H15B 2388   5.617   1.770   7.664 -0.3826  0.8723  0.2140
   33CHL1   C16 2389   5.475   1.931   7.715 -0.4721 -0.4666 -0.5819
   33CHL1  H16A 2390   5.369   1.904   7.737 -0.4235 -0.5066 -0.3984
   33CHL1  H16B 2391   5.542   1.932   7.803  0.6363  0.2123 -1.4166
   33CHL1   C17 2392   5.489   2.067   7.635  0.1846  0.3557 -0.4515
   33CHL1   H17 2393   5.589   2.110   7.656  0.6106 -0.8232  0.0560
   33CHL1   C13 2394   5.479   2.016   7.492 -0.0648  0.3176  0.1634
   33CHL1   C18 2395   5.333   1.969   7.459  0.6422  0.2149  0.2102
   33CHL1  H18A 2396   5.260   2.051   7.474  1.1415  0.7863 -0.4316
   33CHL1  H18B 2397   5.331   1.938   7.353  0.2840  0.9974 -0.0224
   33CHL1  H18C 2398   5.312   1.882   7.524  2.3018 -1.0490 -0.8648
   33CHL1   C12 2399   5.542   2.106   7.385 -0.4406 -0.0368  0.3078
   33CHL1  H12A 2400   5.489   2.204   7.387  3.1360  2.1481 -1.7010
   33CHL1  H12B 2401   5.647   2.131   7.411  0.8281 -1.9706 -2.5005
   33CHL1   C11 2402   5.547   2.046   7.243  0.1380  0.4713  0.0765
   33CHL1  H11A 2403   5.440   2.046   7.210 -0.0497  0.5646  0.6683
   33CHL1  H11B 2404   5.601   2.117   7.178 -0.5235  1.1052  0.2100
   33CHL1    C9 2405   5.603   1.904   7.243  0.0311  0.0519 -0.1576
   33CHL1    H9 2406   5.710   1.918   7.271 -0.0565 -2.1840  1.6052
   33CHL1   C10 2407   5.612   1.834   7.107  0.2251 -0.0679  0.2047
   33CHL1   C19 2408   5.461   1.825   7.052  0.0183  0.1423 -0.2477
   33CHL1  H19A 2409   5.394   1.770   7.121  0.8499  1.1179  1.4138
   33CHL1  H19B 2410   5.421   1.928   7.042 -0.1438  0.4740  2.8376
   33CHL1  H19C 2411   5.454   1.789   6.947 -0.1430  1.7780 -0.8305
   33CHL1    C1 2412   5.698   1.923   7.008  0.1922 -0.0413 -0.1390
   33CHL1   H1A 2413   5.643   2.017   6.988 -0.2882 -0.9538 -3.9284
   33CHL1   H1B 2414   5.796   1.949   7.053  0.2339  0.8672 -0.7205
   33CHL1    C2 2415   5.735   1.859   6.871  0.2247 -0.0622  0.3474
   33CHL1   H2A 2416   5.809   1.923   6.819 -1.2017  0.5592 -0.9992
   33CHL1   H2B 2417   5.645   1.850   6.807  0.5146  1.8544 -0.4028
   33CHL1   C20 2418   5.380   2.164   7.696  0.5920  0.1384  0.3527
   33CHL1   H20 2419   5.284   2.137   7.646  0.2964  3.0446 -0.8279
   33CHL1   C21 2420   5.416   2.307   7.652 -0.2902  0.0089  0.4314
   33CHL1  H21A 2421   5.436   2.314   7.543  0.9305 -1.7546  0.5082
   33CHL1  H21B 2422   5.510   2.345   7.698 -0.8332 -0.2701  1.8322
   33CHL1  H21C 2423   5.329   2.373   7.674 -1.6512 -1.7721  0.6145
   33CHL1   C22 2424   5.369   2.161   7.852 -0.3591  0.1874 -0.0204
   33CHL1  H22A 2425   5.321   2.067   7.886 -1.8199  0.7429 -0.4269
   33CHL1  H22B 2426   5.467   2.171   7.902 -0.6861  3.0289  0.2368
   33CHL1   C23 2427   5.299   2.283   7.911 -0.2365 -0.6283 -0.3324
   33CHL1  H23A 2428   5.353   2.379   7.892 -0.5961 -0.1441  0.9647
   33CHL1  H23B 2429   5.202   2.281   7.857  0.5109 -1.3372 -1.7068
   33CHL1   C24 2430   5.280   2.269   8.065 -0.3927  0.0471  0.0683
   33CHL1  H24A 2431   5.207   2.187   8.080 -1.0321  0.3580 -1.2089
   33CHL1  H24B 2432   5.378   2.246   8.112  0.9193  0.8295 -2.1503
   33CHL1   C25 2433   5.230   2.394   8.138  0.0481 -0.4993 -0.1625
   33CHL1   H25 2434   5.293   2.479   8.103  0.3768 -1.0511 -0.9548
   33CHL1   C26 2435   5.083   2.428   8.099  0.0871  0.1334  0.1121
   33CHL1  H26A 2436   5.057   2.535   8.114 -2.3553 -0.3247 -0.4351
   33CHL1  H26B 2437   5.068   2.421   7.989  1.7946  0.0043 -0.1450
   33CHL1  H26C 2438   5.011   2.368   8.157  1.2251 -0.5728  0.8347
   33CHL1   C27 2439   5.246   2.388   8.297 -0.4176 -0.0805 -0.3631
   33CHL1  H27A 2440   5.243   2.483   8.355 -0.0586  0.1842 -0.7778
   33CHL1  H27B 2441   5.158   2.330   8.331 -1.2490  0.6658 -1.2069
   33CHL1  H27C 2442   5.345   2.341   8.315 -0.2464 -0.3328 -1.8529
   34CHL1    C3 2443   0.079   0.611   7.104  0.5111  0.4581 -0.1057
   34CHL1    H3 2444   0.066   0.504   7.131 -0.2863  1.4445  4.1360
   34CHL1    O3 2445   0.064   0.648   6.971 -0.1321  0.2404  0.2823
   34CHL1   H3' 2446  -0.019   0.605   6.952  0.5860 -1.5761  1.0028
   34CHL1    C4 2447  -0.008   0.702   7.194 -0.1371  0.8340  0.4662
   34CHL1   H4A 2448   0.034   0.802   7.170  3.3718 -0.7008 -0.3969
   34CHL1   H4B 2449  -0.116   0.696   7.166 -0.8024  1.7631  2.5574
   34CHL1    C5 2450   0.002   0.676   7.345 -0.5410 -0.5822 -0.1677
   34CHL1    C6 2451  -0.106   0.650   7.410  0.2127  0.1130 -0.2971
   34CHL1    H6 2452  -0.208   0.646   7.368  0.1191 -0.8005 -0.0181
   34CHL1    C7 2453  -0.098   0.629   7.560 -0.5111 -0.6467  0.2772
   34CHL1   H7A 2454  -0.179   0.671   7.624 -0.1021 -0.5469  0.7303
   34CHL1   H7B 2455  -0.092   0.521   7.586  2.2233 -0.6526 -0.1355
   34CHL1    C8 2456   0.040   0.667   7.622 -0.3788  1.2016 -0.6243
   34CHL1    H8 2457   0.051   0.778   7.629 -0.5823  1.1901 -0.0944
   34CHL1   C14 2458   0.054   0.616   7.766 -0.1590 -0.0958 -0.7301
   34CHL1   H14 2459   0.044   0.508   7.746 -0.3976 -0.1259 -0.4551
   34CHL1   C15 2460  -0.063   0.656   7.860 -0.7978 -0.3167  0.6665
   34CHL1  H15A 2461  -0.089   0.764   7.852 -3.7845 -0.9409  0.8462
   34CHL1  H15B 2462  -0.150   0.589   7.842 -0.1965 -0.6092 -1.3115
   34CHL1   C16 2463  -0.005   0.637   8.002 -0.5042 -0.1012  0.8169
   34CHL1  H16A 2464  -0.019   0.735   8.052  0.5855  0.5120 -0.0645
   34CHL1  H16B 2465  -0.067   0.556   8.047 -1.5288  0.0127 -0.3336
   34CHL1   C17 2466   0.143   0.586   7.980  0.1271 -0.8927 -0.2387
   34CHL1   H17 2467   0.141   0.475   7.984 -1.6410 -0.9279  4.1053
   34CHL1   C13 2468   0.186   0.646   7.842 -0.0377  0.5541 -0.0146
   34CHL1   C18 2469   0.201   0.798   7.862 -0.7742 -0.6355  0.1434
   34CHL1  H18A 2470   0.114   0.835   7.921  0.0152  2.4854 -0.4593
   34CHL1  H18B 2471   0.299   0.829   7.902 -0.0234 -2.0612 -0.5190
   34CHL1  H18C 2472   0.189   0.859   7.770 -0.5014  1.8700  1.6885
   34CHL1   C12 2473   0.295   0.576   7.762  0.0451  0.2804 -0.0247
   34CHL1  H12A 2474   0.400   0.590   7.794  1.0195  0.6686 -3.0306
   34CHL1  H12B 2475   0.258   0.471   7.770  0.3827  0.2214  0.8549
   34CHL1   C11 2476   0.296   0.618   7.609 -0.2762 -0.1366 -0.5491
   34CHL1  H11A 2477   0.328   0.724   7.622  0.1295 -0.5409  2.6864
   34CHL1  H11B 2478   0.369   0.565   7.545  1.6083  3.4184 -1.6077
   34CHL1    C9 2479   0.151   0.615   7.538 -0.6545  0.0498 -0.6455
   34CHL1    H9 2480   0.121   0.510   7.515 -2.2533  0.2759  0.2489
   34CHL1   C10 2481   0.145   0.687   7.400  0.0845 -0.3804 -0.4063
   34CHL1   C19 2482   0.199   0.831   7.407 -0.2597  0.1048 -0.3748
   34CHL1  H19A 2483   0.137   0.897   7.471 -0.2853 -0.1849 -0.0954
   34CHL1  H19B 2484   0.305   0.840   7.438 -0.1735  0.0850 -0.6627
   34CHL1  H19C 2485   0.190   0.869   7.303 -0.0506  0.8958 -0.1040
   34CHL1    C1 2486   0.231   0.597   7.301 -0.1019  0.1788 -0.2671
   34CHL1   H1A 2487   0.336   0.596   7.337 -0.3197 -0.7954  0.4059
   34CHL1   H1B 2488   0.217   0.487   7.312  3.0247 -0.4305 -1.4607
   34CHL1    C2 2489   0.226   0.641   7.156 -0.1081  0.0970  0.2263
   34CHL1   H2A 2490   0.303   0.587   7.097 -0.8514  0.8699 -1.5489
   34CHL1   H2B 2491   0.246   0.750   7.146  0.1999  0.0171 -0.0604
   34CHL1   C20 2492   0.233   0.620   8.103 -0.2806  0.5755 -0.1204
   34CHL1   H20 2493   0.237   0.729   8.126 -0.5889  0.2690  1.5154
   34CHL1   C21 2494   0.377   0.568   8.086  0.3915 -0.0389 -0.4315
   34CHL1  H21A 2495   0.356   0.460   8.065 -0.3711  0.1741 -0.8053
   34CHL1  H21B 2496   0.437   0.577   8.179 -0.4621 -1.1931  0.2642
   34CHL1  H21C 2497   0.436   0.602   7.999  2.0710  0.7005  0.9523
   34CHL1   C22 2498   0.165   0.555   8.223  0.8645 -0.0506 -0.2107
   34CHL1  H22A 2499   0.069   0.609   8.240  1.7554  1.3068  0.6854
   34CHL1  H22B 2500   0.149   0.445   8.212 -1.1727  0.2564 -0.6644
   34CHL1   C23 2501   0.246   0.571   8.352 -0.8576  0.2128  0.5285
   34CHL1  H23A 2502   0.319   0.488   8.336 -2.8511 -1.8158  1.4122
   34CHL1  H23B 2503   0.284   0.675   8.359 -0.7971  0.5534 -3.0377
   34CHL1   C24 2504   0.176   0.513   8.477  0.5533 -0.2347  0.2937
   34CHL1  H24A 2505   0.138   0.411   8.454  0.2041 -0.8615  3.1560
   34CHL1  H24B 2506   0.250   0.510   8.561  2.1086  0.3374 -0.9994
   34CHL1   C25 2507   0.052   0.588   8.523  0.1952  0.2401  0.0382
   34CHL1   H25 2508  -0.018   0.599   8.438  1.6044  0.6031 -1.1303
   34CHL1   C26 2509  -0.013   0.522   8.649 -0.2816  0.0534 -0.3887
   34CHL1  H26A 2510  -0.042   0.417   8.628  1.5290 -1.2969  3.0061
   34CHL1  H26B 2511   0.046   0.526   8.743 -0.6550  2.2892 -0.2001
   34CHL1  H26C 2512  -0.108   0.577   8.666  0.2606  0.2851  2.3753
   34CHL1   C27 2513   0.079   0.744   8.558  0.3217 -0.2384  0.0322
   34CHL1  H27A 2514  -0.016   0.801   8.571 -0.5924 -0.8631 -2.9398
   34CHL1  H27B 2515   0.149   0.752   8.643  0.1748 -0.4130  0.1718
   34CHL1  H27C 2516   0.119   0.793   8.467  0.1924  0.5170  0.3744
   35CHL1    C3 2517   3.265   1.120   7.257  0.3147  0.1919 -0.0878
   35CHL1    H3 2518   3.233   1.225   7.273 -1.0648  0.3531 -3.1413
   35CHL1    O3 2519   3.310   1.102   7.122  0.2882 -0.1578 -0.2006
   35CHL1   H3' 2520   3.297   1.008   7.107 -0.8255 -0.4342  2.0840
   35CHL1    C4 2521   3.374   1.082   7.355  0.8738 -0.1392 -0.7967
   35CHL1   H4A 2522   3.406   0.978   7.333 -1.6598 -0.8526 -1.4787
   35CHL1   H4B 2523   3.464   1.144   7.335 -0.0871  1.5642 -0.0846
   35CHL1    C5 2524   3.323   1.105   7.493  0.6974 -0.5129 -0.7060
   35CHL1    C6 2525   3.400   1.180   7.582  0.3467 -0.1472 -0.0899
   35CHL1    H6 2526   3.498   1.218   7.551  1.7988 -2.3721  1.4531
   35CHL1    C7 2527   3.372   1.192   7.725 -0.4676 -0.2126 -0.3802
   35CHL1   H7A 2528   3.472   1.191   7.774 -0.6910 -0.1941  0.0839
   35CHL1   H7B 2529   3.318   1.285   7.752 -1.9728 -1.6933  2.2021
   35CHL1    C8 2530   3.278   1.083   7.778 -0.3412  0.6448 -0.0906
   35CHL1    H8 2531   3.341   0.993   7.794 -0.4027  0.9679  2.4750
   35CHL1   C14 2532   3.226   1.128   7.912  0.2545 -0.0299 -0.1905
   35CHL1   H14 2533   3.162   1.214   7.886  1.3676 -0.1721 -3.9060
   35CHL1   C15 2534   3.324   1.186   8.018 -0.0785 -0.0342  0.0683
   35CHL1  H15A 2535   3.417   1.126   8.023 -0.2518 -0.2436  1.0622
   35CHL1  H15B 2536   3.338   1.294   7.995 -1.6127  0.2039  0.1544
   35CHL1   C16 2537   3.251   1.168   8.150 -0.6971 -0.1331  0.0875
   35CHL1  H16A 2538   3.305   1.095   8.213  0.1549  0.7547  0.3976
   35CHL1  H16B 2539   3.253   1.267   8.199 -0.8501  0.4235 -1.0043
   35CHL1   C17 2540   3.110   1.114   8.113 -0.4272  0.3782  1.2371
   35CHL1   H17 2541   3.049   1.205   8.093  1.0628  1.0594 -0.5164
   35CHL1   C13 2542   3.130   1.032   7.982 -0.7613  0.4602 -0.1765
   35CHL1   C18 2543   3.205   0.903   8.011 -0.0196  0.6632  0.3128
   35CHL1  H18A 2544   3.293   0.911   8.078  1.6578 -0.1672 -1.6769
   35CHL1  H18B 2545   3.134   0.823   8.043  0.3660 -0.2175 -0.9441
   35CHL1  H18C 2546   3.248   0.859   7.918 -1.0670  0.1151  0.0715
   35CHL1   C12 2547   3.013   1.021   7.885  0.2884 -0.1908  0.6767
   35CHL1  H12A 2548   2.934   0.955   7.928 -2.0947  0.6469 -2.1202
   35CHL1  H12B 2549   2.975   1.125   7.881  2.4625  0.6400  0.4966
   35CHL1   C11 2550   3.046   0.980   7.742  0.2739  0.0576  0.5419
   35CHL1  H11A 2551   3.066   0.871   7.746 -0.5790 -0.1119  0.5341
   35CHL1  H11B 2552   2.959   0.985   7.672  1.0590 -0.6631 -0.5175
   35CHL1    C9 2553   3.158   1.064   7.676 -0.1151 -0.7398 -0.5874
   35CHL1    H9 2554   3.121   1.169   7.669  1.4203 -0.0986  0.4725
   35CHL1   C10 2555   3.203   1.023   7.536 -0.3031  0.4486 -0.2437
   35CHL1   C19 2556   3.234   0.871   7.532  0.2385 -0.8762 -0.5768
   35CHL1  H19A 2557   3.279   0.834   7.437  2.2043 -0.0041 -0.0258
   35CHL1  H19B 2558   3.299   0.852   7.620 -0.4655  1.0560  0.4235
   35CHL1  H19C 2559   3.140   0.818   7.556  0.6383 -0.8106  1.2217
   35CHL1    C1 2560   3.092   1.060   7.431  0.0757  0.0873  0.0379
   35CHL1   H1A 2561   3.009   0.987   7.447 -0.3015  0.8926  2.0163
   35CHL1   H1B 2562   3.064   1.167   7.445  0.9811  0.6175 -1.9013
   35CHL1    C2 2563   3.141   1.031   7.283  0.2871 -0.1328  0.1361
   35CHL1   H2A 2564   3.064   1.048   7.205  1.0273 -1.1688 -0.8557
   35CHL1   H2B 2565   3.185   0.929   7.278 -0.0224 -0.3027  0.8222
   35CHL1   C20 2566   3.044   1.053   8.232 -0.3860  0.0645  0.3716
   35CHL1   H20 2567   3.107   0.968   8.266 -0.4510 -0.1283  0.0087
   35CHL1   C21 2568   2.890   1.028   8.210 -0.2714 -0.0205  0.4272
   35CHL1  H21A 2569   2.885   0.944   8.137  0.1217  0.2887  0.0382
   35CHL1  H21B 2570   2.836   1.112   8.162  0.3414  0.4930  0.6313
   35CHL1  H21C 2571   2.838   0.993   8.302  0.0984 -2.6268 -0.2663
   35CHL1   C22 2572   3.056   1.145   8.355 -1.2588 -0.8351  0.0178
   35CHL1  H22A 2573   3.163   1.172   8.374 -2.0834  0.9749  2.6009
   35CHL1  H22B 2574   3.010   1.246   8.348  2.4044  1.1672  1.7034
   35CHL1   C23 2575   3.020   1.086   8.488 -0.2705 -0.2672 -0.3510
   35CHL1  H23A 2576   3.062   1.154   8.565  2.3836 -0.4006 -1.5690
   35CHL1  H23B 2577   2.910   1.074   8.502 -0.3721 -0.7756 -1.4854
   35CHL1   C24 2578   3.104   0.957   8.511  0.0908 -0.4652 -0.0929
   35CHL1  H24A 2579   3.052   0.885   8.444  1.1309 -0.0448 -1.3956
   35CHL1  H24B 2580   3.208   0.962   8.475  0.5755 -0.2670  1.2627
   35CHL1   C25 2581   3.091   0.907   8.656 -0.3305  0.1030  0.0988
   35CHL1   H25 2582   3.009   0.966   8.702  1.0230  1.1247  1.3192
   35CHL1   C26 2583   3.082   0.751   8.658  0.1169  0.1883 -0.1647
   35CHL1  H26A 2584   3.173   0.709   8.610 -0.5903  1.7852 -3.1427
   35CHL1  H26B 2585   3.093   0.711   8.761  0.3581  0.7847  0.0437
   35CHL1  H26C 2586   2.988   0.719   8.608 -2.1060  2.5013  2.2476
   35CHL1   C27 2587   3.218   0.951   8.732 -0.2677  0.0512 -0.4045
   35CHL1  H27A 2588   3.309   0.890   8.714  1.0365  0.8712  2.8213
   35CHL1  H27B 2589   3.209   0.967   8.841  4.4641 -0.9112  0.3581
   35CHL1  H27C 2590   3.247   1.051   8.695  1.7779 -0.7615 -1.1701
   36CHL1    C3 2591   4.312   0.971   6.995  0.7481 -0.1097  0.2364
   36CHL1    H3 2592   4.377   1.057   7.022  0.2719  0.0057  1.0451
   36CHL1    O3 2593   4.302   0.959   6.849 -0.1744 -0.4236  0.1001
   36CHL1   H3' 2594   4.275   1.043   6.812 -0.3290 -0.3265  0.4238
   36CHL1    C4 2595   4.374   0.842   7.044  0.4237 -0.3300 -0.1382
   36CHL1   H4A 2596   4.313   0.764   6.996  0.0954  1.0321 -2.0525
   36CHL1   H4B 2597   4.472   0.855   6.992 -0.0327  0.0792 -0.9094
   36CHL1    C5 2598   4.376   0.844   7.193 -0.2642  0.2195  0.4567
   36CHL1    C6 2599   4.495   0.829   7.256  0.4393  0.4569  0.9024
   36CHL1    H6 2600   4.588   0.808   7.201  0.2795  2.3299 -0.1755
   36CHL1    C7 2601   4.510   0.827   7.406 -0.6995  0.2949  0.4242
   36CHL1   H7A 2602   4.575   0.748   7.449  1.1227  0.5962 -1.6128
   36CHL1   H7B 2603   4.556   0.922   7.440 -1.0347 -0.1524  2.2174
   36CHL1    C8 2604   4.363   0.812   7.474 -0.5761 -0.2869  0.4392
   36CHL1    H8 2605   4.336   0.705   7.464  3.6471 -1.3343 -2.4026
   36CHL1   C14 2606   4.374   0.839   7.622  0.4266  0.7932 -0.5098
   36CHL1   H14 2607   4.411   0.943   7.631 -0.8327  1.0846  3.6988
   36CHL1   C15 2608   4.479   0.750   7.698 -0.6704 -0.2071  0.5454
   36CHL1  H15A 2609   4.462   0.644   7.669  0.5253 -0.2563 -0.0312
   36CHL1  H15B 2610   4.582   0.780   7.670 -0.8249 -1.2356 -1.2212
   36CHL1   C16 2611   4.429   0.775   7.845  0.3651 -0.6420  0.1131
   36CHL1  H16A 2612   4.408   0.675   7.889  2.2383 -1.0175  0.2120
   36CHL1  H16B 2613   4.502   0.820   7.914  0.3107 -0.4871  0.0698
   36CHL1   C17 2614   4.302   0.866   7.835  0.1173  0.5177 -0.8596
   36CHL1   H17 2615   4.351   0.965   7.830 -0.2913  0.8995  1.5512
   36CHL1   C13 2616   4.246   0.838   7.695  0.0727 -0.6749  0.5718
   36CHL1   C18 2617   4.185   0.699   7.691 -0.1321  0.1105 -0.6655
   36CHL1  H18A 2618   4.177   0.650   7.591  0.5140 -3.3981  0.8550
   36CHL1  H18B 2619   4.252   0.626   7.741  0.1599  0.8684  0.0617
   36CHL1  H18C 2620   4.086   0.691   7.741 -0.1578 -2.3776 -0.9994
   36CHL1   C12 2621   4.147   0.938   7.636  0.0835 -0.0900  0.6229
   36CHL1  H12A 2622   4.055   0.962   7.694 -1.6160  1.2192 -2.3703
   36CHL1  H12B 2623   4.199   1.036   7.635  0.9391 -0.4958  2.2851
   36CHL1   C11 2624   4.121   0.904   7.489  0.4060  0.2044  0.2083
   36CHL1  H11A 2625   4.087   0.799   7.480  4.0941 -1.0559 -0.6923
   36CHL1  H11B 2626   4.046   0.981   7.457  0.1597  0.2209  0.8140
   36CHL1    C9 2627   4.256   0.909   7.404  0.0764  0.1686  0.2799
   36CHL1    H9 2628   4.301   1.009   7.417 -2.5765  1.6343 -1.0732
   36CHL1   C10 2629   4.246   0.884   7.257  0.9760 -0.1044  0.1706
   36CHL1   C19 2630   4.152   0.759   7.240 -0.1403 -0.3278 -0.9246
   36CHL1  H19A 2631   4.172   0.677   7.312 -2.9177  1.2620  1.9510
   36CHL1  H19B 2632   4.052   0.797   7.272 -0.0600  0.0672 -1.1317
   36CHL1  H19C 2633   4.137   0.724   7.135 -2.2524 -0.1957 -0.7270
   36CHL1    C1 2634   4.175   1.006   7.190  0.3556  0.2376  0.0452
   36CHL1   H1A 2635   4.074   1.022   7.233  0.5055  0.4072  0.3334
   36CHL1   H1B 2636   4.242   1.091   7.213  0.3036  0.9702 -2.2847
   36CHL1    C2 2637   4.167   0.986   7.038 -0.1221 -1.0919 -0.8934
   36CHL1   H2A 2638   4.119   1.075   6.992 -1.3549 -1.3881 -0.2227
   36CHL1   H2B 2639   4.104   0.899   7.011 -0.9513 -0.5810 -0.6303
   36CHL1   C20 2640   4.200   0.865   7.948  0.6091 -0.0924  0.0290
   36CHL1   H20 2641   4.101   0.833   7.909  0.0720  1.6388 -0.0985
   36CHL1   C21 2642   4.188   1.008   7.998  0.1080 -0.3902 -0.2525
   36CHL1  H21A 2643   4.158   1.068   7.910 -0.2741 -0.3394 -0.0884
   36CHL1  H21B 2644   4.283   1.041   8.046  0.1356  0.6438 -0.9875
   36CHL1  H21C 2645   4.106   1.021   8.072  1.5542 -1.1768  1.5804
   36CHL1   C22 2646   4.222   0.775   8.064  0.3449 -0.4391 -0.5590
   36CHL1  H22A 2647   4.238   0.671   8.028 -2.7680 -1.1862 -0.0610
   36CHL1  H22B 2648   4.302   0.819   8.127  0.3141 -2.4349  0.9965
   36CHL1   C23 2649   4.105   0.763   8.169 -0.8320 -0.4142 -0.0762
   36CHL1  H23A 2650   4.072   0.864   8.203  0.3117  0.3455 -1.0950
   36CHL1  H23B 2651   4.032   0.704   8.110  0.8415 -1.1444 -1.4823
   36CHL1   C24 2652   4.133   0.686   8.297  0.1814 -0.1632  0.2988
   36CHL1  H24A 2653   4.200   0.602   8.265 -0.3209 -0.1661 -0.8060
   36CHL1  H24B 2654   4.183   0.747   8.375  1.0169 -0.0606 -0.3049
   36CHL1   C25 2655   3.997   0.631   8.364  0.4522  0.1168  0.0918
   36CHL1   H25 2656   3.923   0.714   8.367  1.2788  0.8574  0.9316
   36CHL1   C26 2657   3.936   0.515   8.280 -0.0766  0.4013  0.3851
   36CHL1  H26A 2658   3.855   0.471   8.341  3.0996 -1.3846  3.6717
   36CHL1  H26B 2659   3.888   0.553   8.187  0.9841  1.4289  0.2218
   36CHL1  H26C 2660   4.010   0.436   8.255 -0.9399 -0.4417  0.4627
   36CHL1   C27 2661   4.013   0.585   8.508 -1.2000 -0.1290  0.4888
   36CHL1  H27A 2662   4.085   0.500   8.502 -1.0718 -0.2478  2.9297
   36CHL1  H27B 2663   4.070   0.660   8.566  0.1023 -0.1842 -0.6685
   36CHL1  H27C 2664   3.920   0.556   8.562 -1.6014 -1.1457 -0.6956
   37CHL1    C3 2665   0.319   3.765   6.978 -0.0124  0.3515  0.1099
   37CHL1    H3 2666   0.248   3.849   7.000  1.0455  1.4926 -0.6942
   37CHL1    O3 2667   0.289   3.719   6.848 -0.1784  0.5337  0.2978
   37CHL1   H3' 2668   0.299   3.793   6.788 -0.2180 -0.9948 -1.7081
   37CHL1    C4 2669   0.454   3.816   6.978  0.3835  0.4378  0.1010
   37CHL1   H4A 2670   0.523   3.740   6.935 -0.9752 -1.0074  0.3762
   37CHL1   H4B 2671   0.453   3.890   6.895 -1.6866 -1.5089 -1.7847
   37CHL1    C5 2672   0.505   3.865   7.109 -0.0794 -0.4532  0.3106
   37CHL1    C6 2673   0.551   3.994   7.117  0.0975 -0.1040 -0.0185
   37CHL1    H6 2674   0.561   4.067   7.035  1.2931  0.2001  0.3933
   37CHL1    C7 2675   0.570   4.052   7.251  1.2233 -0.3592  0.1024
   37CHL1   H7A 2676   0.668   4.105   7.246  0.8788  0.4174  1.1418
   37CHL1   H7B 2677   0.497   4.131   7.277 -0.6407 -2.2942  1.0579
   37CHL1    C8 2678   0.584   3.961   7.371 -0.4009  0.0992 -0.2838
   37CHL1    H8 2679   0.687   3.921   7.360 -0.4633 -0.0801 -0.2253
   37CHL1   C14 2680   0.576   4.042   7.505  0.4845  0.3761  0.7699
   37CHL1   H14 2681   0.475   4.087   7.518  0.5066  0.6577  0.0423
   37CHL1   C15 2682   0.663   4.169   7.506 -0.5959  0.1186 -0.1151
   37CHL1  H15A 2683   0.760   4.138   7.461 -0.2900 -0.3216  0.8281
   37CHL1  H15B 2684   0.611   4.255   7.459 -1.9563 -1.2122 -1.1116
   37CHL1   C16 2685   0.669   4.187   7.658 -0.0402  0.2808  0.1996
   37CHL1  H16A 2686   0.775   4.207   7.685 -0.0017  0.4186 -0.0565
   37CHL1  H16B 2687   0.615   4.271   7.707 -0.0532  0.6356 -0.4155
   37CHL1   C17 2688   0.612   4.060   7.733  0.5079 -0.0157  0.3729
   37CHL1   H17 2689   0.506   4.078   7.759  1.1291  2.0877  1.6700
   37CHL1   C13 2690   0.601   3.954   7.623  0.1076  0.0333 -0.0184
   37CHL1   C18 2691   0.736   3.872   7.630 -0.0666  0.2291  0.4037
   37CHL1  H18A 2692   0.744   3.803   7.716  2.4110  0.2782  0.2864
   37CHL1  H18B 2693   0.755   3.814   7.537  1.9757  0.8989  0.3385
   37CHL1  H18C 2694   0.824   3.939   7.619 -0.0014 -0.0092 -0.6811
   37CHL1   C12 2695   0.484   3.848   7.623 -0.6879 -0.1401  0.7938
   37CHL1  H12A 2696   0.484   3.783   7.713 -1.1330 -0.6625  0.4252
   37CHL1  H12B 2697   0.390   3.908   7.626 -0.5739  0.0463  0.6202
   37CHL1   C11 2698   0.488   3.758   7.495  0.6496 -0.7373  1.1493
   37CHL1  H11A 2699   0.585   3.704   7.495  0.7727 -0.5400  0.0149
   37CHL1  H11B 2700   0.404   3.686   7.491 -0.4956  0.6246 -1.5201
   37CHL1    C9 2701   0.475   3.854   7.371 -0.3089  0.7574  0.1242
   37CHL1    H9 2702   0.375   3.900   7.381 -1.1492 -0.0087 -3.3752
   37CHL1   C10 2703   0.477   3.769   7.228  0.8696  0.6442  0.0068
   37CHL1   C19 2704   0.595   3.666   7.231 -0.0262 -0.7578  0.0064
   37CHL1  H19A 2705   0.685   3.729   7.250 -0.0951  0.1882 -2.4798
   37CHL1  H19B 2706   0.586   3.584   7.305 -1.5212  1.0284  1.9200
   37CHL1  H19C 2707   0.601   3.604   7.140  0.1390 -0.9765  0.1654
   37CHL1    C1 2708   0.341   3.697   7.216 -0.7500 -0.2684  0.3248
   37CHL1   H1A 2709   0.347   3.614   7.289 -0.3985  1.3751  2.2715
   37CHL1   H1B 2710   0.256   3.760   7.249 -0.9877 -0.1135 -0.5703
   37CHL1    C2 2711   0.310   3.655   7.079  0.1750 -0.1288  0.4571
   37CHL1   H2A 2712   0.202   3.632   7.079 -0.4238  2.3165 -0.8270
   37CHL1   H2B 2713   0.384   3.582   7.041  0.9376  1.1896 -0.6819
   37CHL1   C20 2714   0.674   4.027   7.871  0.2896  0.8277 -0.0548
   37CHL1   H20 2715   0.781   4.007   7.848  0.8048  3.1176  0.1249
   37CHL1   C21 2716   0.592   3.915   7.934 -0.1907  0.2918  0.0652
   37CHL1  H21A 2717   0.621   3.816   7.894 -1.4240 -0.2911  0.5423
   37CHL1  H21B 2718   0.485   3.932   7.909  0.0831  3.6286  0.7784
   37CHL1  H21C 2719   0.617   3.900   8.042 -0.2582 -0.3768 -0.0047
   37CHL1   C22 2720   0.663   4.149   7.964 -0.8756  0.8623  0.6977
   37CHL1  H22A 2721   0.709   4.236   7.911  1.5508 -0.1746  1.0068
   37CHL1  H22B 2722   0.559   4.180   7.990 -1.3668 -1.0922  1.2172
   37CHL1   C23 2723   0.746   4.133   8.091 -0.3484 -0.2463  0.3555
   37CHL1  H23A 2724   0.699   4.054   8.154  0.9665 -0.8717  0.5947
   37CHL1  H23B 2725   0.843   4.089   8.059 -1.0967 -0.9984 -0.9836
   37CHL1   C24 2726   0.757   4.262   8.174  0.9742  0.0034  0.2675
   37CHL1  H24A 2727   0.812   4.326   8.103 -0.7849  0.8829 -0.3747
   37CHL1  H24B 2728   0.655   4.307   8.181  1.1927  0.4113  0.9117
   37CHL1   C25 2729   0.806   4.243   8.316 -0.2320  0.6307 -0.0236
   37CHL1   H25 2730   0.910   4.203   8.307 -0.7849 -0.6784 -0.9624
   37CHL1   C26 2731   0.805   4.364   8.411  0.8061  0.1624  0.2480
   37CHL1  H26A 2732   0.847   4.449   8.355 -0.2826 -0.1029 -1.0107
   37CHL1  H26B 2733   0.701   4.395   8.436  1.1918  2.4187 -0.7015
   37CHL1  H26C 2734   0.868   4.342   8.501  2.2791  0.0849 -0.7725
   37CHL1   C27 2735   0.729   4.140   8.395  0.6119  0.0476  0.2242
   37CHL1  H27A 2736   0.618   4.150   8.391  0.7353  1.0071 -2.0917
   37CHL1  H27B 2737   0.751   4.038   8.356  1.6683  0.7459 -1.0923
   37CHL1  H27C 2738   0.769   4.142   8.499 -1.0100  1.8280  0.8832
   38CHL1    C3 2739   4.290   4.744   6.675  0.0756  0.2415  0.9184
   38CHL1    H3 2740   4.378   4.810   6.690  1.9612 -2.4062  2.3230
   38CHL1    O3 2741   4.261   4.724   6.538 -0.2177  0.2050 -0.1031
   38CHL1   H3' 2742   4.199   4.651   6.548 -0.5340  0.4116 -0.5407
   38CHL1    C4 2743   4.323   4.604   6.727 -0.8550 -0.4324  0.1567
   38CHL1   H4A 2744   4.261   4.517   6.695 -0.2792 -0.8896  0.2572
   38CHL1   H4B 2745   4.419   4.571   6.683 -1.4595 -0.6382 -1.0340
   38CHL1    C5 2746   4.333   4.604   6.880 -1.0784  0.4021 -0.4924
   38CHL1    C6 2747   4.447   4.574   6.938 -0.0292 -0.2157 -0.3521
   38CHL1    H6 2748   4.527   4.541   6.870  0.1528  2.3995 -1.5429
   38CHL1    C7 2749   4.461   4.570   7.089  0.0987  0.3842  0.3026
   38CHL1   H7A 2750   4.510   4.475   7.119 -0.4388 -0.3605 -1.0523
   38CHL1   H7B 2751   4.535   4.642   7.130 -0.0738 -0.5414  2.3330
   38CHL1    C8 2752   4.321   4.589   7.165 -0.1281  0.3866 -0.3784
   38CHL1    H8 2753   4.271   4.490   7.157  0.9106 -0.2574  0.8527
   38CHL1   C14 2754   4.347   4.614   7.309  0.1258  0.4267 -1.0944
   38CHL1   H14 2755   4.414   4.702   7.318 -1.9084  1.9117  0.3209
   38CHL1   C15 2756   4.433   4.506   7.381 -0.4379  0.4171  0.3694
   38CHL1  H15A 2757   4.408   4.402   7.350  0.8253 -0.4706  2.1917
   38CHL1  H15B 2758   4.543   4.520   7.380 -0.6932  2.8193  0.3747
   38CHL1   C16 2759   4.392   4.514   7.525  0.1785 -0.0347 -0.3540
   38CHL1  H16A 2760   4.359   4.415   7.564 -0.7795 -0.1937 -1.5203
   38CHL1  H16B 2761   4.477   4.555   7.583  0.2212  0.3048 -0.6540
   38CHL1   C17 2762   4.289   4.627   7.538  0.3046 -0.4345  0.7975
   38CHL1   H17 2763   4.348   4.720   7.557  0.5716 -0.2241 -0.8941
   38CHL1   C13 2764   4.223   4.633   7.393  0.0531  0.0245 -0.9392
   38CHL1   C18 2765   4.134   4.506   7.384  0.4794  0.2728  0.0092
   38CHL1  H18A 2766   4.079   4.491   7.288 -1.3806 -0.4193  1.1169
   38CHL1  H18B 2767   4.187   4.409   7.382 -0.3789 -0.3777  3.1925
   38CHL1  H18C 2768   4.053   4.508   7.460  0.1322  0.4679 -0.3600
   38CHL1   C12 2769   4.144   4.764   7.339  0.1428 -0.3344 -0.2158
   38CHL1  H12A 2770   4.045   4.766   7.391  1.7776 -2.4296  3.3104
   38CHL1  H12B 2771   4.211   4.852   7.346 -0.4712  0.2639 -1.4632
   38CHL1   C11 2772   4.110   4.748   7.191 -0.4869  0.3829  0.0371
   38CHL1  H11A 2773   4.028   4.675   7.174 -0.2312  0.2180 -0.4942
   38CHL1  H11B 2774   4.079   4.847   7.151 -0.4178  0.7342  0.8313
   38CHL1    C9 2775   4.238   4.700   7.110  0.2171  0.0465 -0.8433
   38CHL1    H9 2776   4.302   4.791   7.106 -1.2008  1.0918 -0.5129
   38CHL1   C10 2777   4.212   4.670   6.957  0.0204  1.1527 -0.0508
   38CHL1   C19 2778   4.098   4.564   6.943 -0.1005  0.2076  0.0358
   38CHL1  H19A 2779   4.010   4.589   7.007  0.5124 -1.9347  1.8586
   38CHL1  H19B 2780   4.053   4.560   6.842 -1.7162  0.8238  0.6959
   38CHL1  H19C 2781   4.130   4.463   6.975 -0.4113 -0.1600 -0.7887
   38CHL1    C1 2782   4.168   4.801   6.884 -0.5301 -0.0020 -0.5758
   38CHL1   H1A 2783   4.068   4.819   6.929 -0.2222  0.4719 -0.0797
   38CHL1   H1B 2784   4.244   4.876   6.914  1.6603 -2.1312 -0.4271
   38CHL1    C2 2785   4.159   4.791   6.738  0.6442 -0.2799  0.1579
   38CHL1   H2A 2786   4.138   4.891   6.693 -2.0269 -0.7673  0.1867
   38CHL1   H2B 2787   4.082   4.719   6.704 -0.9223  1.8633 -1.0708
   38CHL1   C20 2788   4.190   4.619   7.651 -0.5318 -0.2627  0.1570
   38CHL1   H20 2789   4.117   4.538   7.629 -0.8022  0.4364 -1.7230
   38CHL1   C21 2790   4.114   4.758   7.680  0.0029 -0.3488 -0.0876
   38CHL1  H21A 2791   4.055   4.795   7.594 -1.0511  2.0564  1.5524
   38CHL1  H21B 2792   4.186   4.839   7.703  0.8022 -1.0810  0.0386
   38CHL1  H21C 2793   4.049   4.742   7.769 -0.6015 -1.6920 -0.7390
   38CHL1   C22 2794   4.263   4.586   7.788  0.4733  0.5726  0.5859
   38CHL1  H22A 2795   4.182   4.590   7.864 -1.4131  1.0084 -1.3269
   38CHL1  H22B 2796   4.313   4.487   7.790 -0.5039  0.0119 -0.6912
   38CHL1   C23 2797   4.365   4.680   7.840 -0.2457 -0.8259 -0.3236
   38CHL1  H23A 2798   4.454   4.700   7.777  1.6771  2.1933  2.9553
   38CHL1  H23B 2799   4.316   4.779   7.847 -3.2004 -1.8309 -3.7360
   38CHL1   C24 2800   4.424   4.635   7.977 -0.9382 -0.5648 -0.0108
   38CHL1  H24A 2801   4.476   4.538   7.960 -1.9314 -1.0427 -0.4425
   38CHL1  H24B 2802   4.499   4.711   8.008 -1.7150  0.5260 -0.7332
   38CHL1   C25 2803   4.330   4.622   8.100 -0.9624  0.7187  0.3438
   38CHL1   H25 2804   4.256   4.548   8.062  0.1311  0.6148 -1.6933
   38CHL1   C26 2805   4.398   4.548   8.217  0.9117 -0.2333  0.0122
   38CHL1  H26A 2806   4.463   4.624   8.265 -1.6227  1.2948  1.2386
   38CHL1  H26B 2807   4.328   4.519   8.299  1.6508 -1.3454  0.2750
   38CHL1  H26C 2808   4.448   4.458   8.175  0.2578 -0.1387 -0.9884
   38CHL1   C27 2809   4.283   4.763   8.138 -0.2794 -0.2285 -0.1325
   38CHL1  H27A 2810   4.239   4.813   8.049 -0.6208 -4.8932 -2.9599
   38CHL1  H27B 2811   4.195   4.745   8.204 -0.2911  2.2488  0.6126
   38CHL1  H27C 2812   4.371   4.823   8.171  0.2274 -0.2582 -1.3594
   39CHL1    C3 2813   3.533   3.553   6.783  0.5843 -0.6695  0.1330
   39CHL1    H3 2814   3.616   3.620   6.814 -0.7426  0.9887  0.2454
   39CHL1    O3 2815   3.536   3.514   6.645  0.1853  0.4223  0.5630
   39CHL1   H3' 2816   3.489   3.580   6.594 -0.6229 -0.1552  0.5289
   39CHL1    C4 2817   3.548   3.428   6.869 -0.1179 -0.5615 -0.3515
   39CHL1   H4A 2818   3.461   3.367   6.836  0.4994 -0.8831 -1.3981
   39CHL1   H4B 2819   3.644   3.375   6.855  0.3140  0.0069  0.3604
   39CHL1    C5 2820   3.539   3.457   7.017 -0.1405  0.0090  0.4595
   39CHL1    C6 2821   3.642   3.411   7.098 -0.2737  0.5278  0.1814
   39CHL1    H6 2822   3.725   3.344   7.073  0.5574  1.1595  1.1060
   39CHL1    C7 2823   3.642   3.442   7.244 -0.8716  0.1813  0.1745
   39CHL1   H7A 2824   3.659   3.351   7.306  0.3920  2.1536  2.9383
   39CHL1   H7B 2825   3.721   3.516   7.270  0.4649 -0.9774 -0.4522
   39CHL1    C8 2826   3.512   3.501   7.303  0.4644  0.5907  0.2768
   39CHL1    H8 2827   3.446   3.412   7.313  0.2456  0.6376 -0.6403
   39CHL1   C14 2828   3.543   3.572   7.432 -0.1876 -0.7447 -0.1252
   39CHL1   H14 2829   3.597   3.662   7.395  0.2797 -1.6294 -1.7210
   39CHL1   C15 2830   3.629   3.510   7.540 -0.0848 -0.2829 -0.4828
   39CHL1  H15A 2831   3.590   3.408   7.561 -0.0101 -0.2261 -0.0566
   39CHL1  H15B 2832   3.736   3.503   7.508  0.4204 -1.6472  1.3273
   39CHL1   C16 2833   3.601   3.592   7.667  0.1431  0.1619 -0.2526
   39CHL1  H16A 2834   3.560   3.524   7.745  2.6182 -1.5524 -0.3120
   39CHL1  H16B 2835   3.691   3.643   7.706 -0.1334  0.4323  0.0388
   39CHL1   C17 2836   3.483   3.691   7.628  0.5576  0.2261 -0.5256
   39CHL1   H17 2837   3.540   3.778   7.592 -0.3957  1.1052  0.0300
   39CHL1   C13 2838   3.424   3.625   7.501  0.2549 -0.3802 -0.2216
   39CHL1   C18 2839   3.328   3.516   7.545  0.2817 -0.2392 -0.2487
   39CHL1  H18A 2840   3.311   3.440   7.466 -0.0358 -1.0513  0.5891
   39CHL1  H18B 2841   3.371   3.457   7.629 -0.1209 -0.7268 -0.3832
   39CHL1  H18C 2842   3.236   3.568   7.579  0.6451  0.2949 -0.0714
   39CHL1   C12 2843   3.354   3.733   7.404 -0.7733  0.1744 -0.8277
   39CHL1  H12A 2844   3.268   3.791   7.444  1.3795  1.9651  1.5557
   39CHL1  H12B 2845   3.428   3.816   7.408 -0.6557  0.1246 -1.6794
   39CHL1   C11 2846   3.320   3.676   7.264 -0.3707 -0.3806  0.2362
   39CHL1  H11A 2847   3.238   3.602   7.274  0.1239 -1.5985 -3.3448
   39CHL1  H11B 2848   3.279   3.760   7.203 -0.4734 -0.6829 -0.1161
   39CHL1    C9 2849   3.450   3.606   7.204  0.0362 -0.6116 -0.3000
   39CHL1    H9 2850   3.526   3.687   7.195 -1.7542  1.2012 -0.0651
   39CHL1   C10 2851   3.420   3.543   7.064 -0.1513 -0.4389  0.3227
   39CHL1   C19 2852   3.296   3.450   7.074 -0.1534 -0.5540  0.5372
   39CHL1  H19A 2853   3.279   3.385   6.985 -1.1880  0.7495 -0.2586
   39CHL1  H19B 2854   3.305   3.381   7.161 -1.2411  1.2396  2.1354
   39CHL1  H19C 2855   3.197   3.498   7.089  0.0416  0.0375 -0.0466
   39CHL1    C1 2856   3.394   3.669   6.967  0.4564  0.5535  0.1088
   39CHL1   H1A 2857   3.295   3.713   6.993 -0.6966 -1.2860 -0.8794
   39CHL1   H1B 2858   3.475   3.743   6.983  0.1194  0.7421  0.9644
   39CHL1    C2 2859   3.406   3.638   6.817  1.0345  0.1654 -0.3034
   39CHL1   H2A 2860   3.404   3.735   6.762 -1.1671  1.4255  1.8296
   39CHL1   H2B 2861   3.321   3.571   6.792  2.4940 -2.2520  0.8842
   39CHL1   C20 2862   3.390   3.710   7.750 -0.1037 -0.0791  0.1730
   39CHL1   H20 2863   3.341   3.615   7.780 -0.7011  0.1067 -0.2073
   39CHL1   C21 2864   3.275   3.819   7.731 -0.2831  0.0929 -1.1822
   39CHL1  H21A 2865   3.310   3.923   7.722 -1.1220  0.4458 -0.5538
   39CHL1  H21B 2866   3.202   3.813   7.815  0.7596 -0.9003 -0.3120
   39CHL1  H21C 2867   3.219   3.798   7.637  0.4195 -1.0643 -1.3652
   39CHL1   C22 2868   3.481   3.753   7.869 -0.1445  0.5894  0.0158
   39CHL1  H22A 2869   3.581   3.705   7.872  0.6872  2.2860  0.7716
   39CHL1  H22B 2870   3.500   3.862   7.860  1.1497  0.3057 -1.0052
   39CHL1   C23 2871   3.423   3.697   8.007 -0.5287  0.3768 -0.6573
   39CHL1  H23A 2872   3.324   3.741   8.033  0.1354 -0.4229  4.3133
   39CHL1  H23B 2873   3.408   3.588   7.991 -0.0750  0.3616 -0.9759
   39CHL1   C24 2874   3.526   3.708   8.124  0.5581 -0.7603  0.4074
   39CHL1  H24A 2875   3.627   3.695   8.080  0.9706 -0.2470  1.1758
   39CHL1  H24B 2876   3.530   3.810   8.168 -0.1333 -0.8433  0.6851
   39CHL1   C25 2877   3.526   3.597   8.231  0.4470 -0.1058 -0.4183
   39CHL1   H25 2878   3.558   3.501   8.183  3.5757  0.2452  0.7134
   39CHL1   C26 2879   3.627   3.624   8.342  0.4831  0.6743  0.0567
   39CHL1  H26A 2880   3.731   3.626   8.302  0.8263 -1.1525  0.7757
   39CHL1  H26B 2881   3.600   3.711   8.405 -1.1484  1.3141 -1.4410
   39CHL1  H26C 2882   3.612   3.529   8.398  1.4972  0.6117  0.2351
   39CHL1   C27 2883   3.389   3.575   8.303  0.0225  0.2733  0.2931
   39CHL1  H27A 2884   3.318   3.549   8.222 -1.0169  0.0610  1.2450
   39CHL1  H27B 2885   3.385   3.487   8.370 -2.4783  0.2938  0.2579
   39CHL1  H27C 2886   3.358   3.666   8.360 -0.5189 -0.3565  1.0243
   40CHL1    C3 2887   6.250   1.881   6.974 -0.2953  0.2887 -0.3424
   40CHL1    H3 2888   6.322   1.965   6.985  0.6840 -0.5276 -0.4186
   40CHL1    O3 2889   6.260   1.832   6.837 -0.1186 -0.3766 -0.1174
   40CHL1   H3' 2890   6.193   1.764   6.825 -0.2020 -0.3371  0.1301
   40CHL1    C4 2891   6.297   1.767   7.074 -0.0497 -0.5190  0.0055
   40CHL1   H4A 2892   6.238   1.674   7.060 -0.2225 -0.7611  1.9499
   40CHL1   H4B 2893   6.404   1.754   7.048  0.0901 -0.6732  0.6346
   40CHL1    C5 2894   6.283   1.804   7.221 -0.2258 -0.0504  0.4495
   40CHL1    C6 2895   6.387   1.806   7.305 -0.5135  1.0190  0.5701
   40CHL1    H6 2896   6.486   1.772   7.271 -0.1707  1.0227  1.5200
   40CHL1    C7 2897   6.378   1.836   7.455 -0.0930  0.2865  0.2365
   40CHL1   H7A 2898   6.428   1.752   7.507 -1.9283 -1.1685 -0.2150
   40CHL1   H7B 2899   6.431   1.933   7.459 -1.4614  1.1136 -0.6757
   40CHL1    C8 2900   6.224   1.838   7.505  0.4773 -0.2328  0.0717
   40CHL1    H8 2901   6.191   1.733   7.519  0.8981 -0.4867 -0.7035
   40CHL1   C14 2902   6.225   1.914   7.634 -0.5032  0.1971  0.1816
   40CHL1   H14 2903   6.250   2.020   7.608  0.5055  0.3380  1.6129
   40CHL1   C15 2904   6.325   1.864   7.742 -0.0985  0.2419 -0.0084
   40CHL1  H15A 2905   6.323   1.753   7.731 -0.0969  0.1148  1.1301
   40CHL1  H15B 2906   6.419   1.914   7.710 -0.0621  0.0376 -0.2264
   40CHL1   C16 2907   6.275   1.928   7.871  0.1231  0.1876 -0.2254
   40CHL1  H16A 2908   6.272   1.844   7.943 -0.6316  0.5658  0.2030
   40CHL1  H16B 2909   6.351   1.994   7.918 -0.5073 -1.0259  2.7171
   40CHL1   C17 2910   6.132   1.985   7.836 -0.7151 -0.1264  0.1014
   40CHL1   H17 2911   6.149   2.092   7.813 -1.0257 -0.0991  0.0043
   40CHL1   C13 2912   6.089   1.916   7.705 -0.1081 -0.6112  0.4606
   40CHL1   C18 2913   6.044   1.775   7.742  0.5424 -1.0535 -0.1656
   40CHL1  H18A 2914   6.114   1.743   7.822  0.4852  1.5641  1.0358
   40CHL1  H18B 2915   5.934   1.782   7.751  0.7108  1.3838  1.0693
   40CHL1  H18C 2916   6.051   1.696   7.664  2.3249 -0.0747 -1.0850
   40CHL1   C12 2917   5.986   1.992   7.607 -0.5705 -0.1609 -0.9737
   40CHL1  H12A 2918   5.884   1.992   7.652  0.2145 -2.7956  1.0505
   40CHL1  H12B 2919   6.017   2.098   7.598 -0.2382 -0.2000 -0.3201
   40CHL1   C11 2920   5.992   1.924   7.465  0.0691  0.0009 -1.0920
   40CHL1  H11A 2921   5.945   1.825   7.478  1.2640 -0.6414 -1.5382
   40CHL1  H11B 2922   5.926   1.993   7.408 -0.4669  0.7136  0.3440
   40CHL1    C9 2923   6.133   1.904   7.401 -0.2810  0.3548  0.8020
   40CHL1    H9 2924   6.171   2.007   7.388  1.4044 -0.1641  1.3159
   40CHL1   C10 2925   6.139   1.847   7.258 -0.0479  0.1131  0.0471
   40CHL1   C19 2926   6.040   1.724   7.248 -0.8253 -0.9206 -0.0421
   40CHL1  H19A 2927   6.034   1.673   7.149 -0.6504 -0.2956 -0.3872
   40CHL1  H19B 2928   6.083   1.655   7.323 -1.0523 -1.2254 -0.1904
   40CHL1  H19C 2929   5.944   1.755   7.293  0.1515 -1.4072  2.5439
   40CHL1    C1 2930   6.078   1.950   7.159 -0.5033 -0.3552  0.2166
   40CHL1   H1A 2931   5.973   1.980   7.180 -0.4461  0.9211 -1.1095
   40CHL1   H1B 2932   6.145   2.039   7.166 -0.8993  0.0574 -0.9500
   40CHL1    C2 2933   6.101   1.917   7.009  0.6648  0.2231 -0.0432
   40CHL1   H2A 2934   6.062   1.991   6.935 -1.0374 -1.2794 -0.7171
   40CHL1   H2B 2935   6.039   1.828   6.986  0.3712  0.2906  0.4734
   40CHL1   C20 2936   6.052   1.974   7.964  0.4117 -0.0252 -0.4827
   40CHL1   H20 2937   6.052   1.870   8.003  1.5959  1.1120  2.9809
   40CHL1   C21 2938   5.907   2.017   7.940  0.7024  0.2767  0.0749
   40CHL1  H21A 2939   5.903   2.117   7.891  0.9264 -0.1603 -0.8509
   40CHL1  H21B 2940   5.862   2.015   8.041  0.6055 -1.8182  0.0164
   40CHL1  H21C 2941   5.862   1.933   7.884  0.4559  0.0621  0.5877
   40CHL1   C22 2942   6.115   2.058   8.082 -0.3772 -0.0941 -0.2252
   40CHL1  H22A 2943   6.226   2.049   8.083 -0.2710  1.0642  0.0635
   40CHL1  H22B 2944   6.091   2.166   8.068  0.5021  0.0660 -0.5699
   40CHL1   C23 2945   6.070   2.009   8.218 -0.5174  0.4613  0.6400
   40CHL1  H23A 2946   5.964   2.038   8.231 -0.4727  0.3664  1.2659
   40CHL1  H23B 2947   6.070   1.898   8.219 -2.4715  0.4212  2.5753
   40CHL1   C24 2948   6.163   2.057   8.328 -0.6293 -0.9511 -0.0449
   40CHL1  H24A 2949   6.270   2.048   8.296 -0.7388  0.1596 -0.8014
   40CHL1  H24B 2950   6.138   2.164   8.344  0.3108 -0.9609  1.6938
   40CHL1   C25 2951   6.139   2.002   8.469 -0.7643  0.4431  0.5224
   40CHL1   H25 2952   6.147   1.891   8.460  0.6162  0.4019  1.8982
   40CHL1   C26 2953   6.250   2.028   8.571  0.1586  0.3901 -0.3801
   40CHL1  H26A 2954   6.267   2.137   8.580  0.0999  0.3330  0.4932
   40CHL1  H26B 2955   6.244   1.979   8.670 -0.8128 -0.4033 -0.8114
   40CHL1  H26C 2956   6.335   1.980   8.517 -0.8353  1.0374 -2.6212
   40CHL1   C27 2957   6.001   2.044   8.524 -0.0118  0.0640  0.0517
   40CHL1  H27A 2958   5.983   2.015   8.630  1.7084 -2.4343 -0.2495
   40CHL1  H27B 2959   6.004   2.155   8.516  2.5669 -0.0929 -2.9341
   40CHL1  H27C 2960   5.926   1.995   8.458  0.9618 -0.0738 -0.9746
   41CHL1    C3 2961   6.483   2.690   6.988  0.5255 -0.7067  0.3118
   41CHL1    H3 2962   6.496   2.608   7.062 -4.1418 -2.4482 -0.4120
   41CHL1    O3 2963   6.490   2.628   6.865  0.5838  0.0143  0.6071
   41CHL1   H3' 2964   6.538   2.689   6.809  0.2075  0.5707  0.8878
   41CHL1    C4 2965   6.348   2.753   7.010 -0.1545 -0.4849  0.2671
   41CHL1   H4A 2966   6.335   2.845   6.949 -1.0981  0.2772  1.5563
   41CHL1   H4B 2967   6.269   2.686   6.972  0.1767  0.2259 -1.7841
   41CHL1    C5 2968   6.349   2.786   7.155  0.1578  0.1902  0.5300
   41CHL1    C6 2969   6.273   2.728   7.247 -0.2187  0.5393 -0.0554
   41CHL1    H6 2970   6.192   2.663   7.208  0.1281  0.0151  0.0857
   41CHL1    C7 2971   6.278   2.757   7.394  0.1293 -0.3267  0.5387
   41CHL1   H7A 2972   6.171   2.750   7.426 -0.5880 -0.7669 -1.7373
   41CHL1   H7B 2973   6.331   2.675   7.447 -1.4525 -1.6694  0.1230
   41CHL1    C8 2974   6.355   2.896   7.422  0.7497  0.1621  0.4209
   41CHL1    H8 2975   6.293   2.984   7.392  0.9251  0.0834 -0.1924
   41CHL1   C14 2976   6.389   2.902   7.567  0.6455  0.2618  0.1532
   41CHL1   H14 2977   6.453   2.814   7.592  0.2919  0.2234  0.9520
   41CHL1   C15 2978   6.271   2.887   7.671 -0.5182 -0.2866  0.3642
   41CHL1  H15A 2979   6.179   2.917   7.617 -1.1309 -0.4793  1.2674
   41CHL1  H15B 2980   6.248   2.787   7.714 -0.6208  0.1502  1.3503
   41CHL1   C16 2981   6.302   2.973   7.795  0.0202  0.0835 -0.4200
   41CHL1  H16A 2982   6.246   3.069   7.792  3.4695  2.4555  1.9689
   41CHL1  H16B 2983   6.294   2.923   7.894  2.4118  0.9976  0.3113
   41CHL1   C17 2984   6.450   3.020   7.770 -0.4298  0.0012 -0.2048
   41CHL1   H17 2985   6.523   2.939   7.791  0.8301  1.2592  0.3631
   41CHL1   C13 2986   6.464   3.026   7.612 -0.1576  0.5037  0.6854
   41CHL1   C18 2987   6.393   3.153   7.552 -0.0468  0.0493  0.4864
   41CHL1  H18A 2988   6.388   3.151   7.441  0.5573 -0.3860  0.4632
   41CHL1  H18B 2989   6.285   3.154   7.578 -0.2113  1.2761 -0.1515
   41CHL1  H18C 2990   6.449   3.242   7.587 -0.5645  1.1464 -1.3015
   41CHL1   C12 2991   6.605   3.013   7.551 -0.1083 -0.0485  0.3820
   41CHL1  H12A 2992   6.672   3.100   7.569 -0.7239 -0.0378  2.9166
   41CHL1  H12B 2993   6.654   2.926   7.599 -1.2835 -1.3998 -0.7796
   41CHL1   C11 2994   6.590   2.993   7.401 -0.5188 -0.1339  0.1842
   41CHL1  H11A 2995   6.565   3.093   7.360 -4.8996 -1.3615 -0.6269
   41CHL1  H11B 2996   6.691   2.975   7.356 -0.4735  2.5153 -0.9558
   41CHL1    C9 2997   6.487   2.893   7.343  0.1478  0.0045 -0.0811
   41CHL1    H9 2998   6.531   2.792   7.362  0.0863 -0.4212 -2.0538
   41CHL1   C10 2999   6.467   2.884   7.188  0.4415  0.0460  0.2412
   41CHL1   C19 3000   6.427   3.026   7.139 -0.0942  0.4308  0.3094
   41CHL1  H19A 3001   6.509   3.100   7.130 -0.6853  0.9228 -1.4488
   41CHL1  H19B 3002   6.384   3.028   7.036 -0.7906 -1.3085  0.5159
   41CHL1  H19C 3003   6.351   3.075   7.204 -0.7860  1.7904 -1.4540
   41CHL1    C1 3004   6.598   2.843   7.134 -0.2235  0.5968  0.9398
   41CHL1   H1A 3005   6.669   2.929   7.138  0.4623  0.0364  0.8718
   41CHL1   H1B 3006   6.641   2.757   7.189 -1.5225 -1.1788 -0.6854
   41CHL1    C2 3007   6.590   2.799   6.983  0.1016  0.1660 -0.0377
   41CHL1   H2A 3008   6.687   2.762   6.945 -0.1561 -0.6224  0.0707
   41CHL1   H2B 3009   6.565   2.893   6.928 -1.1752 -0.7029 -0.9967
   41CHL1   C20 3010   6.478   3.152   7.848  0.2027 -0.0403 -0.2755
   41CHL1   H20 3011   6.408   3.229   7.808  0.6221  0.8619  0.6937
   41CHL1   C21 3012   6.626   3.197   7.835 -0.3280  0.4144 -0.0568
   41CHL1  H21A 3013   6.699   3.134   7.890  0.5543  2.2582  0.9575
   41CHL1  H21B 3014   6.638   3.297   7.881  0.2479  0.5881 -0.5849
   41CHL1  H21C 3015   6.654   3.200   7.728  0.5177 -2.2040  0.0238
   41CHL1   C22 3016   6.443   3.128   7.994 -0.0070 -0.1110 -0.3102
   41CHL1  H22A 3017   6.334   3.114   8.015 -0.2387  1.0698 -0.6422
   41CHL1  H22B 3018   6.497   3.034   8.018 -1.1016 -0.3817  1.2097
   41CHL1   C23 3019   6.466   3.252   8.088  0.1947 -0.0120 -0.5589
   41CHL1  H23A 3020   6.441   3.206   8.186  0.5236 -0.5836 -0.7329
   41CHL1  H23B 3021   6.572   3.279   8.068  0.0097  2.3612  1.2334
   41CHL1   C24 3022   6.368   3.368   8.068 -0.1344  0.3436 -1.2206
   41CHL1  H24A 3023   6.367   3.398   7.961  1.0321  1.7353 -0.8708
   41CHL1  H24B 3024   6.263   3.334   8.082 -0.3002  0.1513 -2.7576
   41CHL1   C25 3025   6.379   3.490   8.167  0.0353  0.3010  0.5277
   41CHL1   H25 3026   6.386   3.450   8.271 -0.5305 -2.8600 -0.5396
   41CHL1   C26 3027   6.506   3.574   8.149 -0.1147 -0.0574 -0.0712
   41CHL1  H26A 3028   6.512   3.623   8.049  1.5702 -0.0276  0.0104
   41CHL1  H26B 3029   6.506   3.654   8.227  0.5022  0.5516 -0.6787
   41CHL1  H26C 3030   6.594   3.507   8.149  0.7481  1.0458  0.2803
   41CHL1   C27 3031   6.262   3.582   8.151  0.6010  0.8554 -0.0323
   41CHL1  H27A 3032   6.161   3.538   8.146  1.3894 -0.8901 -3.0400
   41CHL1  H27B 3033   6.260   3.653   8.237 -1.8097 -0.0560  0.7484
   41CHL1  H27C 3034   6.270   3.645   8.059 -0.2289 -0.3785 -0.9806
   42CHL1    C3 3035   1.366   5.350   6.879 -0.7124 -0.6441 -0.0099
   42CHL1    H3 3036   1.290   5.272   6.856 -0.3265 -0.6170 -1.4666
   42CHL1    O3 3037   1.446   5.360   6.762 -0.0383 -0.1199 -0.2969
   42CHL1   H3' 3038   1.537   5.361   6.791  0.0609  0.8785 -0.6275
   42CHL1    C4 3039   1.296   5.481   6.927 -0.7570  1.0689  0.4801
   42CHL1   H4A 3040   1.377   5.553   6.947 -0.3568  0.3871  1.4088
   42CHL1   H4B 3041   1.238   5.516   6.839 -0.1680  0.8585  0.0046
   42CHL1    C5 3042   1.208   5.454   7.048  0.2787  0.1293 -0.1500
   42CHL1    C6 3043   1.081   5.488   7.046 -0.0684 -0.0576  0.3405
   42CHL1    H6 3044   1.043   5.545   6.959 -0.3922  1.6648  1.5547
   42CHL1    C7 3045   0.978   5.475   7.156  0.3716 -0.9964  0.0802
   42CHL1   H7A 3046   0.914   5.564   7.178 -0.0283 -1.5361  1.1921
   42CHL1   H7B 3047   0.907   5.394   7.129  0.7637 -1.3081 -0.0131
   42CHL1    C8 3048   1.057   5.443   7.287 -0.0338  0.6088  0.4018
   42CHL1    H8 3049   1.101   5.536   7.329  0.2586 -0.8221  3.4944
   42CHL1   C14 3050   0.955   5.398   7.395 -0.2560  0.1291  0.0055
   42CHL1   H14 3051   0.920   5.301   7.354  0.5179 -0.3598  0.4743
   42CHL1   C15 3052   0.830   5.479   7.428 -0.3810  0.4062  0.0671
   42CHL1  H15A 3053   0.864   5.583   7.445  0.9906 -0.0344  0.1249
   42CHL1  H15B 3054   0.751   5.475   7.350  2.5862 -3.4276 -3.1404
   42CHL1   C16 3055   0.782   5.418   7.567 -0.7049 -0.0341  0.1322
   42CHL1  H16A 3056   0.785   5.493   7.650 -0.8741  1.7878 -1.4388
   42CHL1  H16B 3057   0.678   5.380   7.567 -0.7663  0.1341 -0.1169
   42CHL1   C17 3058   0.894   5.308   7.616  0.4229 -0.8683 -1.0046
   42CHL1   H17 3059   0.865   5.211   7.572  0.7574  0.4688 -4.4387
   42CHL1   C13 3060   1.014   5.361   7.536 -0.5331 -0.4079 -0.1906
   42CHL1   C18 3061   1.073   5.488   7.592 -0.1103  0.2066  0.0092
   42CHL1  H18A 3062   1.139   5.553   7.530  0.0130  1.3413  1.2912
   42CHL1  H18B 3063   0.990   5.555   7.623 -2.3568 -1.0820 -2.7042
   42CHL1  H18C 3064   1.141   5.470   7.677  2.7351  1.8309 -1.7651
   42CHL1   C12 3065   1.123   5.261   7.515  0.7039 -0.4529 -0.0576
   42CHL1  H12A 3066   1.175   5.246   7.612 -0.6946 -0.6376  0.6820
   42CHL1  H12B 3067   1.076   5.164   7.489 -1.3415 -0.3338  2.7644
   42CHL1   C11 3068   1.227   5.306   7.404  0.1137 -0.0035 -0.8697
   42CHL1  H11A 3069   1.273   5.397   7.447 -1.8647  1.3703 -1.5260
   42CHL1  H11B 3070   1.307   5.229   7.402 -2.0069 -2.3389 -0.8279
   42CHL1    C9 3071   1.171   5.343   7.265  0.4556 -0.0733  0.0695
   42CHL1    H9 3072   1.128   5.251   7.219 -0.1206  0.1719  0.1134
   42CHL1   C10 3073   1.278   5.395   7.167 -0.6470  0.5250  0.8456
   42CHL1   C19 3074   1.363   5.505   7.234 -0.1840 -0.5487 -0.1694
   42CHL1  H19A 3075   1.294   5.575   7.285 -1.0706 -1.9555  0.6102
   42CHL1  H19B 3076   1.441   5.468   7.304  2.2477 -0.4419 -2.6396
   42CHL1  H19C 3077   1.429   5.546   7.155  1.7997  0.6393  1.9589
   42CHL1    C1 3078   1.360   5.270   7.124  0.1838 -0.1810 -0.3834
   42CHL1   H1A 3079   1.437   5.247   7.202  1.1102 -0.6118 -1.3978
   42CHL1   H1B 3080   1.299   5.184   7.090  0.3458  0.1132 -1.4591
   42CHL1    C2 3081   1.447   5.303   6.994  0.0669  0.2703 -0.0447
   42CHL1   H2A 3082   1.500   5.213   6.954 -2.7770 -0.3820 -2.7017
   42CHL1   H2B 3083   1.533   5.370   7.018  0.3347 -0.0989  0.0344
   42CHL1   C20 3084   0.903   5.288   7.772  1.0451  0.5443  0.0724
   42CHL1   H20 3085   0.968   5.370   7.812  0.8983  1.1378 -0.8810
   42CHL1   C21 3086   0.973   5.150   7.801  0.2669 -0.0891 -0.5942
   42CHL1  H21A 3087   1.070   5.136   7.748  0.1998 -0.8380 -0.5256
   42CHL1  H21B 3088   0.909   5.062   7.781  1.3883 -0.9747 -0.3964
   42CHL1  H21C 3089   0.995   5.151   7.910 -3.3090 -1.4117  0.2708
   42CHL1   C22 3090   0.761   5.306   7.840 -0.2926 -0.7220 -0.1340
   42CHL1  H22A 3091   0.726   5.411   7.829  0.3331 -0.2929  1.6776
   42CHL1  H22B 3092   0.692   5.241   7.781 -0.7099 -1.8796  1.5809
   42CHL1   C23 3093   0.762   5.252   7.982 -0.1624  0.1479 -0.0356
   42CHL1  H23A 3094   0.798   5.148   7.963  1.3567  0.3293  1.5391
   42CHL1  H23B 3095   0.834   5.309   8.045  1.3300  0.7622 -2.2062
   42CHL1   C24 3096   0.624   5.249   8.054  0.5721 -0.6316  0.0400
   42CHL1  H24A 3097   0.593   5.354   8.071  2.8066  0.1235 -0.1933
   42CHL1  H24B 3098   0.548   5.192   7.996 -0.6698  0.9216  0.0913
   42CHL1   C25 3099   0.641   5.169   8.192  0.5226  0.0309 -0.1590
   42CHL1   H25 3100   0.680   5.068   8.167  1.8607  0.6932 -0.8488
   42CHL1   C26 3101   0.742   5.229   8.293 -0.1119 -0.1786 -0.5174
   42CHL1  H26A 3102   0.707   5.332   8.318  0.5431 -0.6698  2.9859
   42CHL1  H26B 3103   0.740   5.179   8.392  0.5296  2.1601  0.7683
   42CHL1  H26C 3104   0.843   5.234   8.246  0.5175 -0.2399  0.7625
   42CHL1   C27 3105   0.507   5.148   8.269 -0.5305 -0.8694  0.2889
   42CHL1  H27A 3106   0.527   5.084   8.358  1.5759 -2.4284 -1.1940
   42CHL1  H27B 3107   0.432   5.092   8.208 -1.3244 -2.2491  2.3918
   42CHL1  H27C 3108   0.471   5.246   8.307 -0.4903 -1.8095  2.9575
   43CHL1    C3 3109   1.662   2.539   6.790  0.3071  0.2452 -0.3334
   43CHL1    H3 3110   1.556   2.504   6.793  0.7674 -1.2557 -0.6400
   43CHL1    O3 3111   1.708   2.492   6.664 -0.2238 -0.4687  0.1699
   43CHL1   H3' 3112   1.797   2.523   6.645  0.7646 -3.7348 -1.1269
   43CHL1    C4 3113   1.670   2.691   6.807 -0.5421  0.5769 -0.6463
   43CHL1   H4A 3114   1.768   2.730   6.771  0.2937 -1.6216 -0.9191
   43CHL1   H4B 3115   1.598   2.745   6.742 -0.4214 -0.0335 -1.3019
   43CHL1    C5 3116   1.660   2.734   6.948 -0.4230 -0.0506 -0.2215
   43CHL1    C6 3117   1.566   2.825   6.979 -0.3210 -0.2959 -0.2377
   43CHL1    H6 3118   1.519   2.875   6.892  1.3813  2.0041  0.0767
   43CHL1    C7 3119   1.538   2.882   7.118 -0.2720 -0.2109  0.4411
   43CHL1   H7A 3120   1.525   2.992   7.123 -0.4674 -0.2925  2.3921
   43CHL1   H7B 3121   1.443   2.839   7.157 -0.4800  0.2084  0.3964
   43CHL1    C8 3122   1.650   2.851   7.217 -0.1688 -0.2375 -0.0673
   43CHL1    H8 3123   1.738   2.912   7.186 -1.2140  1.4572  0.1841
   43CHL1   C14 3124   1.612   2.891   7.355 -0.3930 -0.1260 -0.2546
   43CHL1   H14 3125   1.514   2.842   7.371 -0.4563 -0.9026 -2.6912
   43CHL1   C15 3126   1.598   3.042   7.377  0.8642 -0.4736  0.1101
   43CHL1  H15A 3127   1.683   3.099   7.334  0.2446 -0.0395 -0.5605
   43CHL1  H15B 3128   1.496   3.071   7.344  1.3306 -0.3805 -1.3245
   43CHL1   C16 3129   1.602   3.061   7.537  0.2048  0.5402 -0.1188
   43CHL1  H16A 3130   1.689   3.129   7.551 -0.7515  1.6932  0.3620
   43CHL1  H16B 3131   1.510   3.115   7.567 -0.7162 -0.9699 -0.1379
   43CHL1   C17 3132   1.633   2.920   7.589  0.3172 -0.5866 -0.3375
   43CHL1   H17 3133   1.536   2.866   7.591 -0.7634  1.3212  0.8495
   43CHL1   C13 3134   1.702   2.841   7.477 -0.4169  0.4445  1.2420
   43CHL1   C18 3135   1.847   2.885   7.458  0.0245 -0.0571  0.3223
   43CHL1  H18A 3136   1.886   2.857   7.358 -0.7323  0.7930 -0.2337
   43CHL1  H18B 3137   1.847   2.996   7.465 -0.3631 -0.1191  1.4761
   43CHL1  H18C 3138   1.929   2.856   7.527 -0.5311 -1.3741  0.4459
   43CHL1   C12 3139   1.688   2.689   7.466  0.1139 -0.1081  0.1185
   43CHL1  H12A 3140   1.758   2.632   7.531  3.4175  1.5694 -1.6924
   43CHL1  H12B 3141   1.585   2.648   7.473  0.9565 -2.8697 -1.9370
   43CHL1   C11 3142   1.736   2.630   7.331 -0.9859 -0.4600 -0.3962
   43CHL1  H11A 3143   1.846   2.642   7.339 -1.1577  0.0556  2.0684
   43CHL1  H11B 3144   1.713   2.521   7.339 -0.0990 -0.7217 -1.1961
   43CHL1    C9 3145   1.676   2.702   7.207  0.2966  0.4246  0.1929
   43CHL1    H9 3146   1.573   2.661   7.199 -0.1688  1.5910 -0.0146
   43CHL1   C10 3147   1.731   2.665   7.064  0.4906 -0.5471 -0.2000
   43CHL1   C19 3148   1.881   2.707   7.062 -0.0710  0.4382 -0.4571
   43CHL1  H19A 3149   1.899   2.805   7.112  1.9716 -0.5029  0.7719
   43CHL1  H19B 3150   1.936   2.636   7.127 -1.8660  0.5596  1.2818
   43CHL1  H19C 3151   1.918   2.702   6.957 -0.7587 -1.4278 -0.6348
   43CHL1    C1 3152   1.723   2.505   7.040 -0.9241  0.2798 -0.2561
   43CHL1   H1A 3153   1.784   2.442   7.107  0.8389 -0.0675 -2.1076
   43CHL1   H1B 3154   1.616   2.477   7.053 -0.3345 -1.6689  0.6951
   43CHL1    C2 3155   1.753   2.463   6.891  1.0046  0.0084 -0.0266
   43CHL1   H2A 3156   1.736   2.353   6.882  1.1169 -0.0705  0.7161
   43CHL1   H2B 3157   1.858   2.482   6.862  0.6528 -0.0644 -1.4667
   43CHL1   C20 3158   1.691   2.922   7.730  0.2085 -1.1339 -0.0433
   43CHL1   H20 3159   1.795   2.960   7.732  0.5736 -2.1009  2.0693
   43CHL1   C21 3160   1.704   2.772   7.766 -0.1789  0.3219 -0.5111
   43CHL1  H21A 3161   1.786   2.712   7.722 -0.3503  0.3493 -0.8715
   43CHL1  H21B 3162   1.610   2.718   7.740  0.9316 -0.8053 -2.4425
   43CHL1  H21C 3163   1.726   2.761   7.875  0.6293  4.0011 -0.1717
   43CHL1   C22 3164   1.614   3.005   7.836  0.6158 -0.6191 -0.3051
   43CHL1  H22A 3165   1.603   3.108   7.798 -1.3176 -1.1599 -1.3749
   43CHL1  H22B 3166   1.510   2.971   7.855  0.5886 -3.0674 -3.8601
   43CHL1   C23 3167   1.683   3.010   7.974 -0.1316 -0.0722  0.6938
   43CHL1  H23A 3168   1.721   2.911   8.008  1.4985 -0.2352 -1.3733
   43CHL1  H23B 3169   1.766   3.083   7.962 -0.8975  0.5641 -1.0026
   43CHL1   C24 3170   1.578   3.064   8.069 -0.3680  0.1250  0.0821
   43CHL1  H24A 3171   1.519   3.145   8.020 -0.6236  0.4010  0.8299
   43CHL1  H24B 3172   1.495   2.993   8.091  0.7338 -1.3292 -0.3165
   43CHL1   C25 3173   1.633   3.125   8.203 -0.2686  0.0651  0.8109
   43CHL1   H25 3174   1.717   3.195   8.185 -0.7921  0.2926 -1.0219
   43CHL1   C26 3175   1.527   3.214   8.270 -0.0747  0.0502  0.3254
   43CHL1  H26A 3176   1.496   3.305   8.214 -1.7920  0.1745  1.4359
   43CHL1  H26B 3177   1.436   3.155   8.295 -0.7836 -0.1729 -2.4802
   43CHL1  H26C 3178   1.572   3.248   8.366 -1.9395 -0.5031  1.4510
   43CHL1   C27 3179   1.681   3.009   8.301  0.0136 -0.8775  0.4611
   43CHL1  H27A 3180   1.770   2.952   8.266 -0.6447 -2.4855  1.3207
   43CHL1  H27B 3181   1.716   3.059   8.394  1.4395  0.2811 -0.6534
   43CHL1  H27C 3182   1.597   2.940   8.326 -0.0560 -0.5776  1.0738
   44CHL1    C3 3183   0.772   1.693   6.755  0.2496  0.0146  0.5221
   44CHL1    H3 3184   0.878   1.725   6.743  0.3385  0.2846  1.8552
   44CHL1    O3 3185   0.708   1.668   6.634 -0.3346  0.2332  0.2931
   44CHL1   H3' 3186   0.621   1.640   6.662  0.1465 -1.5720  0.1328
   44CHL1    C4 3187   0.778   1.576   6.846 -0.1312 -1.2554 -0.6051
   44CHL1   H4A 3188   0.675   1.535   6.854 -0.1984 -0.7880  1.5887
   44CHL1   H4B 3189   0.841   1.498   6.798 -2.3035 -3.0802 -0.6942
   44CHL1    C5 3190   0.825   1.613   6.989 -0.6040 -0.8871 -0.4919
   44CHL1    C6 3191   0.930   1.551   7.048 -1.0248  0.6653 -0.3075
   44CHL1    H6 3192   0.980   1.465   7.001  0.4552  0.5125  1.4266
   44CHL1    C7 3193   0.980   1.562   7.190  0.7008  0.3390  0.3442
   44CHL1   H7A 3194   0.987   1.460   7.233  1.3356  1.5003  3.2893
   44CHL1   H7B 3195   1.080   1.610   7.194  0.6893  0.3967 -0.0929
   44CHL1    C8 3196   0.880   1.650   7.274 -0.6006 -0.3756  0.3516
   44CHL1    H8 3197   0.789   1.592   7.302 -0.9294  0.5895  1.3232
   44CHL1   C14 3198   0.952   1.687   7.403  0.1351 -0.1606  0.7764
   44CHL1   H14 3199   1.040   1.738   7.360 -0.9243  0.2304 -1.0298
   44CHL1   C15 3200   1.010   1.581   7.489 -0.1000  0.0840  0.5728
   44CHL1  H15A 3201   0.934   1.502   7.508  0.5901 -2.1224 -4.3204
   44CHL1  H15B 3202   1.105   1.536   7.452  0.4737 -0.2925  2.3845
   44CHL1   C16 3203   1.039   1.651   7.625  0.1481  0.8548 -0.7669
   44CHL1  H16A 3204   0.991   1.596   7.709  1.6401  0.9936  0.2176
   44CHL1  H16B 3205   1.148   1.659   7.646  0.1368 -1.1628  0.2724
   44CHL1   C17 3206   0.982   1.794   7.611 -0.2636 -0.9476 -0.1739
   44CHL1   H17 3207   1.063   1.860   7.573  1.5551 -2.0594  1.6041
   44CHL1   C13 3208   0.875   1.782   7.495 -0.9863  0.1909  0.6035
   44CHL1   C18 3209   0.748   1.711   7.536 -0.2045  0.6094  0.4105
   44CHL1  H18A 3210   0.768   1.604   7.558  1.3174  0.7280 -0.2615
   44CHL1  H18B 3211   0.697   1.766   7.618 -0.5235  0.3472  0.3867
   44CHL1  H18C 3212   0.676   1.710   7.452  0.9689  0.0624 -0.6234
   44CHL1   C12 3213   0.834   1.908   7.411 -0.2207 -0.1773 -0.2917
   44CHL1  H12A 3214   0.774   1.977   7.475  0.2613 -1.3545  1.5310
   44CHL1  H12B 3215   0.921   1.974   7.393 -1.8795  2.1685 -0.2133
   44CHL1   C11 3216   0.760   1.874   7.286 -0.7773 -0.1495  0.0012
   44CHL1  H11A 3217   0.662   1.827   7.308 -0.8349 -0.0807 -0.1101
   44CHL1  H11B 3218   0.737   1.963   7.224 -2.5617 -1.2423 -0.9881
   44CHL1    C9 3219   0.837   1.775   7.193  0.1993  0.1616  0.2836
   44CHL1    H9 3220   0.931   1.824   7.162 -0.0174  0.5918  0.2918
   44CHL1   C10 3221   0.749   1.730   7.063  0.0949  0.5318 -0.9967
   44CHL1   C19 3222   0.605   1.680   7.096  0.3919  0.1903 -0.2381
   44CHL1  H19A 3223   0.546   1.655   7.005 -0.0046 -0.8855  0.3082
   44CHL1  H19B 3224   0.596   1.592   7.162 -3.4246 -1.7041 -2.8609
   44CHL1  H19C 3225   0.562   1.775   7.135  1.8943 -0.4029  3.2401
   44CHL1    C1 3226   0.743   1.845   6.960  0.8222 -0.0224  0.1668
   44CHL1   H1A 3227   0.686   1.933   6.997  0.8780  0.4562 -0.8425
   44CHL1   H1B 3228   0.851   1.868   6.953  1.0063  1.1300  4.1790
   44CHL1    C2 3229   0.691   1.801   6.818 -0.1597  0.2826  0.5772
   44CHL1   H2A 3230   0.697   1.892   6.755  1.6464 -0.3550 -0.2356
   44CHL1   H2B 3231   0.585   1.768   6.816  0.5198 -2.1825  1.3136
   44CHL1   C20 3232   0.935   1.849   7.753 -0.0976 -0.4507 -0.0642
   44CHL1   H20 3233   0.853   1.787   7.795  1.1771 -0.8701  1.9670
   44CHL1   C21 3234   0.881   1.995   7.732 -0.3172  0.3640  0.4487
   44CHL1  H21A 3235   0.850   2.053   7.822  0.2389 -1.1650  1.6692
   44CHL1  H21B 3236   0.802   1.999   7.655 -0.8182  2.1580  1.0119
   44CHL1  H21C 3237   0.962   2.056   7.687 -0.0165  0.5936  1.2749
   44CHL1   C22 3238   1.051   1.843   7.860 -0.3286 -0.8619 -0.0881
   44CHL1  H22A 3239   1.092   1.741   7.880  1.4807 -0.5608 -1.9648
   44CHL1  H22B 3240   1.140   1.888   7.810 -0.5728 -1.0635 -0.7119
   44CHL1   C23 3241   1.007   1.909   7.992  0.0807  0.9349  0.4640
   44CHL1  H23A 3242   0.988   2.016   7.972 -0.5884  0.6295 -0.6494
   44CHL1  H23B 3243   0.910   1.860   8.015 -0.9605  2.5931 -0.2217
   44CHL1   C24 3244   1.118   1.897   8.096  0.7102  0.0107  0.1350
   44CHL1  H24A 3245   1.170   1.798   8.096  0.5773 -0.0604 -0.0626
   44CHL1  H24B 3246   1.189   1.978   8.066  0.8467 -0.4007 -0.6989
   44CHL1   C25 3247   1.086   1.932   8.242 -0.4417  0.3318  0.0646
   44CHL1   H25 3248   1.188   1.944   8.284  0.4492 -2.3964 -1.0880
   44CHL1   C26 3249   1.006   2.056   8.258  0.3746  0.1774  0.2019
   44CHL1  H26A 3250   1.005   2.095   8.363 -1.0016  0.2552  0.1713
   44CHL1  H26B 3251   1.056   2.129   8.190 -1.6742  1.4264 -0.0453
   44CHL1  H26C 3252   0.900   2.038   8.230 -0.8642  1.5755  3.4823
   44CHL1   C27 3253   1.027   1.810   8.317  0.3035  0.2684  0.6125
   44CHL1  H27A 3254   1.020   1.839   8.424 -2.3587 -2.6060  1.3625
   44CHL1  H27B 3255   0.922   1.795   8.283  0.9267  1.0374 -1.8990
   44CHL1  H27C 3256   1.092   1.721   8.307 -0.7889 -0.2513 -4.2259
   45CHL1    C3 3257   1.203   6.708   6.916 -0.5787 -0.5448 -0.5462
   45CHL1    H3 3258   1.157   6.607   6.918  0.9543 -1.2898  1.6123
   45CHL1    O3 3259   1.193   6.755   6.788 -0.0110 -0.2205 -0.5297
   45CHL1   H3' 3260   1.229   6.844   6.785 -0.9709  0.1812 -0.5933
   45CHL1    C4 3261   1.136   6.813   7.011  1.2213 -0.0250 -0.2182
   45CHL1   H4A 3262   1.167   6.915   6.981 -1.7385  0.5783 -1.6234
   45CHL1   H4B 3263   1.026   6.818   6.996  1.0465  0.2545  1.0287
   45CHL1    C5 3264   1.159   6.794   7.155  0.1722  0.1250  0.8341
   45CHL1    C6 3265   1.051   6.786   7.244 -0.4801 -0.6785 -0.1970
   45CHL1    H6 3266   0.946   6.781   7.211 -0.8482 -4.4101  1.0461
   45CHL1    C7 3267   1.070   6.768   7.393 -0.2405  0.3527 -0.1087
   45CHL1   H7A 3268   1.001   6.834   7.450 -0.6113  0.9594 -1.2348
   45CHL1   H7B 3269   1.027   6.671   7.425 -0.5757  0.6383  0.3126
   45CHL1    C8 3270   1.222   6.779   7.440 -0.1769 -0.1309 -0.1458
   45CHL1    H8 3271   1.246   6.887   7.449  0.3682 -0.3400  1.1830
   45CHL1   C14 3272   1.238   6.716   7.581  0.0972  0.3519  1.1018
   45CHL1   H14 3273   1.227   6.607   7.567  0.4662  0.2782  1.3744
   45CHL1   C15 3274   1.137   6.758   7.691 -0.8872  0.2369  0.1036
   45CHL1  H15A 3275   1.144   6.868   7.679  0.0012  0.0607 -1.2775
   45CHL1  H15B 3276   1.036   6.714   7.679 -0.6450 -0.5825  0.9766
   45CHL1   C16 3277   1.212   6.714   7.818 -0.4147  0.7401  0.1330
   45CHL1  H16A 3278   1.212   6.801   7.887  2.0701  3.2376 -2.6512
   45CHL1  H16B 3279   1.159   6.626   7.860 -2.5280  1.0696 -1.6442
   45CHL1   C17 3280   1.355   6.667   7.782  0.3450  0.1501 -0.3281
   45CHL1   H17 3281   1.349   6.558   7.761  3.2978 -0.0231 -0.7108
   45CHL1   C13 3282   1.379   6.725   7.638  0.9180 -0.1812  0.5812
   45CHL1   C18 3283   1.413   6.871   7.648  0.5994  0.7950  0.6790
   45CHL1  H18A 3284   1.439   6.925   7.554  0.3235 -0.8664 -0.3978
   45CHL1  H18B 3285   1.331   6.927   7.697  0.1583 -0.1259  1.0014
   45CHL1  H18C 3286   1.508   6.885   7.705 -0.1994 -0.2418  2.3115
   45CHL1   C12 3287   1.472   6.647   7.550  0.3171 -0.0535 -0.8658
   45CHL1  H12A 3288   1.575   6.657   7.589 -0.4827  0.2789  1.2699
   45CHL1  H12B 3289   1.430   6.544   7.552  0.1752  0.0041 -0.8362
   45CHL1   C11 3290   1.466   6.703   7.401 -0.8381  0.3946  0.0271
   45CHL1  H11A 3291   1.515   6.803   7.398 -0.6312  0.3772  1.6675
   45CHL1  H11B 3292   1.528   6.642   7.332  0.3391  1.0888  0.4378
   45CHL1    C9 3293   1.319   6.710   7.345 -0.2953 -0.4228  0.4720
   45CHL1    H9 3294   1.284   6.605   7.343 -1.4270 -0.0785 -1.6570
   45CHL1   C10 3295   1.306   6.767   7.199 -0.2079 -0.5319  0.1725
   45CHL1   C19 3296   1.380   6.904   7.188  0.2601  0.6118  0.4093
   45CHL1  H19A 3297   1.490   6.891   7.199  0.3672  0.5248 -0.6615
   45CHL1  H19B 3298   1.368   6.964   7.096 -0.9258  1.3294  1.0146
   45CHL1  H19C 3299   1.348   6.964   7.276 -2.7666 -1.2248  0.7002
   45CHL1    C1 3300   1.374   6.676   7.099 -0.4878 -0.6113 -0.3475
   45CHL1   H1A 3301   1.483   6.665   7.119 -0.2538  0.8877 -0.7230
   45CHL1   H1B 3302   1.323   6.582   7.131 -2.5727  0.9095  1.0017
   45CHL1    C2 3303   1.354   6.700   6.949  0.0841 -0.5153 -0.3425
   45CHL1   H2A 3304   1.394   6.611   6.895 -0.9375 -1.1239 -0.1324
   45CHL1   H2B 3305   1.414   6.787   6.918  0.2122 -0.6648 -0.5188
   45CHL1   C20 3306   1.452   6.687   7.899 -0.4109 -0.6814  1.0849
   45CHL1   H20 3307   1.482   6.792   7.918  0.7003 -0.9752  1.0126
   45CHL1   C21 3308   1.580   6.610   7.863 -1.0014  0.1553 -0.7197
   45CHL1  H21A 3309   1.656   6.667   7.805 -0.7661  0.2506 -0.3207
   45CHL1  H21B 3310   1.551   6.523   7.800  0.3088 -0.0850 -1.0323
   45CHL1  H21C 3311   1.641   6.579   7.951  1.7603  1.8898 -1.8779
   45CHL1   C22 3312   1.401   6.644   8.035  0.3298  0.8307  0.6137
   45CHL1  H22A 3313   1.295   6.663   8.061 -0.4038 -4.0594  2.1745
   45CHL1  H22B 3314   1.408   6.533   8.029  0.4332  0.7633  1.8193
   45CHL1   C23 3315   1.479   6.693   8.155 -0.3829  0.9421 -0.6003
   45CHL1  H23A 3316   1.582   6.656   8.134  0.1126  1.1862  1.2224
   45CHL1  H23B 3317   1.480   6.804   8.147 -0.6059  0.9348 -0.7259
   45CHL1   C24 3318   1.417   6.643   8.292 -0.2779 -0.2053 -0.4344
   45CHL1  H24A 3319   1.309   6.668   8.288 -0.5580 -0.6054  2.5963
   45CHL1  H24B 3320   1.418   6.533   8.302  2.3459 -0.1124  1.4058
   45CHL1   C25 3321   1.486   6.705   8.417 -0.1735 -0.0618 -0.0086
   45CHL1   H25 3322   1.467   6.815   8.415  0.2073 -0.0020 -0.6914
   45CHL1   C26 3323   1.433   6.642   8.550  0.0046  0.3886  1.0167
   45CHL1  H26A 3324   1.470   6.538   8.561  0.7572  0.5671  0.2991
   45CHL1  H26B 3325   1.486   6.697   8.631  0.8502 -0.4296  1.0414
   45CHL1  H26C 3326   1.324   6.650   8.565 -0.3804  0.0575 -1.2536
   45CHL1   C27 3327   1.637   6.692   8.419  0.6400 -0.0938  0.8803
   45CHL1  H27A 3328   1.658   6.585   8.398 -0.0356  0.0247 -0.4959
   45CHL1  H27B 3329   1.687   6.752   8.340  0.7819 -0.8455  0.3806
   45CHL1  H27C 3330   1.674   6.728   8.517 -1.3291  2.0466  0.9297
   46CHL1    C3 3331   2.271   1.238   7.014  0.1784 -0.1636  0.0001
   46CHL1    H3 3332   2.375   1.225   7.051  0.7229 -0.9500 -1.6965
   46CHL1    O3 3333   2.268   1.191   6.879  0.1608  0.0780 -0.2551
   46CHL1   H3' 3334   2.301   1.101   6.879  0.4745  0.1775  1.0388
   46CHL1    C4 3335   2.168   1.166   7.094  0.5165  0.1320 -0.7752
   46CHL1   H4A 3336   2.065   1.194   7.062 -0.1550  0.9226  1.8427
   46CHL1   H4B 3337   2.186   1.056   7.090 -1.2953 -0.1635 -1.8559
   46CHL1    C5 3338   2.168   1.220   7.242 -0.2139  0.1851  0.3094
   46CHL1    C6 3339   2.193   1.137   7.343  0.1256  1.2809  0.4069
   46CHL1    H6 3340   2.202   1.029   7.324 -0.0340  0.9973  1.8119
   46CHL1    C7 3341   2.201   1.178   7.489 -0.6437 -0.1138 -0.2279
   46CHL1   H7A 3342   2.131   1.122   7.556 -2.9894  0.6122 -1.9496
   46CHL1   H7B 3343   2.305   1.164   7.527 -0.6002  0.1951 -0.2316
   46CHL1    C8 3344   2.147   1.323   7.505  0.2476 -0.7810  0.3312
   46CHL1    H8 3345   2.038   1.308   7.517  0.1212 -1.4503 -1.3930
   46CHL1   C14 3346   2.192   1.390   7.629 -0.0249 -0.2828  0.4730
   46CHL1   H14 3347   2.303   1.388   7.628 -0.0261 -2.2379 -0.8881
   46CHL1   C15 3348   2.171   1.306   7.754  0.1281  0.2871 -0.5998
   46CHL1  H15A 3349   2.066   1.270   7.752  0.2440 -0.2712  1.1354
   46CHL1  H15B 3350   2.234   1.215   7.758 -1.4835 -1.1319 -3.8562
   46CHL1   C16 3351   2.184   1.405   7.871  0.5526  0.8080 -0.2331
   46CHL1  H16A 3352   2.086   1.414   7.922  0.4326 -1.1197 -0.0520
   46CHL1  H16B 3353   2.260   1.377   7.947 -0.8828  1.6164  1.5691
   46CHL1   C17 3354   2.213   1.539   7.801  0.2318 -0.2893  0.6716
   46CHL1   H17 3355   2.323   1.532   7.789  0.2144  0.4127  0.0182
   46CHL1   C13 3356   2.142   1.529   7.661  0.6008 -0.1365 -0.2040
   46CHL1   C18 3357   1.989   1.538   7.682  0.3901  0.0321 -0.7950
   46CHL1  H18A 3358   1.963   1.634   7.731  1.3692 -0.6521  1.1718
   46CHL1  H18B 3359   1.924   1.531   7.592 -2.4443 -2.9038  1.2297
   46CHL1  H18C 3360   1.955   1.454   7.747  1.5395 -0.4001 -0.7371
   46CHL1   C12 3361   2.191   1.620   7.552 -0.6708 -0.3366  0.2063
   46CHL1  H12A 3362   2.146   1.720   7.568 -0.9215 -0.2045 -1.2200
   46CHL1  H12B 3363   2.302   1.623   7.551 -0.6671 -0.6954 -0.9783
   46CHL1   C11 3364   2.148   1.575   7.411 -0.3441  0.4597 -1.3350
   46CHL1  H11A 3365   2.038   1.585   7.412 -0.3465  0.7228  1.4386
   46CHL1  H11B 3366   2.190   1.633   7.325  1.6314 -0.5096 -1.0853
   46CHL1    C9 3367   2.180   1.425   7.397 -0.4499  0.8573 -0.0187
   46CHL1    H9 3368   2.291   1.417   7.402 -0.4367  0.4101 -0.8771
   46CHL1   C10 3369   2.142   1.372   7.258  0.5970 -0.0011  0.9074
   46CHL1   C19 3370   1.993   1.407   7.229 -0.0478  0.2554 -0.4149
   46CHL1  H19A 3371   1.957   1.372   7.129 -0.3322  1.3386 -0.7010
   46CHL1  H19B 3372   1.946   1.367   7.322  3.7486 -1.9990  0.7625
   46CHL1  H19C 3373   1.976   1.516   7.223  0.7104  0.3904 -0.1026
   46CHL1    C1 3374   2.227   1.444   7.152 -0.3964 -0.0763  0.1659
   46CHL1   H1A 3375   2.203   1.552   7.150 -0.3922 -0.0026  2.2671
   46CHL1   H1B 3376   2.326   1.452   7.201  1.8388 -3.7557 -3.1509
   46CHL1    C2 3377   2.232   1.388   7.010  0.1557  0.3457  0.6505
   46CHL1   H2A 3378   2.306   1.453   6.958 -0.3452 -0.2310 -0.8337
   46CHL1   H2B 3379   2.133   1.400   6.961 -0.6552 -0.5805  2.0062
   46CHL1   C20 3380   2.189   1.660   7.895  0.5160 -0.3238  0.0397
   46CHL1   H20 3381   2.081   1.679   7.909  0.1815 -1.3485 -0.9934
   46CHL1   C21 3382   2.253   1.779   7.820  0.3197 -0.2771  0.6773
   46CHL1  H21A 3383   2.266   1.872   7.878  0.5287  0.2603 -0.2178
   46CHL1  H21B 3384   2.186   1.801   7.734  0.1810 -0.3680  0.7623
   46CHL1  H21C 3385   2.357   1.752   7.789 -1.0230 -2.8173 -2.1782
   46CHL1   C22 3386   2.253   1.646   8.040 -0.1503  0.2607  1.0466
   46CHL1  H22A 3387   2.343   1.584   8.019 -1.8984 -1.3153 -2.9070
   46CHL1  H22B 3388   2.282   1.751   8.062 -1.1528  1.2024 -1.6577
   46CHL1   C23 3389   2.173   1.582   8.153 -0.1828  0.0272 -0.2994
   46CHL1  H23A 3390   2.071   1.627   8.150 -0.0897  0.2979  0.5328
   46CHL1  H23B 3391   2.170   1.472   8.140  0.6551 -0.2008  1.2352
   46CHL1   C24 3392   2.239   1.603   8.294 -0.0917  0.4162  0.4839
   46CHL1  H24A 3393   2.350   1.595   8.294 -0.1394 -0.5013  0.9565
   46CHL1  H24B 3394   2.219   1.704   8.334 -0.0229  0.1502  1.2160
   46CHL1   C25 3395   2.186   1.508   8.404 -0.3796  0.6588  0.8727
   46CHL1   H25 3396   2.183   1.400   8.378  1.8421  0.9595 -0.9401
   46CHL1   C26 3397   2.275   1.507   8.533 -0.5270 -0.1902  0.1560
   46CHL1  H26A 3398   2.380   1.499   8.498 -0.8472 -1.4555 -0.5710
   46CHL1  H26B 3399   2.253   1.604   8.583 -1.6317  0.5304 -1.6276
   46CHL1  H26C 3400   2.252   1.422   8.600 -2.8226  0.5190  0.3586
   46CHL1   C27 3401   2.042   1.548   8.433  0.4182  0.3295  0.1947
   46CHL1  H27A 3402   1.978   1.517   8.348  0.9925 -1.3738  0.3548
   46CHL1  H27B 3403   2.006   1.497   8.525  1.9124 -1.5013 -0.1985
   46CHL1  H27C 3404   2.015   1.655   8.448 -3.2125 -0.4355 -0.0054
   47CHL1    C3 3405   1.583   1.944   6.817  0.0173 -0.4343  0.4154
   47CHL1    H3 3406   1.621   1.853   6.869  0.8156  1.0774  2.6163
   47CHL1    O3 3407   1.590   1.929   6.672  0.4245 -0.3303 -0.1543
   47CHL1   H3' 3408   1.626   2.012   6.641  1.6589 -1.1127 -0.9255
   47CHL1    C4 3409   1.436   1.953   6.858 -0.7808  0.2652 -0.2728
   47CHL1   H4A 3410   1.388   2.033   6.797 -2.1845  1.7340  2.5603
   47CHL1   H4B 3411   1.381   1.861   6.832 -1.3128  0.5219 -0.0578
   47CHL1    C5 3412   1.412   1.973   7.007  0.2675  0.7481  0.4691
   47CHL1    C6 3413   1.333   1.899   7.087  0.4472 -1.0103  1.0838
   47CHL1    H6 3414   1.279   1.812   7.049 -1.1082  0.7893 -1.1236
   47CHL1    C7 3415   1.313   1.940   7.229 -0.0332  0.2174  0.2894
   47CHL1   H7A 3416   1.207   1.925   7.257 -0.2959  1.7748  0.2119
   47CHL1   H7B 3417   1.369   1.867   7.290 -0.1326 -0.2100 -0.1292
   47CHL1    C8 3418   1.369   2.077   7.274  0.4810 -0.0799 -0.1185
   47CHL1    H8 3419   1.289   2.149   7.246  0.5306  0.4614  1.0735
   47CHL1   C14 3420   1.391   2.078   7.426 -0.3775 -0.1468  0.1798
   47CHL1   H14 3421   1.474   2.004   7.434 -0.0211  0.2112 -0.1393
   47CHL1   C15 3422   1.290   2.016   7.523  0.6848  0.0248 -0.6585
   47CHL1  H15A 3423   1.192   2.056   7.489  1.0269  0.9637 -0.5776
   47CHL1  H15B 3424   1.305   1.907   7.506 -0.0059 -0.3359  0.8422
   47CHL1   C16 3425   1.341   2.058   7.665  0.1506  0.2936  0.2527
   47CHL1  H16A 3426   1.257   2.108   7.717  0.7176  3.4270 -1.5841
   47CHL1  H16B 3427   1.375   1.963   7.711 -0.4640 -0.1336 -0.1610
   47CHL1   C17 3428   1.460   2.152   7.642 -0.1598 -0.6526  1.2964
   47CHL1   H17 3429   1.552   2.091   7.646 -0.3973 -1.1108  0.1402
   47CHL1   C13 3430   1.444   2.198   7.493 -0.6371 -0.6159  0.1459
   47CHL1   C18 3431   1.337   2.306   7.480  0.6420 -0.4032  0.3260
   47CHL1  H18A 3432   1.241   2.294   7.536 -0.0136  2.1671 -0.1307
   47CHL1  H18B 3433   1.377   2.401   7.523 -1.0959  0.7013 -0.3889
   47CHL1  H18C 3434   1.315   2.336   7.376  1.6483  0.0143  0.2265
   47CHL1   C12 3435   1.578   2.239   7.423  0.1734 -0.3199 -0.1923
   47CHL1  H12A 3436   1.626   2.335   7.453  2.0433 -1.4537  0.6321
   47CHL1  H12B 3437   1.654   2.161   7.444  0.4663  0.5579  2.4530
   47CHL1   C11 3438   1.548   2.241   7.274 -0.5997  0.3647  0.1596
   47CHL1  H11A 3439   1.480   2.327   7.259  0.6942  1.0187 -2.6369
   47CHL1  H11B 3440   1.643   2.274   7.227  0.0112 -0.7368  0.5814
   47CHL1    C9 3441   1.500   2.111   7.209 -0.0941 -0.5569  0.1792
   47CHL1    H9 3442   1.569   2.028   7.237  0.2662  0.0071  1.0049
   47CHL1   C10 3443   1.500   2.094   7.056 -0.1232  0.1793  0.3706
   47CHL1   C19 3444   1.427   2.222   7.004  0.8253 -0.4188 -0.0175
   47CHL1  H19A 3445   1.421   2.218   6.893  0.6006  0.3224 -0.0416
   47CHL1  H19B 3446   1.326   2.224   7.051  1.0677  0.7423  0.5027
   47CHL1  H19C 3447   1.485   2.312   7.036  0.2593  0.4794 -1.4032
   47CHL1    C1 3448   1.650   2.102   7.005  0.8779  0.4247 -0.3457
   47CHL1   H1A 3449   1.689   2.206   7.015  1.2484  0.0936  2.1720
   47CHL1   H1B 3450   1.705   2.032   7.070 -1.9139 -0.5700  1.1169
   47CHL1    C2 3451   1.668   2.067   6.854 -0.6351  0.2404 -0.9754
   47CHL1   H2A 3452   1.775   2.066   6.824  0.0237  0.4654  1.1802
   47CHL1   H2B 3453   1.621   2.148   6.794 -0.4405 -0.6465 -2.3598
   47CHL1   C20 3454   1.465   2.268   7.746  1.1166 -0.3627  0.1518
   47CHL1   H20 3455   1.369   2.322   7.737  1.1880 -0.6184 -3.3233
   47CHL1   C21 3456   1.567   2.379   7.709 -0.0717 -0.3407 -0.1512
   47CHL1  H21A 3457   1.545   2.436   7.615  0.2541  0.5408  0.2923
   47CHL1  H21B 3458   1.666   2.331   7.714  1.0926  2.0240  1.0807
   47CHL1  H21C 3459   1.570   2.455   7.790  0.4079  0.6549 -1.0675
   47CHL1   C22 3460   1.482   2.219   7.891  0.1996 -0.9321  0.2532
   47CHL1  H22A 3461   1.423   2.125   7.905 -1.8372  0.2086 -0.2364
   47CHL1  H22B 3462   1.587   2.190   7.914  1.2367  1.1830 -1.4572
   47CHL1   C23 3463   1.427   2.306   8.003  0.2607 -0.0803  0.1761
   47CHL1  H23A 3464   1.491   2.397   8.006 -0.5936  0.5813 -0.8824
   47CHL1  H23B 3465   1.324   2.337   7.976  1.2232  2.4209 -0.9373
   47CHL1   C24 3466   1.421   2.225   8.136 -0.1621 -0.1434  0.1217
   47CHL1  H24A 3467   1.326   2.245   8.190 -0.3630 -1.3587  0.2468
   47CHL1  H24B 3468   1.406   2.118   8.109 -1.5118  0.0503  0.0456
   47CHL1   C25 3469   1.539   2.225   8.231 -0.9240  1.4603  0.5658
   47CHL1   H25 3470   1.554   2.328   8.271  0.6308  0.2419  3.4115
   47CHL1   C26 3471   1.510   2.128   8.346 -0.0317  0.5123  0.4384
   47CHL1  H26A 3472   1.424   2.168   8.404 -0.0970  0.9413  0.0526
   47CHL1  H26B 3473   1.483   2.026   8.310  0.4266  0.2931  0.7073
   47CHL1  H26C 3474   1.601   2.120   8.409 -0.6715 -0.1374  1.3017
   47CHL1   C27 3475   1.664   2.166   8.163 -0.3655 -0.3738  0.0791
   47CHL1  H27A 3476   1.735   2.134   8.242 -0.2339 -2.4643 -0.8318
   47CHL1  H27B 3477   1.645   2.081   8.094 -0.1892 -0.5152  0.2050
   47CHL1  H27C 3478   1.714   2.243   8.101 -2.5708 -0.4542 -1.9443
   48CHL1    C3 3479   5.147   3.962   6.369 -0.2508  0.4277 -0.0135
   48CHL1    H3 3480   5.186   3.871   6.420  2.5673  1.3687 -0.3577
   48CHL1    O3 3481   5.163   3.967   6.223 -0.1634 -0.3586  0.3375
   48CHL1   H3' 3482   5.253   3.998   6.210  0.1141 -1.7443 -1.4915
   48CHL1    C4 3483   4.997   3.958   6.398 -0.2450 -0.2409 -0.1948
   48CHL1   H4A 3484   4.965   4.051   6.347  1.3397 -0.5995 -1.9338
   48CHL1   H4B 3485   4.950   3.870   6.350  0.6790 -0.1935 -1.2026
   48CHL1    C5 3486   4.964   3.960   6.546 -0.1795 -0.4649  0.4282
   48CHL1    C6 3487   4.884   3.868   6.612  0.0317 -0.1578 -0.0955
   48CHL1    H6 3488   4.844   3.777   6.564 -1.0308 -0.1607  0.7646
   48CHL1    C7 3489   4.836   3.885   6.752  0.3926  0.5917  0.8113
   48CHL1   H7A 3490   4.727   3.865   6.745  0.5131 -0.2609  1.2233
   48CHL1   H7B 3491   4.887   3.806   6.811 -3.4866 -0.6981  2.7488
   48CHL1    C8 3492   4.859   4.027   6.807 -0.2440 -0.0094  0.9614
   48CHL1    H8 3493   4.792   4.103   6.764  2.5742  2.0490 -0.0938
   48CHL1   C14 3494   4.851   4.032   6.963  0.7661  0.5704 -0.4028
   48CHL1   H14 3495   4.932   3.963   6.996  1.3385  0.6809 -1.5331
   48CHL1   C15 3496   4.730   3.962   7.030 -0.5708  0.6468 -0.5591
   48CHL1  H15A 3497   4.631   3.961   6.979 -2.3668 -0.5527  2.6501
   48CHL1  H15B 3498   4.748   3.853   7.044 -0.0831  0.7470 -0.3934
   48CHL1   C16 3499   4.720   4.028   7.171 -0.4880 -0.3714  0.0828
   48CHL1  H16A 3500   4.621   4.079   7.177  0.0166  0.6571 -0.2032
   48CHL1  H16B 3501   4.715   3.960   7.259 -1.0171 -1.0048 -0.4203
   48CHL1   C17 3502   4.837   4.135   7.177  0.6347 -0.2675  0.2624
   48CHL1   H17 3503   4.925   4.083   7.219  1.0627  0.6003  0.4744
   48CHL1   C13 3504   4.865   4.170   7.026  0.0169  0.7649 -0.4275
   48CHL1   C18 3505   4.752   4.265   6.978  0.4481 -0.2374 -0.4582
   48CHL1  H18A 3506   4.755   4.361   7.034  0.2877 -1.3336  1.5337
   48CHL1  H18B 3507   4.752   4.290   6.870  1.0664  0.7431 -0.2383
   48CHL1  H18C 3508   4.654   4.217   7.003  0.3072 -0.0930 -0.7281
   48CHL1   C12 3509   5.008   4.213   6.995  0.2990 -0.7246  0.3181
   48CHL1  H12A 3510   5.013   4.319   7.030  1.1405 -0.1937 -1.3318
   48CHL1  H12B 3511   5.073   4.143   7.051  0.8872 -2.2650 -2.1518
   48CHL1   C11 3512   5.042   4.209   6.848  0.6753 -0.3534 -0.5142
   48CHL1  H11A 3513   4.993   4.300   6.809 -0.0209 -1.5209 -2.5173
   48CHL1  H11B 3514   5.151   4.223   6.833  1.3386 -2.0363  2.0941
   48CHL1    C9 3515   5.004   4.074   6.773  0.3882 -0.3364 -0.0965
   48CHL1    H9 3516   5.072   3.999   6.819  1.2057  1.0536  1.0766
   48CHL1   C10 3517   5.026   4.085   6.620  0.6812  0.2807  0.3485
   48CHL1   C19 3518   4.953   4.212   6.575  0.1170 -0.0314  0.6042
   48CHL1  H19A 3519   4.993   4.310   6.609 -0.5005  0.4241  0.0462
   48CHL1  H19B 3520   4.961   4.219   6.464 -1.1454 -0.1269  0.5026
   48CHL1  H19C 3521   4.847   4.209   6.605 -0.5822  1.3956 -1.5092
   48CHL1    C1 3522   5.178   4.083   6.581 -0.6031 -0.0365  0.0759
   48CHL1   H1A 3523   5.211   4.182   6.618 -0.2560 -0.7084  1.6636
   48CHL1   H1B 3524   5.215   3.997   6.641 -1.0494 -0.3523 -0.0927
   48CHL1    C2 3525   5.218   4.076   6.436  0.3361  0.1227  0.2914
   48CHL1   H2A 3526   5.328   4.074   6.426  0.3812  1.5908  0.2711
   48CHL1   H2B 3527   5.163   4.161   6.390  0.0933  1.3814  2.7790
   48CHL1   C20 3528   4.811   4.245   7.284 -0.1459  0.1363  0.3392
   48CHL1   H20 3529   4.735   4.321   7.257  0.2939  1.2668  2.0561
   48CHL1   C21 3530   4.950   4.299   7.318 -0.1626  0.3979  1.1861
   48CHL1  H21A 3531   5.016   4.215   7.348 -0.7235 -0.0525  1.1766
   48CHL1  H21B 3532   4.940   4.359   7.411  1.1234 -1.4764  2.6052
   48CHL1  H21C 3533   5.008   4.356   7.243  0.6947  1.2613  2.4670
   48CHL1   C22 3534   4.753   4.177   7.417 -0.2757  0.1600 -0.0463
   48CHL1  H22A 3535   4.656   4.138   7.380  0.1540  0.3393 -1.4540
   48CHL1  H22B 3536   4.826   4.097   7.439  0.2838  1.1892  2.0405
   48CHL1   C23 3537   4.728   4.257   7.550 -0.3731 -0.8002  0.0647
   48CHL1  H23A 3538   4.832   4.290   7.573 -0.4156 -1.1651  0.8028
   48CHL1  H23B 3539   4.661   4.345   7.539 -0.2302 -0.7713 -0.6326
   48CHL1   C24 3540   4.676   4.167   7.657  0.2921  0.2158 -0.2011
   48CHL1  H24A 3541   4.568   4.158   7.637  0.7004 -0.0022 -2.5020
   48CHL1  H24B 3542   4.725   4.068   7.645  0.2074  0.0080  1.0322
   48CHL1   C25 3543   4.697   4.221   7.797 -0.0996 -0.1353  0.5010
   48CHL1   H25 3544   4.804   4.253   7.802 -0.1375  0.3997 -1.3977
   48CHL1   C26 3545   4.606   4.346   7.816 -0.4968 -0.2081  0.0629
   48CHL1  H26A 3546   4.507   4.326   7.769 -0.6954 -0.2405  0.4878
   48CHL1  H26B 3547   4.605   4.369   7.925  1.0895 -0.6827  0.2105
   48CHL1  H26C 3548   4.663   4.429   7.768 -0.4196 -0.0686  0.3939
   48CHL1   C27 3549   4.668   4.129   7.915  0.2425  0.1585 -0.3452
   48CHL1  H27A 3550   4.736   4.041   7.919  2.5262  1.8654  0.1925
   48CHL1  H27B 3551   4.681   4.175   8.016 -1.8148  0.1786 -0.0381
   48CHL1  H27C 3552   4.565   4.086   7.913  0.7606 -1.1080 -2.4537
   49CHL1    C3 3553   2.799   5.082   6.696 -0.2638  0.3253  0.0644
   49CHL1    H3 3554   2.748   5.006   6.760  0.4121  1.8335  2.5573
   49CHL1    O3 3555   2.800   5.041   6.562 -0.0683 -0.1900 -0.6194
   49CHL1   H3' 3556   2.882   5.077   6.527  1.3314 -0.2555  2.2873
   49CHL1    C4 3557   2.747   5.223   6.718  0.2113 -0.7476  0.3485
   49CHL1   H4A 3558   2.810   5.283   6.649 -0.4655 -2.4031 -1.7969
   49CHL1   H4B 3559   2.642   5.220   6.682  0.2409 -1.1724  0.2846
   49CHL1    C5 3560   2.753   5.264   6.863  0.1479 -0.1396 -0.0436
   49CHL1    C6 3561   2.639   5.298   6.928  0.7038 -0.4584 -0.0273
   49CHL1    H6 3562   2.542   5.290   6.876  0.1731  1.9483  0.4490
   49CHL1    C7 3563   2.641   5.337   7.069  0.0901  0.1639 -0.0228
   49CHL1   H7A 3564   2.587   5.432   7.094  2.2345  0.9466  2.0074
   49CHL1   H7B 3565   2.590   5.257   7.126 -1.1032 -0.8039 -2.3295
   49CHL1    C8 3566   2.784   5.365   7.137 -0.0921  0.2397 -0.3791
   49CHL1    H8 3567   2.805   5.468   7.100  0.2826 -0.3534 -1.8771
   49CHL1   C14 3568   2.773   5.368   7.281 -0.0246 -0.2447  0.3442
   49CHL1   H14 3569   2.722   5.274   7.313  1.0154 -0.6264  0.9151
   49CHL1   C15 3570   2.673   5.468   7.347 -0.3372  0.0756  0.1492
   49CHL1  H15A 3571   2.695   5.570   7.310 -2.4874  0.1507 -1.0845
   49CHL1  H15B 3572   2.566   5.440   7.336 -0.3874  0.8880 -1.9003
   49CHL1   C16 3573   2.710   5.454   7.496 -0.3967 -0.4709  0.0374
   49CHL1  H16A 3574   2.722   5.560   7.526 -0.5828 -0.1168 -1.1216
   49CHL1  H16B 3575   2.631   5.402   7.555 -0.8776 -0.0775 -0.2516
   49CHL1   C17 3576   2.850   5.379   7.508  0.1050 -0.4034  0.9071
   49CHL1   H17 3577   2.834   5.272   7.532 -0.2292 -1.0944 -2.0097
   49CHL1   C13 3578   2.901   5.374   7.357  0.3498  0.4073 -0.1917
   49CHL1   C18 3579   2.956   5.515   7.336 -0.1531  0.1116 -0.3147
   49CHL1  H18A 3580   3.059   5.535   7.371  0.8563 -2.6403 -1.4374
   49CHL1  H18B 3581   2.954   5.535   7.227 -3.0739  1.2407 -0.1570
   49CHL1  H18C 3582   2.889   5.590   7.384  1.3645  0.4687  1.3209
   49CHL1   C12 3583   2.994   5.259   7.318 -0.4281 -0.1831  0.0716
   49CHL1  H12A 3584   3.096   5.270   7.362 -0.5558  1.4042  0.0468
   49CHL1  H12B 3585   2.949   5.162   7.347  0.2083 -0.2052  1.0387
   49CHL1   C11 3586   3.025   5.266   7.161  0.2115  0.2069  0.1939
   49CHL1  H11A 3587   3.086   5.356   7.140  1.4365 -0.6339  0.0642
   49CHL1  H11B 3588   3.087   5.176   7.145 -0.1332 -0.2361  1.2801
   49CHL1    C9 3589   2.886   5.265   7.089 -0.2285  0.4756 -0.0340
   49CHL1    H9 3590   2.848   5.165   7.119  0.2065 -0.1381 -1.4563
   49CHL1   C10 3591   2.888   5.254   6.931  0.1042 -0.1247 -0.2644
   49CHL1   C19 3592   2.971   5.377   6.878  0.3483 -0.7021 -0.2151
   49CHL1  H19A 3593   2.904   5.462   6.901  0.5712 -0.5391 -0.1689
   49CHL1  H19B 3594   3.069   5.380   6.931  0.0365  2.5216  0.3581
   49CHL1  H19C 3595   2.978   5.367   6.768  0.9344  1.7688 -0.4620
   49CHL1    C1 3596   2.960   5.119   6.894 -0.0875  1.1524 -0.3193
   49CHL1   H1A 3597   3.066   5.112   6.925  0.5668  1.0235 -2.4062
   49CHL1   H1B 3598   2.908   5.040   6.952  0.4108  1.6912  0.9007
   49CHL1    C2 3599   2.948   5.077   6.754  0.0879  0.3968 -0.2980
   49CHL1   H2A 3600   2.989   4.979   6.719 -0.9616  0.0863 -0.6766
   49CHL1   H2B 3601   2.995   5.154   6.690 -0.9705  0.2111 -1.3329
   49CHL1   C20 3602   2.943   5.426   7.619  0.4601 -0.2062 -0.4278
   49CHL1   H20 3603   2.996   5.518   7.586  0.4701 -0.3138 -0.7114
   49CHL1   C21 3604   3.042   5.311   7.646  0.1909 -0.8273 -0.3074
   49CHL1  H21A 3605   2.991   5.222   7.688 -1.4029 -0.2936 -1.0388
   49CHL1  H21B 3606   3.123   5.340   7.717 -1.4443 -0.7614  1.6274
   49CHL1  H21C 3607   3.093   5.264   7.560  2.2433  0.5934  0.0499
   49CHL1   C22 3608   2.860   5.466   7.745 -0.0767  0.2132 -0.2710
   49CHL1  H22A 3609   2.780   5.540   7.722 -0.4041  0.0829  0.4347
   49CHL1  H22B 3610   2.815   5.370   7.778  1.9811 -0.4594  0.7180
   49CHL1   C23 3611   2.950   5.525   7.854 -0.5894  0.6384  0.4882
   49CHL1  H23A 3612   3.040   5.464   7.879 -0.8147  0.6186  1.2600
   49CHL1  H23B 3613   2.994   5.624   7.832 -1.1248  0.9456  0.7836
   49CHL1   C24 3614   2.866   5.530   7.980  0.0849  0.6875  1.2132
   49CHL1  H24A 3615   2.774   5.586   7.950 -0.6642 -1.7412 -1.5440
   49CHL1  H24B 3616   2.825   5.428   7.996 -1.0106  0.9618  0.3339
   49CHL1   C25 3617   2.924   5.595   8.105  0.3860  0.6561  0.3165
   49CHL1   H25 3618   2.980   5.681   8.062  1.3358 -0.8934 -1.7388
   49CHL1   C26 3619   2.806   5.651   8.185  0.4212  0.9459 -0.3723
   49CHL1  H26A 3620   2.732   5.709   8.126  1.0100  1.2469 -0.8266
   49CHL1  H26B 3621   2.755   5.563   8.228  1.4723 -0.9435 -2.7424
   49CHL1  H26C 3622   2.829   5.716   8.272 -0.8657 -1.6207  2.0507
   49CHL1   C27 3623   3.024   5.500   8.168  0.2654 -0.9809 -0.2896
   49CHL1  H27A 3624   3.081   5.551   8.249 -0.1530  0.2522 -0.7499
   49CHL1  H27B 3625   2.971   5.414   8.213 -1.1719 -0.0118 -0.0663
   49CHL1  H27C 3626   3.095   5.468   8.089 -2.4020 -1.2264 -2.7287
   50CHL1    C3 3627   3.661   5.701   6.795 -0.4579  0.0211 -0.2355
   50CHL1    H3 3628   3.765   5.690   6.831 -0.9722  0.5805  1.5898
   50CHL1    O3 3629   3.631   5.594   6.713  0.1370 -0.0936  0.2182
   50CHL1   H3' 3630   3.697   5.587   6.644  0.3636 -0.0094  0.4241
   50CHL1    C4 3631   3.579   5.697   6.924  0.2735  0.1319 -0.2770
   50CHL1   H4A 3632   3.472   5.703   6.896  0.6053 -1.3775 -2.0623
   50CHL1   H4B 3633   3.597   5.597   6.967 -0.2718 -1.2931 -3.1199
   50CHL1    C5 3634   3.623   5.812   7.020  0.5181  0.3260 -0.0652
   50CHL1    C6 3635   3.668   5.802   7.147 -0.2439  0.1256 -0.1677
   50CHL1    H6 3636   3.680   5.704   7.196  2.3843  0.7317  0.5382
   50CHL1    C7 3637   3.701   5.918   7.238  0.1820  0.2075 -0.2808
   50CHL1   H7A 3638   3.663   5.893   7.340  0.7133 -0.3828 -0.2164
   50CHL1   H7B 3639   3.812   5.927   7.245  0.4447 -0.4823 -2.7436
   50CHL1    C8 3640   3.644   6.047   7.185  0.5924 -0.1103 -0.3344
   50CHL1    H8 3641   3.533   6.041   7.194  0.5674 -0.0787 -0.6141
   50CHL1   C14 3642   3.688   6.168   7.267 -0.5044 -0.0763  0.4201
   50CHL1   H14 3643   3.799   6.168   7.255 -0.5126 -0.8716  0.2518
   50CHL1   C15 3644   3.673   6.158   7.419  0.1679 -0.5537  0.5748
   50CHL1  H15A 3645   3.583   6.097   7.443  0.5282 -2.3900 -2.2684
   50CHL1  H15B 3646   3.762   6.103   7.457 -0.6848 -1.8724  0.6993
   50CHL1   C16 3647   3.657   6.305   7.465 -0.3391 -0.5746  0.0423
   50CHL1  H16A 3648   3.549   6.303   7.490 -0.0132 -3.6515  1.6468
   50CHL1  H16B 3649   3.714   6.346   7.551 -1.4215 -0.2078  0.5954
   50CHL1   C17 3650   3.689   6.394   7.337  0.1582 -0.1640  0.1727
   50CHL1   H17 3651   3.799   6.402   7.321 -0.1414  2.3361 -1.2273
   50CHL1   C13 3652   3.635   6.301   7.222  0.2258 -0.1883 -0.6017
   50CHL1   C18 3653   3.481   6.305   7.216 -0.5079  0.2095  0.1248
   50CHL1  H18A 3654   3.433   6.295   7.315 -0.2895 -1.9119  0.0689
   50CHL1  H18B 3655   3.461   6.405   7.171  2.1955  0.6425 -0.2647
   50CHL1  H18C 3656   3.450   6.221   7.151 -0.4035  0.1403  0.1650
   50CHL1   C12 3657   3.692   6.328   7.083  0.6767  0.5149  0.1769
   50CHL1  H12A 3658   3.646   6.422   7.043 -0.3882 -0.5097 -1.1133
   50CHL1  H12B 3659   3.803   6.336   7.087  0.6805  3.4618 -1.9963
   50CHL1   C11 3660   3.659   6.211   6.984  0.4780 -0.0235  0.1722
   50CHL1  H11A 3661   3.550   6.227   6.972  0.4779  0.3399  0.6200
   50CHL1  H11B 3662   3.708   6.234   6.887  1.9136  1.1457  1.1284
   50CHL1    C9 3663   3.677   6.066   7.042 -0.1692  0.0256  0.8488
   50CHL1    H9 3664   3.786   6.044   7.033 -0.4070 -1.4897  1.3453
   50CHL1   C10 3665   3.610   5.953   6.955 -0.6488 -0.1115 -0.1879
   50CHL1   C19 3666   3.454   5.979   6.941  0.5307 -0.1529  0.8158
   50CHL1  H19A 3667   3.395   5.905   6.882 -0.1707  1.3786 -0.4995
   50CHL1  H19B 3668   3.408   6.003   7.039 -1.3741  0.7194 -0.2403
   50CHL1  H19C 3669   3.437   6.066   6.874  3.1252  0.0221  0.2929
   50CHL1    C1 3670   3.680   5.955   6.815  0.2386  0.3927  0.3711
   50CHL1   H1A 3671   3.633   6.044   6.768  0.3345 -1.4963 -3.7693
   50CHL1   H1B 3672   3.790   5.970   6.824  0.0993  0.9764  1.2722
   50CHL1    C2 3673   3.639   5.834   6.725  0.0448  0.5410  0.4761
   50CHL1   H2A 3674   3.703   5.839   6.635  1.6671 -1.9131  1.3730
   50CHL1   H2B 3675   3.535   5.843   6.688  0.4245  2.8755 -0.2137
   50CHL1   C20 3676   3.627   6.533   7.345 -0.0807 -0.3239  0.0254
   50CHL1   H20 3677   3.517   6.526   7.332 -0.1968  0.8766  0.2027
   50CHL1   C21 3678   3.676   6.622   7.232  0.2987 -0.5333  0.4531
   50CHL1  H21A 3679   3.785   6.602   7.218  0.1273 -1.0551 -0.1758
   50CHL1  H21B 3680   3.662   6.728   7.263  2.0992  0.5455 -2.0670
   50CHL1  H21C 3681   3.611   6.615   7.143 -0.2627  2.6605  0.4858
   50CHL1   C22 3682   3.652   6.598   7.481  0.3469  0.2099  0.1487
   50CHL1  H22A 3683   3.595   6.692   7.473 -0.4904 -0.2540  0.5113
   50CHL1  H22B 3684   3.600   6.557   7.570  0.1837  2.4523  1.1517
   50CHL1   C23 3685   3.804   6.622   7.522 -0.3941  0.0799  0.1636
   50CHL1  H23A 3686   3.858   6.531   7.554  1.3224  0.7295 -0.7157
   50CHL1  H23B 3687   3.857   6.671   7.437 -1.0704  0.4602 -0.0486
   50CHL1   C24 3688   3.805   6.727   7.636 -0.0030  0.1850  0.2657
   50CHL1  H24A 3689   3.909   6.763   7.622  0.1520 -0.8065 -1.3700
   50CHL1  H24B 3690   3.739   6.812   7.606  2.2587  2.2018  0.6644
   50CHL1   C25 3691   3.764   6.686   7.778 -0.3710  0.8351  0.9380
   50CHL1   H25 3692   3.654   6.671   7.781 -0.0424 -1.7339  2.5237
   50CHL1   C26 3693   3.814   6.548   7.815 -0.6680  0.1058 -0.3932
   50CHL1  H26A 3694   3.761   6.463   7.766 -1.3531 -0.2797  0.9758
   50CHL1  H26B 3695   3.919   6.535   7.782 -0.2970 -3.0937  1.5582
   50CHL1  H26C 3696   3.805   6.545   7.926 -0.5053 -0.9008 -0.4002
   50CHL1   C27 3697   3.792   6.780   7.895 -0.4175  0.8810  0.4816
   50CHL1  H27A 3698   3.902   6.787   7.904 -0.3972  1.8257 -0.3096
   50CHL1  H27B 3699   3.743   6.874   7.861 -0.8582  0.9304  1.2398
   50CHL1  H27C 3700   3.750   6.733   7.986  0.6970 -0.6246  0.2681
   51CHL1    C3 3701   3.169   4.492   6.937 -0.7232 -0.2450 -0.3270
   51CHL1    H3 3702   3.233   4.410   6.978  0.2609  0.3250 -0.7029
   51CHL1    O3 3703   3.137   4.478   6.797 -0.1817  0.3423 -0.2759
   51CHL1   H3' 3704   3.082   4.554   6.779  0.9903  1.5968  1.1727
   51CHL1    C4 3705   3.043   4.494   7.031 -0.1180 -0.8396 -0.8118
   51CHL1   H4A 3706   2.967   4.570   7.003 -0.9676 -0.9959  0.9371
   51CHL1   H4B 3707   2.994   4.394   7.038 -1.4951 -0.1358  0.0936
   51CHL1    C5 3708   3.077   4.540   7.173 -0.2823 -0.8715 -0.1243
   51CHL1    C6 3709   3.047   4.463   7.276 -0.0872 -0.3564 -0.0770
   51CHL1    H6 3710   2.978   4.379   7.258 -0.5868 -0.1447  0.7755
   51CHL1    C7 3711   3.092   4.491   7.412 -0.7396 -0.4024  0.2385
   51CHL1   H7A 3712   3.020   4.461   7.491  0.5524 -1.5036  1.0433
   51CHL1   H7B 3713   3.179   4.423   7.428 -0.0785  0.4671  0.4202
   51CHL1    C8 3714   3.140   4.639   7.440 -0.3442 -0.3910  1.1177
   51CHL1    H8 3715   3.050   4.704   7.442  0.5219  1.0183 -1.5784
   51CHL1   C14 3716   3.227   4.659   7.570  0.1304  0.7005  0.1680
   51CHL1   H14 3717   3.325   4.608   7.559  1.4293  3.1214 -0.0664
   51CHL1   C15 3718   3.150   4.614   7.701  0.5202 -0.2972  0.0480
   51CHL1  H15A 3719   3.046   4.654   7.697 -0.1068 -1.4040  2.8519
   51CHL1  H15B 3720   3.134   4.510   7.735  0.5545 -0.4651 -0.4374
   51CHL1   C16 3721   3.216   4.702   7.811 -0.0998  0.2069  0.3909
   51CHL1  H16A 3722   3.136   4.763   7.859 -2.8599 -1.9136 -1.2452
   51CHL1  H16B 3723   3.263   4.636   7.887 -0.4214 -0.0299  0.3837
   51CHL1   C17 3724   3.316   4.802   7.735  0.3049 -0.7254 -0.6783
   51CHL1   H17 3725   3.411   4.748   7.717  0.7211 -0.4470  0.5643
   51CHL1   C13 3726   3.257   4.809   7.592 -0.4546 -0.1260  0.3384
   51CHL1   C18 3727   3.135   4.905   7.595 -0.5214  0.8152  0.0306
   51CHL1  H18A 3728   3.071   4.877   7.681 -1.1515  1.1293 -0.3337
   51CHL1  H18B 3729   3.168   5.010   7.603 -0.0955  0.5658  1.9319
   51CHL1  H18C 3730   3.065   4.892   7.510  1.5221  1.9579 -1.9433
   51CHL1   C12 3731   3.350   4.854   7.478 -0.0217  0.2108 -0.1461
   51CHL1  H12A 3732   3.395   4.955   7.482  0.3838  0.1071 -1.4640
   51CHL1  H12B 3733   3.442   4.792   7.485  0.6705  1.4055  2.0592
   51CHL1   C11 3734   3.285   4.842   7.346  0.3327 -0.0527 -0.3368
   51CHL1  H11A 3735   3.199   4.912   7.335 -0.6285 -0.9145  1.2952
   51CHL1  H11B 3736   3.355   4.843   7.260 -0.6333 -3.2469 -1.2765
   51CHL1    C9 3737   3.229   4.694   7.324 -0.1902 -0.1987  0.7056
   51CHL1    H9 3738   3.308   4.615   7.328 -0.3414 -0.5164 -1.2286
   51CHL1   C10 3739   3.168   4.667   7.179  0.2432 -0.2231  0.4885
   51CHL1   C19 3740   3.073   4.781   7.134  0.0329  0.5521 -0.0864
   51CHL1  H19A 3741   3.039   4.764   7.030 -1.5397 -0.0681  0.4993
   51CHL1  H19B 3742   2.990   4.798   7.205  3.4286  2.7456  3.7898
   51CHL1  H19C 3743   3.135   4.873   7.126  0.5634  0.0907 -1.7275
   51CHL1    C1 3744   3.280   4.664   7.073 -0.1295  0.5386  0.0400
   51CHL1   H1A 3745   3.325   4.765   7.070  0.6610  0.2214  0.8265
   51CHL1   H1B 3746   3.362   4.599   7.109 -1.4629 -3.2661 -3.0886
   51CHL1    C2 3747   3.242   4.624   6.936 -0.0510 -0.4298  0.4954
   51CHL1   H2A 3748   3.337   4.608   6.881 -0.2270 -1.5839  0.5017
   51CHL1   H2B 3749   3.177   4.702   6.892 -0.3857 -0.6418  0.6104
   51CHL1   C20 3750   3.337   4.940   7.808 -0.0717 -0.1609  0.1366
   51CHL1   H20 3751   3.241   4.984   7.843 -0.7277 -1.0435 -0.5008
   51CHL1   C21 3752   3.416   5.044   7.731 -0.4492  0.0782 -0.6628
   51CHL1  H21A 3753   3.508   4.986   7.709 -0.6309 -1.2427  1.7190
   51CHL1  H21B 3754   3.449   5.119   7.806 -0.4032  0.6542 -1.2512
   51CHL1  H21C 3755   3.366   5.086   7.641 -0.8481 -0.8310 -0.8790
   51CHL1   C22 3756   3.401   4.902   7.946 -0.1065 -0.4949 -0.2148
   51CHL1  H22A 3757   3.345   4.826   8.004 -1.4703 -0.7011 -1.7296
   51CHL1  H22B 3758   3.498   4.849   7.930  2.2541  2.5072  2.7833
   51CHL1   C23 3759   3.424   5.020   8.043 -0.1680 -0.0036 -0.6064
   51CHL1  H23A 3760   3.455   4.973   8.139  0.6543 -0.2595 -0.9978
   51CHL1  H23B 3761   3.511   5.083   8.019  1.5145 -1.9596  0.0616
   51CHL1   C24 3762   3.294   5.097   8.077  0.7102  0.5436  0.1058
   51CHL1  H24A 3763   3.250   5.145   7.987  1.2462 -0.6623 -0.8259
   51CHL1  H24B 3764   3.216   5.022   8.101  0.0869  0.6751 -1.4302
   51CHL1   C25 3765   3.310   5.187   8.199 -0.2106  0.2795 -0.4271
   51CHL1   H25 3766   3.382   5.131   8.262 -2.9049 -2.9427  0.0981
   51CHL1   C26 3767   3.382   5.326   8.168  0.5108  0.7399 -0.3093
   51CHL1  H26A 3768   3.389   5.386   8.261  0.6596  1.6766 -0.9195
   51CHL1  H26B 3769   3.489   5.308   8.146  0.6709  1.8040 -0.4430
   51CHL1  H26C 3770   3.324   5.368   8.083  0.3968  0.9960 -0.1079
   51CHL1   C27 3771   3.173   5.197   8.279 -0.5850  0.1570  0.2003
   51CHL1  H27A 3772   3.101   5.255   8.218 -0.1884  0.2466 -0.1943
   51CHL1  H27B 3773   3.144   5.093   8.304  1.3312 -0.7948 -1.2971
   51CHL1  H27C 3774   3.190   5.241   8.380  1.6555 -0.8564  0.3447
   52CHL1    C3 3775   6.213   0.814   7.101 -0.4650 -0.3158  0.3952
   52CHL1    H3 3776   6.236   0.923   7.112  0.4794 -0.4627  0.0407
   52CHL1    O3 3777   6.226   0.783   6.958  1.1641 -0.1896 -0.0646
   52CHL1   H3' 3778   6.209   0.689   6.957  2.1833 -0.3819  0.1421
   52CHL1    C4 3779   6.303   0.721   7.193  0.1673 -0.4622  0.0937
   52CHL1   H4A 3780   6.261   0.625   7.157  1.5244 -0.7175 -0.8429
   52CHL1   H4B 3781   6.406   0.719   7.152 -0.6873  0.0776 -2.2291
   52CHL1    C5 3782   6.282   0.771   7.336  0.2785  0.2967 -0.7959
   52CHL1    C6 3783   6.387   0.825   7.401 -0.5017  0.0781  0.0609
   52CHL1    H6 3784   6.483   0.817   7.349 -1.5434 -3.1925 -1.6184
   52CHL1    C7 3785   6.377   0.892   7.537 -0.0691 -0.4416  0.4241
   52CHL1   H7A 3786   6.459   0.843   7.594  0.6553 -0.9598 -1.0194
   52CHL1   H7B 3787   6.400   1.000   7.534  1.7240 -0.7897  0.4563
   52CHL1    C8 3788   6.248   0.856   7.605 -0.5663 -0.2851 -0.0007
   52CHL1    H8 3789   6.248   0.749   7.635 -2.8007 -1.4907 -3.6075
   52CHL1   C14 3790   6.228   0.942   7.730  0.1546  0.3506  0.8218
   52CHL1   H14 3791   6.230   1.044   7.686  1.0009  0.4788  1.1351
   52CHL1   C15 3792   6.334   0.931   7.838 -0.6020  0.0840 -0.9375
   52CHL1  H15A 3793   6.358   0.824   7.857  0.8435  0.7423  1.3479
   52CHL1  H15B 3794   6.430   0.979   7.811 -0.3144  1.5813  2.3324
   52CHL1   C16 3795   6.260   0.983   7.963 -0.1821  0.0280 -0.2204
   52CHL1  H16A 3796   6.248   0.898   8.034 -1.7374  0.4210  0.0289
   52CHL1  H16B 3797   6.306   1.064   8.023 -2.4291  0.2603  1.3162
   52CHL1   C17 3798   6.113   1.027   7.918  0.5276  0.2277 -0.2851
   52CHL1   H17 3799   6.130   1.128   7.875 -1.1347  0.7420  0.1695
   52CHL1   C13 3800   6.088   0.933   7.797  0.4343 -1.1481 -0.1811
   52CHL1   C18 3801   6.060   0.786   7.844  0.3530  0.2890 -0.0298
   52CHL1  H18A 3802   6.098   0.774   7.948  0.0039  1.9433  0.3094
   52CHL1  H18B 3803   5.952   0.764   7.856  0.5275 -0.4909  0.1665
   52CHL1  H18C 3804   6.108   0.714   7.774  3.0963  1.7275  0.2311
   52CHL1   C12 3805   5.972   0.971   7.695  0.4400 -0.1679 -0.4052
   52CHL1  H12A 3806   5.867   0.967   7.731  0.4817 -0.5067 -0.3191
   52CHL1  H12B 3807   5.993   1.076   7.667  0.8063 -0.1416 -0.0424
   52CHL1   C11 3808   5.985   0.876   7.569 -0.8073 -0.1810 -0.2595
   52CHL1  H11A 3809   5.957   0.774   7.602 -1.1037  0.2949  1.0372
   52CHL1  H11B 3810   5.912   0.910   7.492 -0.8794 -0.3628 -0.2706
   52CHL1    C9 3811   6.130   0.880   7.505  0.5948  0.0432 -0.0460
   52CHL1    H9 3812   6.153   0.982   7.468  0.9144 -0.3303 -0.9182
   52CHL1   C10 3813   6.135   0.788   7.385 -0.2027 -1.0855 -0.0701
   52CHL1   C19 3814   6.091   0.636   7.423  0.2387 -0.8897 -0.4006
   52CHL1  H19A 3815   6.119   0.609   7.527  0.6913  2.7702  0.5648
   52CHL1  H19B 3816   5.984   0.607   7.425 -0.0158  0.0072 -0.1463
   52CHL1  H19C 3817   6.122   0.564   7.344 -0.9016  1.7023 -3.4534
   52CHL1    C1 3818   6.037   0.846   7.273 -0.2274  0.6298 -0.0570
   52CHL1   H1A 3819   5.935   0.806   7.290 -0.3414  0.5276 -0.9666
   52CHL1   H1B 3820   6.023   0.956   7.275 -0.4890  0.5950  1.3244
   52CHL1    C2 3821   6.067   0.792   7.134 -0.0107 -0.2208 -0.7465
   52CHL1   H2A 3822   5.997   0.821   7.053  0.2169 -0.6663 -1.1074
   52CHL1   H2B 3823   6.049   0.682   7.136  0.3960 -0.3008 -1.1099
   52CHL1   C20 3824   6.007   1.041   8.028  0.1177  0.5898  0.4363
   52CHL1   H20 3825   5.960   0.942   8.046  1.0080 -0.5227 -2.6797
   52CHL1   C21 3826   5.901   1.138   7.969 -0.2619 -0.2819 -0.3264
   52CHL1  H21A 3827   5.945   1.231   7.927 -1.9910  1.0353  0.6469
   52CHL1  H21B 3828   5.837   1.170   8.054  0.7132 -0.7241  0.6013
   52CHL1  H21C 3829   5.832   1.096   7.893 -2.1693  2.9102 -0.5204
   52CHL1   C22 3830   6.064   1.102   8.151  0.0136  0.2150  0.4429
   52CHL1  H22A 3831   6.160   1.053   8.180  1.5396  0.4872 -3.4186
   52CHL1  H22B 3832   6.100   1.203   8.122  2.4479 -0.5331  0.6192
   52CHL1   C23 3833   5.976   1.105   8.270 -0.7930 -0.1560  0.2174
   52CHL1  H23A 3834   5.870   1.137   8.268 -0.1667  2.0848 -0.0802
   52CHL1  H23B 3835   5.975   0.995   8.289  0.4052 -0.0621  0.9761
   52CHL1   C24 3836   6.033   1.181   8.394 -0.6199 -0.1795  0.2114
   52CHL1  H24A 3837   6.142   1.165   8.405 -0.8963 -0.8720  2.5038
   52CHL1  H24B 3838   6.022   1.291   8.383 -0.5352  0.0418  2.0169
   52CHL1   C25 3839   5.970   1.145   8.529 -0.5208  0.1096  0.3771
   52CHL1   H25 3840   5.860   1.144   8.515 -0.5183  0.6784  0.2993
   52CHL1   C26 3841   6.011   0.999   8.556  0.8050  0.3817 -0.0723
   52CHL1  H26A 3842   5.984   0.987   8.663 -0.2803  1.5029 -0.2042
   52CHL1  H26B 3843   5.947   0.928   8.499  0.8010  1.4978 -1.5223
   52CHL1  H26C 3844   6.118   0.972   8.542  0.8549  0.9127 -0.7469
   52CHL1   C27 3845   6.022   1.235   8.641  0.1217 -0.1787 -0.0815
   52CHL1  H27A 3846   6.133   1.226   8.638  0.2990  1.8887 -1.0027
   52CHL1  H27B 3847   5.992   1.341   8.626 -0.3269 -0.5815 -2.3999
   52CHL1  H27C 3848   5.988   1.201   8.741  0.5039 -0.1167  0.0741
   53CHL1    C3 3849   2.935   2.016   7.223  0.3624  0.4684  0.1918
   53CHL1    H3 3850   2.917   1.909   7.244 -2.2260  0.8394  0.2808
   53CHL1    O3 3851   2.943   2.039   7.080  0.3786 -0.7240 -0.1218
   53CHL1   H3' 3852   3.030   2.004   7.060  0.0967 -1.1802 -0.5709
   53CHL1    C4 3853   2.830   2.099   7.292  0.5024 -0.8432  0.2263
   53CHL1   H4A 3854   2.847   2.208   7.280 -1.8988 -0.6382 -2.2348
   53CHL1   H4B 3855   2.727   2.101   7.250 -0.1424  4.0078  1.4241
   53CHL1    C5 3856   2.828   2.064   7.441 -0.3513 -0.5487 -0.3049
   53CHL1    C6 3857   2.718   2.016   7.500  0.3838  0.3528  0.4013
   53CHL1    H6 3858   2.634   1.994   7.433  0.5979  0.6570  0.0293
   53CHL1    C7 3859   2.710   1.981   7.649 -0.4508  1.0060 -0.1026
   53CHL1   H7A 3860   2.618   2.012   7.702  1.0887  3.0520  1.5472
   53CHL1   H7B 3861   2.726   1.871   7.644 -1.1308  0.9554 -2.8440
   53CHL1    C8 3862   2.830   2.048   7.728 -0.0742  0.0138  0.1823
   53CHL1    H8 3863   2.788   2.150   7.747 -0.3891 -0.2927  1.2174
   53CHL1   C14 3864   2.836   1.986   7.872  0.1826 -0.2028  0.0640
   53CHL1   H14 3865   2.861   1.878   7.864 -1.2394 -0.5724  0.3534
   53CHL1   C15 3866   2.710   1.976   7.959  0.8800 -0.2629 -1.1567
   53CHL1  H15A 3867   2.667   2.077   7.978  1.5077 -0.3909  1.3335
   53CHL1  H15B 3868   2.635   1.904   7.920 -1.1370  0.6691  0.7623
   53CHL1   C16 3869   2.767   1.940   8.095  0.6127  0.8580 -0.3810
   53CHL1  H16A 3870   2.724   1.995   8.182  0.1198 -1.5431  0.9618
   53CHL1  H16B 3871   2.758   1.831   8.114  1.7491 -0.0444 -4.0685
   53CHL1   C17 3872   2.917   1.982   8.091 -0.5769  0.4775 -0.4458
   53CHL1   H17 3873   2.971   1.885   8.078 -3.1471 -0.7889 -2.6564
   53CHL1   C13 3874   2.945   2.056   7.961  0.1288 -0.4357 -0.4880
   53CHL1   C18 3875   2.909   2.205   7.980 -0.0079 -0.0409  0.2309
   53CHL1  H18A 3876   2.988   2.253   8.041 -1.1396  0.5529  1.2597
   53CHL1  H18B 3877   2.897   2.260   7.884 -3.7665 -1.6235 -0.3918
   53CHL1  H18C 3878   2.814   2.213   8.037  0.1002 -1.1109  0.5936
   53CHL1   C12 3879   3.083   2.034   7.892 -0.3990 -0.8072 -0.1551
   53CHL1  H12A 3880   3.162   2.096   7.939  1.0170 -5.0990  3.8905
   53CHL1  H12B 3881   3.113   1.927   7.894 -1.2147 -1.0432  0.0397
   53CHL1   C11 3882   3.084   2.088   7.749  0.1638  0.9064 -0.9413
   53CHL1  H11A 3883   3.080   2.197   7.770 -1.9472  0.3086  2.7989
   53CHL1  H11B 3884   3.176   2.064   7.693  0.6401 -0.1136  0.2290
   53CHL1    C9 3885   2.963   2.034   7.660  0.9838  0.0595 -0.0578
   53CHL1    H9 3886   2.987   1.926   7.654  0.5189 -0.0656  0.2631
   53CHL1   C10 3887   2.957   2.094   7.515  0.8887 -0.6552 -0.8464
   53CHL1   C19 3888   2.963   2.255   7.518  0.5482  0.7707  0.1932
   53CHL1  H19A 3889   3.042   2.286   7.589  0.6868 -1.7824  1.2775
   53CHL1  H19B 3890   2.979   2.307   7.422 -2.2312  0.6111 -0.4307
   53CHL1  H19C 3891   2.871   2.302   7.559 -2.1004 -1.8998 -2.1774
   53CHL1    C1 3892   3.073   2.028   7.433  0.1093  1.0240 -0.2882
   53CHL1   H1A 3893   3.175   2.061   7.463  0.5136 -0.2960 -0.1120
   53CHL1   H1B 3894   3.084   1.917   7.442 -0.0625  0.8934 -1.6120
   53CHL1    C2 3895   3.070   2.063   7.284 -0.0411 -0.2496 -1.3387
   53CHL1   H2A 3896   3.157   2.018   7.232  0.7470  0.1952 -0.4238
   53CHL1   H2B 3897   3.084   2.173   7.277  0.3021 -0.0949  1.0923
   53CHL1   C20 3898   2.973   2.037   8.225  0.4795  0.2795 -0.5147
   53CHL1   H20 3899   2.926   2.135   8.248  0.2323 -0.2320  1.3349
   53CHL1   C21 3900   3.124   2.051   8.226 -0.0097 -0.5608 -0.1725
   53CHL1  H21A 3901   3.157   2.135   8.161  2.6394 -0.5078  1.0954
   53CHL1  H21B 3902   3.164   1.954   8.189 -0.3408 -1.5864  1.9828
   53CHL1  H21C 3903   3.162   2.079   8.327 -0.4503 -0.4219 -0.0440
   53CHL1   C22 3904   2.933   1.951   8.344 -0.0702  0.3553 -0.4223
   53CHL1  H22A 3905   2.823   1.955   8.356 -0.3887 -5.3404  1.7041
   53CHL1  H22B 3906   2.956   1.843   8.331  0.1179  0.4598 -1.0096
   53CHL1   C23 3907   2.987   1.995   8.479  0.3228  0.0798  0.3337
   53CHL1  H23A 3908   2.950   1.941   8.569 -0.4263  2.3701  1.4908
   53CHL1  H23B 3909   3.095   1.971   8.486  0.4828  1.0818  1.9094
   53CHL1   C24 3910   2.980   2.148   8.511  0.3349 -0.0551 -0.2340
   53CHL1  H24A 3911   3.037   2.139   8.606  2.2989 -0.3720 -1.3802
   53CHL1  H24B 3912   3.044   2.204   8.440 -0.4743  2.4218  0.8915
   53CHL1   C25 3913   2.847   2.217   8.531 -0.6139  0.4365  0.0275
   53CHL1   H25 3914   2.788   2.181   8.444  0.7750  2.6354 -1.9597
   53CHL1   C26 3915   2.777   2.175   8.659  0.2463 -1.0472  0.3731
   53CHL1  H26A 3916   2.844   2.209   8.741 -0.7044  1.2673  0.2808
   53CHL1  H26B 3917   2.677   2.224   8.657  0.6461 -0.2218 -1.4995
   53CHL1  H26C 3918   2.764   2.065   8.661 -3.1828 -0.7785 -0.6273
   53CHL1   C27 3919   2.863   2.372   8.524 -0.6974  1.1729 -0.5365
   53CHL1  H27A 3920   2.873   2.419   8.424 -2.4503  0.6271 -0.9994
   53CHL1  H27B 3921   2.780   2.428   8.574  0.1407  0.4031  1.8833
   53CHL1  H27C 3922   2.942   2.400   8.597 -0.6650  0.0871 -0.1422
   54CHL1    C3 3923   1.788   4.524   6.963 -0.4741 -0.2721 -0.0698
   54CHL1    H3 3924   1.897   4.538   6.979 -0.7493  0.5132  1.3008
   54CHL1    O3 3925   1.777   4.496   6.824  0.0167  0.1370 -0.0035
   54CHL1   H3' 3926   1.754   4.572   6.771  1.6140 -1.9860 -4.2479
   54CHL1    C4 3927   1.746   4.400   7.043 -0.6396 -0.0219 -0.3247
   54CHL1   H4A 3928   1.650   4.355   7.010 -1.3166  0.1975  1.2574
   54CHL1   H4B 3929   1.826   4.325   7.023  1.4962  1.9097  0.6256
   54CHL1    C5 3930   1.749   4.432   7.190  0.0748  0.2429  0.2213
   54CHL1    C6 3931   1.837   4.384   7.277 -0.2564  0.0697  0.2569
   54CHL1    H6 3932   1.899   4.300   7.241 -1.7280 -1.6233  1.4968
   54CHL1    C7 3933   1.833   4.402   7.428  0.0746 -0.1413  0.3365
   54CHL1   H7A 3934   1.825   4.300   7.471 -0.7617 -2.0575 -3.8975
   54CHL1   H7B 3935   1.921   4.451   7.475  1.1626  0.3515 -2.1120
   54CHL1    C8 3936   1.700   4.483   7.478 -0.3455  0.0256  1.1908
   54CHL1    H8 3937   1.615   4.411   7.476 -2.9531  2.8784 -2.0794
   54CHL1   C14 3938   1.710   4.526   7.622 -0.1465  0.5602 -0.1083
   54CHL1   H14 3939   1.793   4.601   7.620  0.2795  0.0842 -1.0466
   54CHL1   C15 3940   1.747   4.431   7.729  0.3661 -0.1502 -0.2251
   54CHL1  H15A 3941   1.672   4.349   7.734 -0.9881  0.9250 -1.7818
   54CHL1  H15B 3942   1.852   4.398   7.715  0.2831  0.3876 -2.6853
   54CHL1   C16 3943   1.727   4.512   7.857  0.0731 -0.5450  1.0140
   54CHL1  H16A 3944   1.689   4.443   7.936 -0.1536 -1.5849  0.0239
   54CHL1  H16B 3945   1.826   4.558   7.876 -0.1828 -0.2527  1.6604
   54CHL1   C17 3946   1.626   4.636   7.817  0.0963  0.5152  0.2745
   54CHL1   H17 3947   1.705   4.714   7.810 -0.0004  0.5839 -0.0824
   54CHL1   C13 3948   1.592   4.610   7.668 -0.5653  0.2325  0.3308
   54CHL1   C18 3949   1.475   4.505   7.670 -0.0361  0.3578  0.5063
   54CHL1  H18A 3950   1.478   4.438   7.758  1.2740  0.6500  0.7131
   54CHL1  H18B 3951   1.380   4.562   7.680 -0.2905  1.5134 -5.2110
   54CHL1  H18C 3952   1.458   4.451   7.574 -2.4674  1.1196  0.4540
   54CHL1   C12 3953   1.560   4.728   7.579  0.4212  0.2813 -0.0656
   54CHL1  H12A 3954   1.457   4.764   7.602  1.2309  1.4549  1.9099
   54CHL1  H12B 3955   1.627   4.814   7.601  0.2183  0.4143  0.0351
   54CHL1   C11 3956   1.539   4.682   7.432 -0.1391 -0.3033 -0.3252
   54CHL1  H11A 3957   1.453   4.613   7.441 -0.9576  0.9195  1.9985
   54CHL1  H11B 3958   1.513   4.764   7.362  3.2743  1.2476  0.0217
   54CHL1    C9 3959   1.660   4.595   7.377  0.1332  0.3446 -0.2364
   54CHL1    H9 3960   1.739   4.673   7.384 -2.1389  2.6848  1.3866
   54CHL1   C10 3961   1.653   4.546   7.229  0.0335 -0.9429  0.6890
   54CHL1   C19 3962   1.510   4.491   7.193  0.3587  0.1287 -0.7530
   54CHL1  H19A 3963   1.500   4.473   7.084 -1.0982 -0.9650 -0.4779
   54CHL1  H19B 3964   1.495   4.389   7.234  0.4336 -0.1545 -1.4137
   54CHL1  H19C 3965   1.435   4.565   7.228 -1.2155 -1.8446  0.2670
   54CHL1    C1 3966   1.687   4.676   7.146 -0.7570  0.3059  0.2759
   54CHL1   H1A 3967   1.615   4.758   7.169 -2.3139 -1.4743  2.0415
   54CHL1   H1B 3968   1.787   4.702   7.188 -0.5497 -1.5386  1.0183
   54CHL1    C2 3969   1.705   4.651   6.992 -0.5564 -0.1340  0.1767
   54CHL1   H2A 3970   1.748   4.731   6.928 -0.6574 -1.4594 -1.5903
   54CHL1   H2B 3971   1.603   4.624   6.957  0.1885 -3.7377  0.3710
   54CHL1   C20 3972   1.516   4.673   7.924 -0.5772 -0.3233 -0.2768
   54CHL1   H20 3973   1.438   4.593   7.925 -1.6880  0.6532 -2.3113
   54CHL1   C21 3974   1.449   4.802   7.889  0.2882  0.3696  0.5499
   54CHL1  H21A 3975   1.399   4.799   7.790  0.0731 -2.6882  0.6326
   54CHL1  H21B 3976   1.517   4.890   7.889  0.3376  0.3323  0.9926
   54CHL1  H21C 3977   1.366   4.830   7.957  0.2439  1.8958 -0.1116
   54CHL1   C22 3978   1.574   4.674   8.066  0.0877 -0.2829  0.1160
   54CHL1  H22A 3979   1.636   4.585   8.090  2.2814  0.5387 -1.9743
   54CHL1  H22B 3980   1.652   4.753   8.075  0.3935 -0.7098  1.4167
   54CHL1   C23 3981   1.467   4.698   8.172  0.2774 -0.1128  0.2823
   54CHL1  H23A 3982   1.421   4.799   8.163  0.2084 -0.2193 -0.7393
   54CHL1  H23B 3983   1.379   4.632   8.152  1.9538 -1.8441 -1.7927
   54CHL1   C24 3984   1.501   4.684   8.327  0.0062 -0.4075  0.6651
   54CHL1  H24A 3985   1.423   4.738   8.385  1.0785  1.6953  0.2640
   54CHL1  H24B 3986   1.505   4.577   8.353 -3.5293 -1.0608 -0.8923
   54CHL1   C25 3987   1.628   4.754   8.369 -0.1832  0.3463 -0.3314
   54CHL1   H25 3988   1.711   4.701   8.318  0.3445 -0.0827  0.9305
   54CHL1   C26 3989   1.638   4.900   8.337  0.0339 -0.2365  0.6617
   54CHL1  H26A 3990   1.719   4.955   8.390 -1.4265  1.3043  1.3416
   54CHL1  H26B 3991   1.663   4.921   8.231 -1.5106 -0.8822  0.1342
   54CHL1  H26C 3992   1.537   4.944   8.349 -1.6962 -3.2126 -1.5266
   54CHL1   C27 3993   1.650   4.727   8.522  0.6492 -0.4604 -0.3015
   54CHL1  H27A 3994   1.754   4.761   8.541  0.3751  2.7172 -3.3547
   54CHL1  H27B 3995   1.581   4.783   8.588  1.5913  0.6686 -0.2358
   54CHL1  H27C 3996   1.645   4.617   8.537 -4.0402 -0.4467 -0.2939
   55CHL1    C3 3997   0.666   6.452   6.843  0.5091 -0.3479  0.6431
   55CHL1    H3 3998   0.563   6.491   6.858  0.1450 -0.8287 -0.4736
   55CHL1    O3 3999   0.693   6.438   6.707 -0.1798 -0.2629  0.4941
   55CHL1   H3' 4000   0.788   6.434   6.701 -0.1683  0.9117 -0.9181
   55CHL1    C4 4001   0.759   6.564   6.907  0.7004  0.5269  0.1868
   55CHL1   H4A 4002   0.862   6.548   6.868  1.0958  2.1912  0.4651
   55CHL1   H4B 4003   0.732   6.664   6.865 -2.5966  0.2144  1.2959
   55CHL1    C5 4004   0.744   6.559   7.059  0.6356  0.6723  0.2196
   55CHL1    C6 4005   0.705   6.667   7.127 -0.2208  0.1989  0.3840
   55CHL1    H6 4006   0.700   6.760   7.069 -0.2468 -0.6483 -1.0016
   55CHL1    C7 4007   0.679   6.677   7.278  0.0155  0.0118  0.5801
   55CHL1   H7A 4008   0.704   6.781   7.307  0.4874 -0.3373  1.4432
   55CHL1   H7B 4009   0.568   6.668   7.289 -0.4971  0.9039 -2.7121
   55CHL1    C8 4010   0.753   6.559   7.352 -0.6543  0.0653 -0.4042
   55CHL1    H8 4011   0.861   6.580   7.344 -0.5481  0.7824  2.0712
   55CHL1   C14 4012   0.706   6.547   7.494  1.1297  0.4281 -0.1891
   55CHL1   H14 4013   0.598   6.520   7.484  2.0055 -3.4029 -0.8611
   55CHL1   C15 4014   0.716   6.666   7.590  0.0816 -0.1423  0.5175
   55CHL1  H15A 4015   0.809   6.718   7.559 -1.5739  2.6576 -0.0694
   55CHL1  H15B 4016   0.625   6.729   7.586 -0.6267 -1.1693 -0.0058
   55CHL1   C16 4017   0.721   6.607   7.724  0.7483 -0.1718  0.2603
   55CHL1  H16A 4018   0.812   6.637   7.781  0.0784  1.2521  0.6328
   55CHL1  H16B 4019   0.632   6.649   7.776  0.7347  0.9283 -0.5992
   55CHL1   C17 4020   0.698   6.452   7.712  0.4322  0.8628 -0.2415
   55CHL1   H17 4021   0.589   6.437   7.695 -0.0666  3.1245  0.6327
   55CHL1   C13 4022   0.763   6.423   7.575  0.3160  0.5601  0.7179
   55CHL1   C18 4023   0.912   6.437   7.581  0.0176 -0.3253  1.1468
   55CHL1  H18A 4024   0.938   6.530   7.636  1.0828  1.8949 -2.6916
   55CHL1  H18B 4025   0.967   6.354   7.629  0.4302 -0.4628  0.4648
   55CHL1  H18C 4026   0.957   6.439   7.479 -1.0198  2.3220  0.6565
   55CHL1   C12 4027   0.733   6.291   7.512  0.2251  0.3388 -0.4211
   55CHL1  H12A 4028   0.776   6.207   7.571  0.9166  0.7213 -0.3753
   55CHL1  H12B 4029   0.624   6.284   7.533  0.5585  0.6283  1.7220
   55CHL1   C11 4030   0.759   6.295   7.360  0.4672 -0.2111  0.6935
   55CHL1  H11A 4031   0.865   6.265   7.348 -0.4070 -2.3296 -3.1662
   55CHL1  H11B 4032   0.704   6.210   7.316  4.4922 -3.5997  1.6106
   55CHL1    C9 4033   0.718   6.422   7.284 -0.5024 -0.2654 -0.2994
   55CHL1    H9 4034   0.607   6.433   7.290 -0.5361 -0.6424  5.4483
   55CHL1   C10 4035   0.764   6.420   7.131 -0.1876 -0.0995 -0.0746
   55CHL1   C19 4036   0.918   6.383   7.120 -0.9629 -0.7101  0.0690
   55CHL1  H19A 4037   0.947   6.419   7.019 -2.0694  0.8624  0.2722
   55CHL1  H19B 4038   0.966   6.434   7.206 -0.0678  0.5771 -1.1460
   55CHL1  H19C 4039   0.931   6.273   7.127 -1.6751 -0.7374  1.2433
   55CHL1    C1 4040   0.682   6.311   7.053  1.0872  0.0887 -0.2999
   55CHL1   H1A 4041   0.712   6.206   7.076 -2.8684 -1.0117  0.6752
   55CHL1   H1B 4042   0.576   6.325   7.084  0.7779 -0.1093 -1.2133
   55CHL1    C2 4043   0.687   6.315   6.904  0.5840 -0.4129 -0.1604
   55CHL1   H2A 4044   0.621   6.244   6.850  0.8391 -0.3596 -0.5502
   55CHL1   H2B 4045   0.790   6.290   6.870  0.5800  1.3919 -1.7022
   55CHL1   C20 4046   0.740   6.363   7.829 -0.1407 -0.5954  0.0951
   55CHL1   H20 4047   0.770   6.266   7.783  0.8377 -0.6803  0.8955
   55CHL1   C21 4048   0.618   6.346   7.916  0.2394 -1.2584 -0.7218
   55CHL1  H21A 4049   0.524   6.323   7.860 -1.6492 -0.3670  1.8888
   55CHL1  H21B 4050   0.599   6.436   7.978 -1.0334 -1.6337 -0.5275
   55CHL1  H21C 4051   0.641   6.271   7.995 -0.2208 -0.0585  0.5996
   55CHL1   C22 4052   0.860   6.418   7.912 -0.0725 -0.3581  0.8074
   55CHL1  H22A 4053   0.939   6.468   7.853  0.7148 -0.8827  1.4094
   55CHL1  H22B 4054   0.821   6.500   7.976  1.3124  0.1700  1.0078
   55CHL1   C23 4055   0.932   6.307   7.984 -0.2920  0.2868 -0.2302
   55CHL1  H23A 4056   0.890   6.300   8.087  1.9045 -0.8163  0.6524
   55CHL1  H23B 4057   0.924   6.205   7.940 -0.3437  0.6673 -1.1246
   55CHL1   C24 4058   1.076   6.343   8.016  0.0976 -0.4842  1.5723
   55CHL1  H24A 4059   1.137   6.361   7.924 -0.2461 -1.4112  1.1594
   55CHL1  H24B 4060   1.059   6.442   8.064  0.7423  0.2068  0.4185
   55CHL1   C25 4061   1.151   6.229   8.095 -0.2482 -0.3279 -0.1564
   55CHL1   H25 4062   1.093   6.209   8.188 -2.3975 -0.2054 -1.3915
   55CHL1   C26 4063   1.157   6.096   8.022  0.7827  0.1473 -0.0778
   55CHL1  H26A 4064   1.215   6.023   8.083  0.9155 -0.7874 -1.2833
   55CHL1  H26B 4065   1.062   6.045   7.996  1.5130 -0.8809 -0.8200
   55CHL1  H26C 4066   1.215   6.099   7.927  0.8429 -0.7624 -0.0736
   55CHL1   C27 4067   1.295   6.271   8.130  0.0218  0.7072 -0.5572
   55CHL1  H27A 4068   1.304   6.372   8.176  3.5426  0.9407 -1.4210
   55CHL1  H27B 4069   1.337   6.194   8.199 -2.4044 -1.0307 -0.8861
   55CHL1  H27C 4070   1.357   6.267   8.038  2.0115 -0.4842  0.7311
   56CHL1    C3 4071   1.791   3.495   6.881 -0.0546  0.4929 -0.1389
   56CHL1    H3 4072   1.846   3.399   6.872  1.1093  1.0997  0.2412
   56CHL1    O3 4073   1.710   3.514   6.762 -0.3128  0.2524 -0.2852
   56CHL1   H3' 4074   1.640   3.449   6.767 -1.8324  1.8184 -0.4740
   56CHL1    C4 4075   1.692   3.479   6.998  0.0619  0.0509 -0.5421
   56CHL1   H4A 4076   1.623   3.566   6.997 -0.8895 -0.6810 -1.6706
   56CHL1   H4B 4077   1.636   3.385   6.979  0.8943 -0.4381 -0.6449
   56CHL1    C5 4078   1.759   3.459   7.132 -0.3108  0.2653 -0.9204
   56CHL1    C6 4079   1.736   3.347   7.212  1.0095  0.3035 -0.0852
   56CHL1    H6 4080   1.661   3.270   7.191  3.0871 -1.3405 -1.9489
   56CHL1    C7 4081   1.808   3.334   7.343 -0.6400 -0.5247 -0.6915
   56CHL1   H7A 4082   1.741   3.287   7.418 -0.7939  0.1462 -0.3991
   56CHL1   H7B 4083   1.901   3.274   7.344  2.0419  3.2176  1.6089
   56CHL1    C8 4084   1.861   3.467   7.397 -0.6558  0.3115 -0.0054
   56CHL1    H8 4085   1.770   3.523   7.428  0.1125  0.7795  1.4754
   56CHL1   C14 4086   1.928   3.453   7.532 -0.5486  0.5338  0.0961
   56CHL1   H14 4087   2.022   3.397   7.511 -1.2860 -0.9513  0.5733
   56CHL1   C15 4088   1.854   3.392   7.644  0.6194  0.1526 -0.1553
   56CHL1  H15A 4089   1.744   3.408   7.648  0.1823 -1.6787 -2.4759
   56CHL1  H15B 4090   1.865   3.283   7.626 -3.9249 -0.7511  1.1244
   56CHL1   C16 4091   1.927   3.438   7.770  0.1461 -0.5863 -0.2382
   56CHL1  H16A 4092   1.856   3.499   7.830 -1.2150 -0.9066 -1.4586
   56CHL1  H16B 4093   1.962   3.359   7.839 -0.8370 -0.6228  0.2457
   56CHL1   C17 4094   2.037   3.537   7.720 -0.0622  0.0794  0.1485
   56CHL1   H17 4095   2.112   3.460   7.692  0.5113  1.1104 -1.3248
   56CHL1   C13 4096   1.979   3.590   7.586 -0.4327  0.3270  0.0697
   56CHL1   C18 4097   1.862   3.686   7.607 -0.4705  0.1348 -0.0420
   56CHL1  H18A 4098   1.781   3.644   7.671 -1.3513  0.2681 -1.0566
   56CHL1  H18B 4099   1.894   3.781   7.654 -0.7540 -0.2092  0.8727
   56CHL1  H18C 4100   1.815   3.713   7.511  0.7599  0.9861 -0.4264
   56CHL1   C12 4101   2.092   3.645   7.491 -0.0256  0.0246  0.5275
   56CHL1  H12A 4102   2.120   3.747   7.525  1.4131 -0.1419 -0.0708
   56CHL1  H12B 4103   2.186   3.585   7.491  1.0764  1.6591  1.2173
   56CHL1   C11 4104   2.029   3.665   7.348 -0.6652 -0.0561 -0.0304
   56CHL1  H11A 4105   1.959   3.748   7.373 -0.4031  1.2974 -3.3162
   56CHL1  H11B 4106   2.109   3.698   7.278 -0.1512  0.8399  0.9455
   56CHL1    C9 4107   1.949   3.542   7.292  0.2687  1.3288 -0.3317
   56CHL1    H9 4108   2.028   3.472   7.258 -2.7816 -0.8306 -3.7496
   56CHL1   C10 4109   1.862   3.568   7.166  0.4068 -0.4368 -0.1391
   56CHL1   C19 4110   1.788   3.708   7.194  0.3695 -0.2119 -0.6895
   56CHL1  H19A 4111   1.735   3.686   7.290  1.8906 -4.0869 -0.5554
   56CHL1  H19B 4112   1.854   3.798   7.198  1.4272 -0.9428 -1.2473
   56CHL1  H19C 4113   1.724   3.725   7.105 -0.4416 -2.1823 -0.5414
   56CHL1    C1 4114   1.952   3.592   7.037  0.6303 -0.4025 -0.4580
   56CHL1   H1A 4115   2.005   3.688   7.055  0.1586  0.2210 -2.1644
   56CHL1   H1B 4116   2.021   3.506   7.023  0.0668 -0.4827 -3.3743
   56CHL1    C2 4117   1.877   3.610   6.905  0.2921  0.1201 -0.1181
   56CHL1   H2A 4118   1.953   3.622   6.825 -1.2212 -1.3942 -1.9013
   56CHL1   H2B 4119   1.816   3.702   6.895  0.3410  0.0958 -0.6761
   56CHL1   C20 4120   2.093   3.654   7.814  0.3376  0.1627  0.4562
   56CHL1   H20 4121   2.114   3.739   7.746  0.3217  0.6058  1.0070
   56CHL1   C21 4122   2.233   3.607   7.845 -0.7110  0.7555  0.2411
   56CHL1  H21A 4123   2.241   3.521   7.915  1.2905  0.6527 -0.0639
   56CHL1  H21B 4124   2.292   3.691   7.887  0.4619  0.7787 -1.3720
   56CHL1  H21C 4125   2.288   3.581   7.752  0.2220  2.5650  0.2432
   56CHL1   C22 4126   2.008   3.695   7.940 -0.7114  0.5699  0.0158
   56CHL1  H22A 4127   1.903   3.706   7.905 -0.0965 -0.8914 -2.5159
   56CHL1  H22B 4128   2.008   3.618   8.021 -0.1957  1.7084  1.1425
   56CHL1   C23 4129   2.056   3.825   8.012 -0.3719 -1.1562 -0.0366
   56CHL1  H23A 4130   2.135   3.879   7.955 -1.1421  1.6197  1.3405
   56CHL1  H23B 4131   1.973   3.898   7.999 -1.1311 -1.7515  1.2599
   56CHL1   C24 4132   2.103   3.811   8.154 -0.2013 -0.3185  0.2362
   56CHL1  H24A 4133   2.010   3.778   8.206 -1.0292  0.3834 -0.7490
   56CHL1  H24B 4134   2.177   3.729   8.161  0.4219 -0.0785 -2.4213
   56CHL1   C25 4135   2.157   3.932   8.230 -0.7279  0.2589  0.6605
   56CHL1   H25 4136   2.252   3.962   8.180  0.1537  0.5030  2.4131
   56CHL1   C26 4137   2.060   4.051   8.249 -0.7070 -0.2922 -0.0390
   56CHL1  H26A 4138   1.998   4.077   8.160 -0.5649  0.6635  0.1281
   56CHL1  H26B 4139   2.109   4.146   8.280 -0.3985 -0.2147 -0.7580
   56CHL1  H26C 4140   1.978   4.031   8.322  0.2224  2.8072  2.0412
   56CHL1   C27 4141   2.216   3.869   8.361  0.0480 -0.9618  0.5159
   56CHL1  H27A 4142   2.141   3.806   8.413 -2.9338 -0.3516 -2.6699
   56CHL1  H27B 4143   2.304   3.808   8.331 -0.6347 -1.5560 -0.3130
   56CHL1  H27C 4144   2.260   3.952   8.421  1.6073 -1.7717  0.5301
   57SAPC     N 4145   0.830   1.159  10.850  0.4886 -0.0417  0.0041
   57SAPC   C12 4146   0.724   1.070  10.915 -0.5985 -0.2036  0.3805
   57SAPC  H12A 4147   0.755   1.040  11.014  0.2075 -1.8074 -0.3197
   57SAPC  H12B 4148   0.717   0.978  10.860 -3.6294  0.0188  0.2290
   57SAPC   C13 4149   0.959   1.091  10.873 -0.2423  0.8174  0.5656
   57SAPC  H13A 4150   0.984   1.077  10.977 -0.3496 -1.5442  0.3434
   57SAPC  H13B 4151   0.956   0.993  10.827  1.7204  0.7445  0.5439
   57SAPC  H13C 4152   1.042   1.151  10.839  1.8831 -0.0556  3.7608
   57SAPC   C14 4153   0.802   1.173  10.703  0.0126  0.4542  0.8331
   57SAPC  H14A 4154   0.700   1.209  10.700  0.2175  1.2451 -3.4974
   57SAPC  H14B 4155   0.864   1.248  10.656 -0.3545  0.4280  0.2858
   57SAPC  H14C 4156   0.811   1.079  10.649  2.5059  1.7200 -1.2019
   57SAPC   C15 4157   0.836   1.294  10.908 -0.0985 -0.4069 -0.2598
   57SAPC  H15A 4158   0.748   1.353  10.886  0.0063  0.5317  1.6521
   57SAPC  H15B 4159   0.844   1.293  11.016 -1.0931  1.1619 -0.1474
   57SAPC  H15C 4160   0.917   1.352  10.866 -0.3487 -1.5296 -2.4632
   57SAPC   C11 4161   0.577   1.125  10.929 -0.0175 -0.9846  0.0274
   57SAPC  H11A 4162   0.563   1.191  11.018 -2.3214 -3.0342  1.3129
   57SAPC  H11B 4163   0.521   1.031  10.950  2.3693 -2.5070 -0.0763
   57SAPC     P 4164   0.474   1.329  10.795  0.2004 -0.0586 -0.1133
   57SAPC   O13 4165   0.458   1.394  10.927  0.0513  0.3962 -0.4186
   57SAPC   O14 4166   0.562   1.399  10.695 -0.3315  0.2739  0.1773
   57SAPC   O12 4167   0.523   1.177  10.806  0.2226 -0.5421 -0.1121
   57SAPC   O11 4168   0.334   1.307  10.733 -0.7442 -0.3479  0.3500
   57SAPC    C1 4169   0.319   1.206  10.630 -0.3206  0.8317  0.3449
   57SAPC    HA 4170   0.386   1.117  10.632 -2.0959 -0.7264 -2.2018
   57SAPC    HB 4171   0.223   1.153  10.649 -0.1457  0.2453 -0.3356
   57SAPC    C2 4172   0.315   1.251  10.483  0.4162 -0.6305 -0.2604
   57SAPC    HS 4173   0.274   1.163  10.429 -0.1610 -0.0822 -0.7344
   57SAPC   O21 4174   0.445   1.287  10.439 -0.6266 -0.2381 -0.0258
   57SAPC   C21 4175   0.540   1.202  10.421 -0.2669 -0.1848 -0.5941
   57SAPC   O22 4176   0.536   1.084  10.462 -0.1358  0.0651  0.3125
   57SAPC   C22 4177   0.666   1.268  10.374  0.0616  0.1518  0.6689
   57SAPC   H2R 4178   0.706   1.326  10.460 -0.4423  0.2374  0.8460
   57SAPC   H2S 4179   0.743   1.191  10.350 -0.3700  0.7155 -3.2807
   57SAPC    C3 4180   0.211   1.365  10.465  0.4600  0.6903  0.5632
   57SAPC    HX 4181   0.250   1.459  10.508  0.8812  0.9938 -0.4607
   57SAPC    HY 4182   0.123   1.353  10.532  0.4829  1.2268  0.6888
   57SAPC   O31 4183   0.174   1.392  10.331 -0.1045  0.2750 -0.2352
   57SAPC   C31 4184   0.237   1.486  10.262  0.1543  0.3576  0.0669
   57SAPC   O32 4185   0.346   1.540  10.289 -0.0645 -0.0498  0.1650
   57SAPC   C32 4186   0.159   1.523  10.144  0.7175 -0.3561  0.1069
   57SAPC   H2X 4187   0.123   1.626  10.163 -1.1761 -1.0463  0.4643
   57SAPC   H2Y 4188   0.076   1.451  10.127 -0.9273  1.9381 -2.6168
   57SAPC   C23 4189   0.645   1.359  10.247  0.5849 -0.5626  0.4234
   57SAPC   H3R 4190   0.740   1.404  10.208  1.2832 -2.4226 -0.1533
   57SAPC   H3S 4191   0.583   1.441  10.287 -0.9280 -2.1648  1.5018
   57SAPC   C24 4192   0.569   1.289  10.133 -0.0264  0.1214 -0.3252
   57SAPC   H4R 4193   0.546   1.367  10.058 -1.9222  0.2189  0.3017
   57SAPC   H4S 4194   0.468   1.258  10.170 -0.3328  1.6232  0.1371
   57SAPC   C25 4195   0.649   1.184  10.065 -0.3617  0.1194 -0.6435
   57SAPC   H5R 4196   0.741   1.157  10.119 -1.6057 -1.5330  0.8039
   57SAPC   C26 4197   0.623   1.123   9.956  0.5894 -0.2787  0.3839
   57SAPC   H6R 4198   0.693   1.051   9.911 -1.1840 -1.3066 -0.8290
   57SAPC   C27 4199   0.497   1.145   9.873 -0.5754  0.2813 -0.0654
   57SAPC   H7R 4200   0.428   1.215   9.924 -0.3333 -0.3252  1.1360
   57SAPC   H7S 4201   0.449   1.045   9.880  1.3257 -0.5775  1.4571
   57SAPC   C28 4202   0.522   1.181   9.730  0.3477 -0.0989  0.2305
   57SAPC   H8R 4203   0.546   1.287   9.716 -0.8996  0.6317  3.0230
   57SAPC   C29 4204   0.498   1.106   9.617  0.2043  0.4064 -0.5289
   57SAPC   H9R 4205   0.494   1.156   9.519 -0.9862 -0.1591 -0.7872
   57SAPC  C210 4206   0.444   0.965   9.604  0.3057  0.6793 -0.8951
   57SAPC  H10R 4207   0.406   0.961   9.499  0.3412  0.3675 -0.8940
   57SAPC  H10S 4208   0.370   0.943   9.684  1.6994 -0.9573 -0.0059
   57SAPC  C211 4209   0.554   0.857   9.623 -0.0415  0.3807 -0.8757
   57SAPC  H11R 4210   0.619   0.871   9.711 -0.2372 -0.4088 -0.5994
   57SAPC  C212 4211   0.583   0.751   9.543 -0.1871 -0.2321  0.5325
   57SAPC  H12R 4212   0.639   0.666   9.584  0.5742  0.3703  0.7496
   57SAPC  C213 4213   0.497   0.724   9.422 -0.6782 -0.9328  0.0040
   57SAPC  H13R 4214   0.477   0.821   9.371 -0.3753  0.6741  2.7702
   57SAPC  H13S 4215   0.409   0.667   9.458 -0.1963 -1.5224  0.2753
   57SAPC  C214 4216   0.570   0.636   9.325  0.3235  0.2903 -0.3735
   57SAPC  H14R 4217   0.662   0.594   9.369 -0.3634  1.3771  2.3247
   57SAPC  C215 4218   0.530   0.619   9.199 -0.0628  0.3053  0.5972
   57SAPC  H15R 4219   0.584   0.552   9.131 -1.5805 -0.7259  0.3557
   57SAPC  C216 4220   0.410   0.679   9.136  0.2465 -0.1545  0.0511
   57SAPC  H16R 4221   0.434   0.671   9.028  1.5816 -0.5901  0.3703
   57SAPC  H16S 4222   0.403   0.784   9.171 -0.6010 -0.3018  0.3643
   57SAPC  C217 4223   0.277   0.601   9.168  0.2035 -0.0506 -0.2466
   57SAPC  H17R 4224   0.259   0.568   9.272  0.2892  0.4870 -0.0591
   57SAPC  H17S 4225   0.283   0.505   9.113 -1.6593  0.7184 -1.9129
   57SAPC  C218 4226   0.156   0.681   9.124 -0.1263 -0.4604 -0.1667
   57SAPC  H18R 4227   0.184   0.784   9.155  1.4331 -1.5168  2.2305
   57SAPC  H18S 4228   0.063   0.648   9.175  0.8514 -1.2072  1.1969
   57SAPC  C219 4229   0.137   0.679   8.972  0.1412 -0.2593  0.0016
   57SAPC  H19R 4230   0.129   0.571   8.945  0.2161 -0.3650  0.4001
   57SAPC  H19S 4231   0.229   0.723   8.926  0.8985 -0.4633  1.2696
   57SAPC  C220 4232   0.017   0.762   8.933 -0.0402  0.9407  0.2306
   57SAPC  H20R 4233  -0.029   0.720   8.841  0.7756 -0.6497  0.5148
   57SAPC  H20S 4234   0.044   0.869   8.918  1.9693  0.5063  0.4380
   57SAPC  H20T 4235  -0.063   0.757   9.010  0.2079  2.3608  0.6074
   57SAPC   C33 4236   0.254   1.508  10.022  0.3960 -0.7178 -0.1694
   57SAPC   H3X 4237   0.261   1.400   9.997 -1.7597 -1.1188  0.7595
   57SAPC   H3Y 4238   0.353   1.550  10.051  0.0941 -0.3562  0.3521
   57SAPC   C34 4239   0.199   1.563   9.890 -0.2942 -0.8824  0.2519
   57SAPC   H4X 4240   0.205   1.674   9.893  3.6134 -0.9617  1.7697
   57SAPC   H4Y 4241   0.098   1.518   9.885  0.5987 -3.3261  2.0215
   57SAPC   C35 4242   0.282   1.529   9.765 -0.7878  0.1045 -0.0068
   57SAPC   H5X 4243   0.315   1.425   9.743  2.1534  0.5909  1.6215
   57SAPC   H5Y 4244   0.377   1.586   9.770 -1.2474  1.2095 -2.7111
   57SAPC   C36 4245   0.208   1.586   9.643 -0.2711  0.5937 -0.1857
   57SAPC   H6X 4246   0.188   1.692   9.671  2.5115  1.4344 -1.0843
   57SAPC   H6Y 4247   0.114   1.528   9.627  0.9376 -0.9649 -2.1095
   57SAPC   C37 4248   0.292   1.580   9.515 -0.4988  0.3592  0.5836
   57SAPC   H7X 4249   0.319   1.475   9.490  1.9222  0.8847  0.7142
   57SAPC   H7Y 4250   0.390   1.631   9.526 -0.4103 -0.0399  1.7627
   57SAPC   C38 4251   0.213   1.643   9.396 -0.0840  0.1037 -1.1702
   57SAPC   H8X 4252   0.183   1.744   9.431 -0.0049 -0.2499 -0.0232
   57SAPC   H8Y 4253   0.123   1.579   9.388  0.2269 -0.3446 -1.0727
   57SAPC   C39 4254   0.277   1.646   9.258  0.2667 -0.0367  0.2979
   57SAPC   H9X 4255   0.327   1.547   9.244  0.1550 -0.3661  1.9995
   57SAPC   H9Y 4256   0.363   1.716   9.246  0.1761 -0.1643 -1.4257
   57SAPC  C310 4257   0.173   1.675   9.148  0.3296 -0.2478 -0.3163
   57SAPC  H10X 4258   0.131   1.768   9.192 -0.0496 -0.5227 -0.0935
   57SAPC  H10Y 4259   0.082   1.611   9.146 -0.3088  0.6056  0.3996
   57SAPC  C311 4260   0.235   1.684   9.007 -0.2975 -0.0680 -0.0581
   57SAPC  H11X 4261   0.307   1.768   9.022 -2.0979  1.3976  0.8615
   57SAPC  H11Y 4262   0.152   1.708   8.937 -0.9800  1.7431  1.2958
   57SAPC  C312 4263   0.303   1.555   8.952  0.0632 -0.0284  0.0364
   57SAPC  H12X 4264   0.243   1.463   8.970 -0.1474  0.6274  3.2249
   57SAPC  H12Y 4265   0.391   1.537   9.017  0.5041 -4.1589 -1.3581
   57SAPC  C313 4266   0.354   1.568   8.809 -1.0010  0.1777 -0.0443
   57SAPC  H13X 4267   0.408   1.664   8.795 -0.3802 -0.4622 -2.6359
   57SAPC  H13Y 4268   0.273   1.564   8.733  1.5683  2.1112 -3.1584
   57SAPC  C314 4269   0.443   1.440   8.777 -0.5990 -0.6094 -0.2613
   57SAPC  H14X 4270   0.378   1.352   8.791 -1.7141  0.3396  0.8282
   57SAPC  H14Y 4271   0.528   1.443   8.849  0.0514  2.2717 -1.0191
   57SAPC  C315 4272   0.496   1.442   8.635  0.1371 -0.0367  0.3046
   57SAPC  H15X 4273   0.561   1.532   8.631 -1.3116  1.0337 -3.1435
   57SAPC  H15Y 4274   0.408   1.460   8.569  0.2182 -1.8979 -0.3840
   57SAPC  C316 4275   0.574   1.324   8.581  0.1774 -0.4086  0.2522
   57SAPC  H16X 4276   0.502   1.240   8.579 -0.2400 -0.0456 -0.6563
   57SAPC  H16Y 4277   0.655   1.294   8.651  2.1898  1.9687 -0.8585
   57SAPC  C317 4278   0.627   1.338   8.436  0.5351 -0.2673  0.6114
   57SAPC  H17X 4279   0.704   1.419   8.434 -1.2669  1.5233 -1.2675
   57SAPC  H17Y 4280   0.541   1.363   8.371  0.7479  0.8835  0.7555
   57SAPC  C318 4281   0.704   1.220   8.379  1.1064 -0.3035  0.4820
   57SAPC  H18X 4282   0.748   1.251   8.281  3.3744  0.0080  1.5174
   57SAPC  H18Y 4283   0.629   1.141   8.362 -0.4213  1.2800 -0.5462
   57SAPC  H18Z 4284   0.786   1.187   8.446  0.4194 -1.2276  0.8760
   58SAPC     N 4285   5.088   5.619  10.844 -0.1719  0.1431 -0.1774
   58SAPC   C12 4286   5.097   5.665  10.698 -0.4743  0.1203 -0.2016
   58SAPC  H12A 4287   5.192   5.638  10.653 -0.0674  0.1442  0.6243
   58SAPC  H12B 4288   5.099   5.773  10.698  0.3057  0.1250 -1.3093
   58SAPC   C13 4289   5.095   5.471  10.852  0.0343  0.1345 -0.2577
   58SAPC  H13A 4290   5.190   5.435  10.817  0.2740  0.8220 -0.3417
   58SAPC  H13B 4291   5.087   5.444  10.956 -0.5708 -0.1008 -0.3591
   58SAPC  H13C 4292   5.016   5.421  10.798 -0.6588  1.0158 -0.1005
   58SAPC   C14 4293   5.194   5.673  10.923 -0.8421 -0.0277 -0.3379
   58SAPC  H14A 4294   5.290   5.658  10.875 -1.5081  1.8190 -2.4137
   58SAPC  H14B 4295   5.178   5.778  10.941  0.3984 -0.0768  1.1645
   58SAPC  H14C 4296   5.185   5.627  11.020 -1.6378  0.3825 -0.2100
   58SAPC   C15 4297   4.956   5.664  10.909  0.1437  0.7125  0.4756
   58SAPC  H15A 4298   4.938   5.769  10.893  0.6922  1.0558  2.0247
   58SAPC  H15B 4299   4.877   5.614  10.854  0.7435  3.1309 -2.9459
   58SAPC  H15C 4300   4.945   5.653  11.015 -3.0396  0.2949  0.2196
   58SAPC   C11 4301   4.987   5.628  10.593  0.5637 -0.1361  0.0636
   58SAPC  H11A 4302   4.968   5.519  10.596 -0.5781  0.0305 -0.6861
   58SAPC  H11B 4303   5.019   5.637  10.487 -1.2457 -1.0451 -0.5909
   58SAPC     P 4304   4.727   5.663  10.601  0.0304 -0.1691  0.1263
   58SAPC   O13 4305   4.727   5.519  10.593 -0.4375 -0.0188  0.4718
   58SAPC   O14 4306   4.647   5.732  10.706  0.3469  0.1669  0.0123
   58SAPC   O12 4307   4.871   5.709  10.621 -0.3345 -0.1543 -0.5927
   58SAPC   O11 4308   4.665   5.719  10.461  0.1421 -0.6568  0.1148
   58SAPC    C1 4309   4.760   5.717  10.356  0.1059  0.5089  0.2944
   58SAPC    HA 4310   4.725   5.797  10.287 -0.7277  0.3427  0.5178
   58SAPC    HB 4311   4.864   5.753  10.374  0.2428  1.6144 -2.2483
   58SAPC    C2 4312   4.750   5.587  10.273 -0.1386  0.8385  0.4319
   58SAPC    HS 4313   4.798   5.496  10.316  0.2444  0.0977 -1.4664
   58SAPC   O21 4314   4.807   5.613  10.142  0.6818  0.1574 -0.9170
   58SAPC   C21 4315   4.940   5.613  10.133  0.1922 -0.1254 -0.1824
   58SAPC   O22 4316   5.023   5.583  10.219  0.2690  0.3528 -0.0139
   58SAPC   C22 4317   4.980   5.661   9.995 -0.4538  0.1515  0.2295
   58SAPC   H2R 4318   4.990   5.771   9.990  1.1926  0.2239  3.1365
   58SAPC   H2S 4319   5.079   5.621   9.965  1.0075  2.7469  1.2473
   58SAPC    C3 4320   4.602   5.554  10.251  0.8539  0.0897 -0.2692
   58SAPC    HX 4321   4.549   5.645  10.215 -1.4959 -0.3391  1.8532
   58SAPC    HY 4322   4.565   5.531  10.353  0.3608  0.7812 -0.2834
   58SAPC   O31 4323   4.583   5.432  10.173 -0.3723  0.1857 -0.4848
   58SAPC   C31 4324   4.517   5.445  10.063 -0.5304  0.2612  0.0045
   58SAPC   O32 4325   4.483   5.550  10.014 -0.0517 -0.1293 -0.0408
   58SAPC   C32 4326   4.522   5.304   9.990  0.0464  0.3158  0.2065
   58SAPC   H2X 4327   4.469   5.222  10.044  3.4109 -1.2435  1.3682
   58SAPC   H2Y 4328   4.622   5.259   9.980 -1.6720 -3.5719 -1.3149
   58SAPC   C23 4329   4.875   5.632   9.887  0.6134  0.1720  0.4871
   58SAPC   H3R 4330   4.773   5.651   9.928  0.4644  0.1993  0.1027
   58SAPC   H3S 4331   4.874   5.525   9.856 -1.1000  0.6859 -1.4788
   58SAPC   C24 4332   4.898   5.707   9.754 -0.0349  0.3140  1.2761
   58SAPC   H4R 4333   4.888   5.812   9.789 -0.7204 -0.3075  3.0797
   58SAPC   H4S 4334   4.814   5.686   9.684  1.7361  0.8650 -1.1534
   58SAPC   C25 4335   5.028   5.679   9.683 -0.0587  0.3953 -0.2186
   58SAPC   H5R 4336   5.113   5.737   9.720  0.1302 -0.0758  0.0940
   58SAPC   C26 4337   5.049   5.593   9.585 -0.9326  0.2085 -0.5879
   58SAPC   H6R 4338   5.156   5.576   9.565 -1.0902  0.2597 -1.5225
   58SAPC   C27 4339   4.941   5.510   9.515  0.5783 -0.7164  0.1255
   58SAPC   H7R 4340   4.885   5.581   9.451  2.1132 -0.0693 -0.5656
   58SAPC   H7S 4341   4.869   5.478   9.593 -1.4017  1.3423 -0.7481
   58SAPC   C28 4342   5.005   5.403   9.431  0.1546 -0.3529 -1.0547
   58SAPC   H8R 4343   5.069   5.333   9.487  0.1254  2.4813  2.9181
   58SAPC   C29 4344   5.001   5.398   9.299 -0.2719  0.3895 -0.4160
   58SAPC   H9R 4345   5.036   5.306   9.251  0.5940 -0.7857  2.3011
   58SAPC  C210 4346   4.944   5.494   9.190  0.4933  0.7102 -0.3274
   58SAPC  H10R 4347   4.851   5.536   9.234 -1.1083 -1.1702 -1.7711
   58SAPC  H10S 4348   4.907   5.449   9.096 -2.8377  1.3826  0.5231
   58SAPC  C211 4349   5.043   5.604   9.164  0.3814 -0.1728 -0.0252
   58SAPC  H11R 4350   5.146   5.587   9.197  0.2564 -2.1197 -0.5397
   58SAPC  C212 4351   5.001   5.717   9.105 -0.2371  0.0238  0.9351
   58SAPC  H12R 4352   5.078   5.792   9.082  2.2121 -2.4697  0.5080
   58SAPC  C213 4353   4.859   5.743   9.050 -0.0658 -0.6362  0.6110
   58SAPC  H13R 4354   4.806   5.811   9.119  0.0088  0.9747 -0.8349
   58SAPC  H13S 4355   4.792   5.655   9.047  1.1953 -1.6075 -0.2170
   58SAPC  C214 4356   4.848   5.801   8.915  0.2172  0.3074  0.4881
   58SAPC  H14R 4357   4.790   5.894   8.909  1.6189  1.3166  1.7482
   58SAPC  C215 4358   4.900   5.761   8.797  0.1894 -0.7768  0.0816
   58SAPC  H15R 4359   4.899   5.825   8.707 -1.3975 -2.6567 -1.3180
   58SAPC  C216 4360   4.984   5.647   8.781  0.5625  0.3018 -0.0144
   58SAPC  H16R 4361   4.937   5.583   8.703  0.6443 -1.5204  1.3680
   58SAPC  H16S 4362   4.983   5.589   8.876  0.0911  0.5438  0.1312
   58SAPC  C217 4363   5.129   5.668   8.731  0.5234 -0.7785 -0.8607
   58SAPC  H17R 4364   5.173   5.567   8.721  1.0958 -0.7157  0.8524
   58SAPC  H17S 4365   5.186   5.714   8.814 -0.2133  2.2616 -1.8882
   58SAPC  C218 4366   5.137   5.746   8.596 -0.2502 -0.0441 -0.0236
   58SAPC  H18R 4367   5.100   5.849   8.615  0.9877 -0.0489  2.9461
   58SAPC  H18S 4368   5.088   5.717   8.500  0.1042  0.5592 -0.3931
   58SAPC  C219 4369   5.284   5.762   8.533  0.1372  0.3142  0.7269
   58SAPC  H19R 4370   5.322   5.662   8.502  0.3279  1.0287 -1.5695
   58SAPC  H19S 4371   5.354   5.800   8.610 -0.1614 -1.4362  1.9166
   58SAPC  C220 4372   5.267   5.852   8.408 -0.1405  0.8138  0.1696
   58SAPC  H20R 4373   5.191   5.933   8.408  1.0389  2.0222 -2.1986
   58SAPC  H20S 4374   5.231   5.775   8.336  2.7665 -1.4954  0.9531
   58SAPC  H20T 4375   5.363   5.890   8.367 -0.5164  0.9543 -0.6056
   58SAPC   C33 4376   4.451   5.307   9.853 -0.5848  0.4445 -0.6712
   58SAPC   H3X 4377   4.351   5.352   9.875 -1.0752 -1.2179  0.7681
   58SAPC   H3Y 4378   4.422   5.209   9.810 -0.9401  1.0731 -1.9311
   58SAPC   C34 4379   4.542   5.375   9.747  0.1627  0.5786 -0.6421
   58SAPC   H4X 4380   4.646   5.334   9.746 -0.3909 -1.0006 -3.1837
   58SAPC   H4Y 4381   4.541   5.483   9.772  0.0381  0.0594  1.9308
   58SAPC   C35 4382   4.471   5.370   9.610  0.3903  0.4445  0.4411
   58SAPC   H5X 4383   4.366   5.406   9.615 -0.0550 -0.7106 -0.1291
   58SAPC   H5Y 4384   4.461   5.263   9.580  1.5001  0.6041 -0.5604
   58SAPC   C36 4385   4.542   5.452   9.500 -0.5573 -0.0577 -0.1695
   58SAPC   H6X 4386   4.646   5.413   9.492 -0.4575 -0.2846  1.7452
   58SAPC   H6Y 4387   4.534   5.561   9.518  2.8621  0.2220  0.4350
   58SAPC   C37 4388   4.471   5.426   9.367  0.5071  0.2768 -0.4513
   58SAPC   H7X 4389   4.367   5.459   9.390  1.0562  0.6216  1.7845
   58SAPC   H7Y 4390   4.476   5.316   9.348  0.4359  0.4080 -1.2325
   58SAPC   C38 4391   4.540   5.492   9.246 -0.0447  0.1204  0.4895
   58SAPC   H8X 4392   4.640   5.452   9.218  0.4911  1.5406  0.2996
   58SAPC   H8Y 4393   4.561   5.599   9.267 -1.7949  0.5535  0.2401
   58SAPC   C39 4394   4.453   5.485   9.119 -0.1203 -0.4753 -0.0897
   58SAPC   H9X 4395   4.357   5.537   9.139 -0.1597  0.2325 -1.9043
   58SAPC   H9Y 4396   4.431   5.379   9.098 -0.2174 -0.6485  0.8721
   58SAPC  C310 4397   4.517   5.564   9.002  0.3761 -0.4190  1.0519
   58SAPC  H10X 4398   4.623   5.534   8.999  0.7445  0.7952 -1.9046
   58SAPC  H10Y 4399   4.533   5.673   9.019 -0.0247 -0.3538  1.0293
   58SAPC  C311 4400   4.460   5.555   8.864  0.2389 -0.6198 -0.5450
   58SAPC  H11X 4401   4.357   5.598   8.869  1.1462  1.5251  0.7965
   58SAPC  H11Y 4402   4.461   5.447   8.834  0.0969 -0.4640 -1.1395
   58SAPC  C312 4403   4.520   5.627   8.741  0.4050 -0.3189  0.3781
   58SAPC  H12X 4404   4.629   5.607   8.732  0.5417  0.9795 -1.5917
   58SAPC  H12Y 4405   4.526   5.737   8.756  2.0046 -0.5104  1.3952
   58SAPC  C313 4406   4.452   5.603   8.608 -0.0490  0.6454 -0.2042
   58SAPC  H13X 4407   4.348   5.640   8.610 -0.7784 -1.2086 -0.9481
   58SAPC  H13Y 4408   4.454   5.494   8.587  1.9674  0.5780  0.1148
   58SAPC  C314 4409   4.514   5.687   8.493  0.7493  0.1023 -0.2625
   58SAPC  H14X 4410   4.524   5.796   8.513 -1.4197  0.7966 -2.4076
   58SAPC  H14Y 4411   4.442   5.682   8.408 -0.3558 -0.9122  0.6941
   58SAPC  C315 4412   4.648   5.632   8.454 -0.0510  0.1871 -0.0433
   58SAPC  H15X 4413   4.639   5.532   8.407 -0.4828 -1.4586  3.2930
   58SAPC  H15Y 4414   4.720   5.606   8.535  1.5934  1.1969 -1.1083
   58SAPC  C316 4415   4.718   5.719   8.345  0.1671  0.2835 -0.4289
   58SAPC  H16X 4416   4.809   5.755   8.397  0.3924  1.2808 -1.4604
   58SAPC  H16Y 4417   4.673   5.816   8.311  2.4544  1.8839  0.8732
   58SAPC  C317 4418   4.752   5.635   8.223  0.4395  0.3618  0.2605
   58SAPC  H17X 4419   4.789   5.533   8.247  1.1879  0.7206  0.6679
   58SAPC  H17Y 4420   4.833   5.686   8.167 -0.5028  1.8172  0.1613
   58SAPC  C318 4421   4.638   5.613   8.122 -0.6778 -0.0761  0.1521
   58SAPC  H18X 4422   4.604   5.707   8.074 -0.5206 -0.8497 -1.5307
   58SAPC  H18Y 4423   4.549   5.572   8.174 -0.8670  0.4750  0.2788
   58SAPC  H18Z 4424   4.670   5.547   8.039 -0.3835 -0.0733  0.2622
   59SAPC     N 4425   5.708   1.749  11.184 -0.1563 -0.8766  0.0463
   59SAPC   C12 4426   5.642   1.804  11.060 -0.5392  0.4499  0.3386
   59SAPC  H12A 4427   5.628   1.720  10.993  3.0148 -0.8808  1.0418
   59SAPC  H12B 4428   5.718   1.861  11.010  0.8821  1.2681  3.2085
   59SAPC   C13 4429   5.744   1.870  11.274  0.1700  0.1754  0.1944
   59SAPC  H13A 4430   5.793   1.932  11.201 -2.6214  0.6125 -1.4584
   59SAPC  H13B 4431   5.657   1.918  11.317  0.8737  2.2829 -0.6249
   59SAPC  H13C 4432   5.805   1.841  11.358 -1.7811  1.6780  2.2438
   59SAPC   C14 4433   5.629   1.657  11.261  0.7429 -0.3096  0.0677
   59SAPC  H14A 4434   5.623   1.565  11.206  0.7361 -0.1894 -0.1310
   59SAPC  H14B 4435   5.687   1.633  11.349 -0.0596  1.6440  1.2048
   59SAPC  H14C 4436   5.533   1.695  11.290 -0.6385 -3.0926 -0.5807
   59SAPC   C15 4437   5.839   1.682  11.143 -0.7608  0.3533 -0.0562
   59SAPC  H15A 4438   5.879   1.630  11.229  2.9562  2.3149 -0.3662
   59SAPC  H15B 4439   5.830   1.606  11.067  1.5870 -1.4443  1.3211
   59SAPC  H15C 4440   5.923   1.741  11.109 -0.0427 -0.0276  1.0018
   59SAPC   C11 4441   5.506   1.879  11.073  0.2753  0.0987  0.1457
   59SAPC  H11A 4442   5.470   1.926  10.979  2.6749  1.4193 -0.1716
   59SAPC  H11B 4443   5.532   1.959  11.146  2.3258 -1.4538  1.2357
   59SAPC     P 4444   5.336   1.683  11.039  0.3250  0.3915 -0.1114
   59SAPC   O13 4445   5.382   1.551  11.092  0.4592 -0.2181 -0.2573
   59SAPC   O14 4446   5.187   1.707  11.031  0.6133 -0.1130  0.1380
   59SAPC   O12 4447   5.399   1.799  11.127  0.1012 -0.1844  0.2731
   59SAPC   O11 4448   5.399   1.691  10.888  0.0838 -0.0528  0.2468
   59SAPC    C1 4449   5.306   1.749  10.793  0.0381  0.7015 -0.0499
   59SAPC    HA 4450   5.217   1.685  10.784  1.3218 -1.8526  3.2803
   59SAPC    HB 4451   5.284   1.854  10.822 -0.0721  0.5894  0.2711
   59SAPC    C2 4452   5.350   1.758  10.640  0.3073 -0.3895 -1.2999
   59SAPC    HS 4453   5.261   1.773  10.575 -0.7973 -0.9900  0.0307
   59SAPC   O21 4454   5.432   1.645  10.602 -0.0255  0.1804 -0.7831
   59SAPC   C21 4455   5.367   1.527  10.584  0.0533  0.1424 -0.0296
   59SAPC   O22 4456   5.252   1.507  10.616 -0.3168 -0.8244 -0.2386
   59SAPC   C22 4457   5.463   1.415  10.535 -1.0508 -0.1220  0.2157
   59SAPC   H2R 4458   5.551   1.421  10.602  0.1425  1.8123 -1.4148
   59SAPC   H2S 4459   5.409   1.318  10.544 -1.2442  0.0614  1.1072
   59SAPC    C3 4460   5.438   1.887  10.621  0.1734  0.8377 -0.9645
   59SAPC    HX 4461   5.523   1.885  10.694 -0.2215  3.7850 -0.2862
   59SAPC    HY 4462   5.371   1.972  10.644 -1.4397 -0.4313 -0.7543
   59SAPC   O31 4463   5.476   1.900  10.488  0.1064  0.0185  0.6865
   59SAPC   C31 4464   5.613   1.911  10.459 -0.5448 -0.1570 -0.1245
   59SAPC   O32 4465   5.699   1.891  10.540  0.4446 -0.2262  0.3358
   59SAPC   C32 4466   5.639   1.986  10.330 -0.0019  0.0903  0.1628
   59SAPC   H2X 4467   5.690   2.083  10.353 -0.7212  0.1848  1.4527
   59SAPC   H2Y 4468   5.539   2.006  10.286 -0.4208 -0.0503  1.0358
   59SAPC   C23 4469   5.521   1.428  10.389  0.2887 -0.1736 -0.3212
   59SAPC   H3R 4470   5.620   1.380  10.371 -0.8221 -2.6458 -0.1244
   59SAPC   H3S 4471   5.530   1.536  10.364  1.4050 -0.6388 -2.1448
   59SAPC   C24 4472   5.431   1.374  10.277 -0.2668  0.1216  0.1762
   59SAPC   H4R 4473   5.414   1.265  10.293 -1.1896  0.4130  1.2558
   59SAPC   H4S 4474   5.476   1.379  10.175 -1.0513  2.4704 -0.1064
   59SAPC   C25 4475   5.302   1.452  10.279 -0.4370 -0.5454 -0.1891
   59SAPC   H5R 4476   5.239   1.446  10.369 -1.5481  0.1505 -0.9006
   59SAPC   C26 4477   5.264   1.527  10.174  0.9367 -0.5906 -0.5027
   59SAPC   H6R 4478   5.167   1.579  10.184  1.9320  1.3678 -0.5281
   59SAPC   C27 4479   5.329   1.557  10.039 -0.5209  0.0873  0.0981
   59SAPC   H7R 4480   5.439   1.569  10.049  0.0038 -1.6163 -2.5110
   59SAPC   H7S 4481   5.301   1.655   9.994  0.7350  0.4204  0.0132
   59SAPC   C28 4482   5.310   1.442   9.935 -0.0366 -0.0362 -0.9156
   59SAPC   H8R 4483   5.309   1.342   9.980  0.6040 -0.6599 -2.2201
   59SAPC   C29 4484   5.305   1.454   9.799 -0.0300  0.2069  0.0714
   59SAPC   H9R 4485   5.294   1.365   9.736  0.7349 -0.7284  1.2160
   59SAPC  C210 4486   5.314   1.584   9.720  0.1606 -0.0962 -0.3876
   59SAPC  H10R 4487   5.409   1.592   9.663  0.7812  1.6716  0.7873
   59SAPC  H10S 4488   5.325   1.665   9.795  0.3287 -1.2747  0.9108
   59SAPC  C211 4489   5.201   1.618   9.623 -0.5683 -0.7915  0.2725
   59SAPC  H11R 4490   5.123   1.680   9.671  0.6180  0.1823  0.9981
   59SAPC  C212 4491   5.188   1.573   9.496  0.2108  0.1809 -0.2779
   59SAPC  H12R 4492   5.091   1.592   9.448  0.1064 -0.1126 -0.1871
   59SAPC  C213 4493   5.272   1.490   9.411  0.5267 -0.4782  0.3411
   59SAPC  H13R 4494   5.375   1.531   9.422 -0.0263  0.9139  0.5381
   59SAPC  H13S 4495   5.249   1.497   9.303 -0.1504 -0.6592  0.4722
   59SAPC  C214 4496   5.277   1.343   9.444 -0.6080  0.4183 -0.4150
   59SAPC  H14R 4497   5.273   1.314   9.550  2.1903 -0.9532 -0.5963
   59SAPC  C215 4498   5.284   1.235   9.363 -0.0399  0.4569 -0.7610
   59SAPC  H15R 4499   5.298   1.137   9.411  0.8592  1.1821  0.4813
   59SAPC  C216 4500   5.268   1.226   9.208 -0.0300  0.4409 -0.1470
   59SAPC  H16R 4501   5.208   1.312   9.171 -0.0106  1.5222  2.1515
   59SAPC  H16S 4502   5.212   1.137   9.171  0.1863  0.3418 -0.2364
   59SAPC  C217 4503   5.406   1.221   9.136  0.0440  0.5293 -0.3122
   59SAPC  H17R 4504   5.458   1.123   9.143  0.7105  0.7537 -1.7552
   59SAPC  H17S 4505   5.479   1.288   9.187  0.2255  0.8113 -0.9337
   59SAPC  C218 4506   5.397   1.284   8.993  0.0602 -0.0990 -0.1096
   59SAPC  H18R 4507   5.341   1.380   8.998  1.2555  0.6213 -0.1821
   59SAPC  H18S 4508   5.339   1.217   8.926  0.0306 -0.0185 -0.1647
   59SAPC  C219 4509   5.538   1.319   8.932  0.5532 -0.0550 -0.6445
   59SAPC  H19R 4510   5.617   1.245   8.954  3.1626  2.1964 -1.9226
   59SAPC  H19S 4511   5.568   1.413   8.983  3.0377 -1.0559 -0.1322
   59SAPC  C220 4512   5.530   1.344   8.783  0.0498 -0.3170  0.0970
   59SAPC  H20R 4513   5.632   1.371   8.749  0.6315 -1.9543  0.4578
   59SAPC  H20S 4514   5.469   1.434   8.761 -0.7592 -1.4898 -2.9398
   59SAPC  H20T 4515   5.489   1.255   8.731 -1.9326  1.2927 -1.2808
   59SAPC   C33 4516   5.718   1.900  10.231 -0.1175 -0.3662 -1.0838
   59SAPC   H3X 4517   5.821   1.885  10.270 -0.9619 -1.7010  0.7749
   59SAPC   H3Y 4518   5.704   1.930  10.124  0.8256  1.1155 -0.8204
   59SAPC   C34 4519   5.664   1.751  10.234  0.0280  0.2913  0.3061
   59SAPC   H4X 4520   5.555   1.745  10.212 -0.0727  1.3758  0.4533
   59SAPC   H4Y 4521   5.665   1.704  10.334  1.4567  0.1105  0.2246
   59SAPC   C35 4522   5.729   1.660  10.134 -0.2792  0.9198 -0.4415
   59SAPC   H5X 4523   5.670   1.567  10.139 -1.6839  1.7656 -0.7189
   59SAPC   H5Y 4524   5.833   1.631  10.162  0.7090  1.4774 -3.2619
   59SAPC   C36 4525   5.723   1.707   9.987 -0.4487 -0.4454 -0.0332
   59SAPC   H6X 4526   5.829   1.740   9.975 -0.1782 -1.0077  0.7148
   59SAPC   H6Y 4527   5.650   1.790   9.984 -1.4844 -1.2050  2.0187
   59SAPC   C37 4528   5.714   1.599   9.878  0.0206  0.4430  0.2933
   59SAPC   H7X 4529   5.628   1.534   9.905  1.0836 -1.8142 -1.4058
   59SAPC   H7Y 4530   5.810   1.543   9.883  1.3357  2.7169  2.3100
   59SAPC   C38 4531   5.685   1.644   9.736 -0.6119  0.0997 -0.1096
   59SAPC   H8X 4532   5.759   1.723   9.709 -1.9684  1.0782 -1.0799
   59SAPC   H8Y 4533   5.588   1.696   9.744 -1.2583 -1.3601  2.6906
   59SAPC   C39 4534   5.686   1.532   9.626 -0.5092 -0.1051 -0.2371
   59SAPC   H9X 4535   5.614   1.448   9.639  1.1788 -1.4838  0.7720
   59SAPC   H9Y 4536   5.788   1.488   9.623  0.0490  1.1910 -1.4138
   59SAPC  C310 4537   5.667   1.595   9.482 -0.2002 -0.4187  0.0407
   59SAPC  H10X 4538   5.747   1.672   9.471  0.0102 -0.6242  0.1380
   59SAPC  H10Y 4539   5.569   1.646   9.471 -0.5953 -1.2616 -0.3830
   59SAPC  C311 4540   5.691   1.490   9.369  0.0814  0.3398  0.2512
   59SAPC  H11X 4541   5.617   1.408   9.379  0.1782  0.4705  2.4234
   59SAPC  H11Y 4542   5.786   1.432   9.381  0.8074  1.2912 -0.6739
   59SAPC  C312 4543   5.688   1.550   9.230 -0.1749  0.3262 -0.1249
   59SAPC  H12X 4544   5.679   1.469   9.154 -0.3865 -1.3325  1.6057
   59SAPC  H12Y 4545   5.787   1.597   9.209  0.9846 -1.7033  0.5532
   59SAPC  C313 4546   5.581   1.656   9.212  0.1451  0.3365 -0.4232
   59SAPC  H13X 4547   5.603   1.752   9.264  0.1442 -0.1846  0.5636
   59SAPC  H13Y 4548   5.486   1.615   9.252  0.1304  3.1481  2.9356
   59SAPC  C314 4549   5.557   1.688   9.064  0.5979  0.1500 -0.3073
   59SAPC  H14X 4550   5.498   1.607   9.017  0.2996  0.1900 -0.0120
   59SAPC  H14Y 4551   5.658   1.696   9.020  0.4377 -0.6271 -0.8359
   59SAPC  C315 4552   5.490   1.825   9.041  0.5362 -0.9244  0.3420
   59SAPC  H15X 4553   5.557   1.903   9.084  0.3846 -0.6809  0.1390
   59SAPC  H15Y 4554   5.390   1.831   9.087  0.0876 -1.6303 -0.5110
   59SAPC  C316 4555   5.483   1.869   8.890 -0.0996  0.1468 -0.2873
   59SAPC  H16X 4556   5.583   1.846   8.848 -0.5468 -1.3192 -0.6223
   59SAPC  H16Y 4557   5.481   1.980   8.893  3.5249  0.3560 -0.9149
   59SAPC  C317 4558   5.375   1.802   8.812 -0.3704  0.2772 -0.6432
   59SAPC  H17X 4559   5.294   1.877   8.804  0.0189  1.1888  2.6794
   59SAPC  H17Y 4560   5.333   1.722   8.877 -0.0923  0.0097 -0.7883
   59SAPC  C318 4561   5.421   1.757   8.675  0.3810  0.2096  0.0485
   59SAPC  H18X 4562   5.507   1.687   8.678 -0.2956 -0.6190  1.9615
   59SAPC  H18Y 4563   5.435   1.858   8.630 -0.1979 -0.3493 -1.4240
   59SAPC  H18Z 4564   5.338   1.697   8.633 -1.2271  0.8360  2.1269
   60SAPC     N 4565   5.768   5.774  10.485  0.0125  0.6159  0.1128
   60SAPC   C12 4566   5.824   5.893  10.407 -0.5161 -1.2423  0.6640
   60SAPC  H12A 4567   5.749   5.957  10.363  1.4571  1.1940  0.6636
   60SAPC  H12B 4568   5.868   5.856  10.315 -0.1217  1.9278 -0.5457
   60SAPC   C13 4569   5.654   5.705  10.426  0.3330  0.3115 -0.4950
   60SAPC  H13A 4570   5.655   5.701  10.318  0.9843 -1.0122 -0.4529
   60SAPC  H13B 4571   5.652   5.599  10.444  1.5179  0.7935  3.4709
   60SAPC  H13C 4572   5.554   5.729  10.459 -1.0871 -2.4657 -2.3760
   60SAPC   C14 4573   5.878   5.677  10.492 -0.0587  0.5449  0.5662
   60SAPC  H14A 4574   5.851   5.591  10.550  1.5572 -0.4674 -0.0962
   60SAPC  H14B 4575   5.909   5.644  10.394 -1.0870  0.7124  0.1801
   60SAPC  H14C 4576   5.956   5.724  10.551  0.9754  1.1632 -1.1838
   60SAPC   C15 4577   5.735   5.821  10.619  0.3335  0.6794  0.0772
   60SAPC  H15A 4578   5.636   5.865  10.628  0.3517  0.9722 -1.0187
   60SAPC  H15B 4579   5.739   5.739  10.688 -2.1272  0.6195  0.2688
   60SAPC  H15C 4580   5.807   5.896  10.648 -0.4387  0.6010  2.3716
   60SAPC   C11 4581   5.928   5.991  10.471 -0.4602 -0.0408  0.8925
   60SAPC  H11A 4582   5.964   6.072  10.404  1.5759  1.0673  3.1572
   60SAPC  H11B 4583   6.014   5.933  10.509 -0.1672  0.4342  0.9647
   60SAPC     P 4584   5.824   6.203  10.598 -0.0131  0.2811  0.1511
   60SAPC   O13 4585   5.682   6.179  10.575  0.3624  0.2052 -0.2653
   60SAPC   O14 4586   5.862   6.261  10.726  0.1774 -0.1343  0.0586
   60SAPC   O12 4587   5.886   6.064  10.591  0.3136  0.1378  0.2298
   60SAPC   O11 4588   5.899   6.279  10.477 -0.2533 -0.0778 -0.0151
   60SAPC    C1 4589   5.825   6.398  10.432 -0.8462 -0.3043  0.8775
   60SAPC    HA 4590   5.732   6.380  10.374  0.8026  0.0165 -2.0677
   60SAPC    HB 4591   5.807   6.465  10.519  2.3855  2.4117 -0.2972
   60SAPC    C2 4592   5.906   6.486  10.331  0.7433  0.2603 -0.5120
   60SAPC    HS 4593   5.850   6.582  10.332  1.3790  0.6691  1.8559
   60SAPC   O21 4594   5.913   6.404  10.209  0.3950 -0.5594 -0.1645
   60SAPC   C21 4595   5.933   6.481  10.110  0.2867 -0.0045  0.4702
   60SAPC   O22 4596   5.923   6.602  10.102  0.0847 -0.1562 -0.5276
   60SAPC   C22 4597   5.991   6.396   9.998  0.3536 -0.3082  0.2826
   60SAPC   H2R 4598   6.100   6.402  10.020  0.7889 -0.3275 -1.7123
   60SAPC   H2S 4599   5.970   6.288   9.992  2.3170 -0.7168  0.1339
   60SAPC    C3 4600   6.048   6.512  10.387 -0.6113  0.1608 -0.0090
   60SAPC    HX 4601   6.099   6.414  10.400 -1.1958 -0.3418 -1.3564
   60SAPC    HY 4602   6.039   6.554  10.490  2.5620  0.4935  0.2286
   60SAPC   O31 4603   6.132   6.596  10.307 -1.1993 -0.3843 -0.0007
   60SAPC   C31 4604   6.249   6.616  10.372  0.8885  0.2367 -0.1306
   60SAPC   O32 4605   6.267   6.593  10.489  0.6878  0.0398  0.3634
   60SAPC   C32 4606   6.339   6.685  10.268 -0.1603  0.3732 -0.4546
   60SAPC   H2X 4607   6.438   6.638  10.288 -0.0727 -0.2929 -2.3109
   60SAPC   H2Y 4608   6.338   6.794  10.292  1.2989  0.1934  0.5276
   60SAPC   C23 4609   5.962   6.452   9.854  0.1437  0.0517 -0.0791
   60SAPC   H3R 4610   6.018   6.546   9.835 -0.6029  0.6760  0.7331
   60SAPC   H3S 4611   5.853   6.471   9.840 -0.3688 -1.8661  0.9512
   60SAPC   C24 4612   6.016   6.357   9.742  0.0310  0.0866 -0.8513
   60SAPC   H4R 4613   6.124   6.342   9.765 -0.4144 -0.3862  1.1190
   60SAPC   H4S 4614   6.009   6.415   9.648  1.3194  0.7378 -0.5758
   60SAPC   C25 4615   5.939   6.225   9.727 -0.1151  0.4000 -0.0063
   60SAPC   H5R 4616   5.945   6.155   9.812 -2.3776 -1.1634 -1.0497
   60SAPC   C26 4617   5.869   6.180   9.622  0.2226 -0.2924 -0.0276
   60SAPC   H6R 4618   5.817   6.084   9.625 -0.4025  0.0655  2.2387
   60SAPC   C27 4619   5.851   6.262   9.492  0.5030  0.0134  0.2611
   60SAPC   H7R 4620   5.905   6.359   9.489  0.2777  0.1106 -0.7953
   60SAPC   H7S 4621   5.747   6.299   9.481  0.7123  0.7523  0.6980
   60SAPC   C28 4622   5.895   6.198   9.370  1.2118  0.6102  0.6114
   60SAPC   H8R 4623   5.965   6.117   9.395  1.4826  0.9974  1.1252
   60SAPC   C29 4624   5.860   6.229   9.242 -0.1737  0.5021  0.4368
   60SAPC   H9R 4625   5.887   6.160   9.160 -0.2229 -0.0859  0.9087
   60SAPC  C210 4626   5.770   6.341   9.204  0.6063  0.0154 -0.0409
   60SAPC  H10R 4627   5.822   6.429   9.163 -1.3993  1.0903 -0.4083
   60SAPC  H10S 4628   5.717   6.377   9.295  0.2245 -0.2984 -0.1380
   60SAPC  C211 4629   5.672   6.276   9.107 -0.6611  0.2852 -0.6005
   60SAPC  H11R 4630   5.600   6.212   9.160  1.2145 -2.2903 -0.9502
   60SAPC  C212 4631   5.660   6.298   8.974  1.0769  0.6482  0.7096
   60SAPC  H12R 4632   5.579   6.256   8.914  2.0971  0.6436 -0.6960
   60SAPC  C213 4633   5.750   6.388   8.892  0.3196  0.5048 -0.5290
   60SAPC  H13R 4634   5.835   6.431   8.950  0.4003  0.1701 -0.4019
   60SAPC  H13S 4635   5.689   6.475   8.859  0.0725  1.9825  3.2462
   60SAPC  C214 4636   5.811   6.301   8.781 -0.4642 -0.3314  0.3245
   60SAPC  H14R 4637   5.872   6.216   8.815 -1.2074 -1.2302 -0.5267
   60SAPC  C215 4638   5.812   6.326   8.646 -0.6304 -0.2355 -0.5015
   60SAPC  H15R 4639   5.859   6.265   8.567 -1.5909  0.4683 -1.6628
   60SAPC  C216 4640   5.746   6.445   8.583  0.5799 -0.4690 -0.0753
   60SAPC  H16R 4641   5.651   6.464   8.637 -0.1426  0.5592 -1.6514
   60SAPC  H16S 4642   5.728   6.427   8.475  2.8083  0.9660 -0.7392
   60SAPC  C217 4643   5.822   6.579   8.589  0.6095 -0.5722 -0.1275
   60SAPC  H17R 4644   5.829   6.613   8.694 -1.1958 -0.7526  0.0988
   60SAPC  H17S 4645   5.743   6.647   8.549  0.3971 -1.8910 -2.0858
   60SAPC  C218 4646   5.948   6.586   8.504  0.6708  0.2273  0.0294
   60SAPC  H18R 4647   5.916   6.606   8.400 -0.9986  0.6431  0.5978
   60SAPC  H18S 4648   6.004   6.490   8.498  0.2591 -0.1151  1.3889
   60SAPC  C219 4649   6.036   6.710   8.541 -0.3014  0.1684  0.9404
   60SAPC  H19R 4650   6.130   6.694   8.483 -1.0381  1.0236 -0.5559
   60SAPC  H19S 4651   6.078   6.700   8.644  1.8644 -1.6635 -0.0268
   60SAPC  C220 4652   5.991   6.854   8.506 -0.2391 -0.6676 -0.1477
   60SAPC  H20R 4653   5.992   6.869   8.396  1.7526  1.6511  0.1101
   60SAPC  H20S 4654   6.048   6.935   8.557 -1.7152 -0.1678  0.7787
   60SAPC  H20T 4655   5.891   6.876   8.548  0.4394 -0.8679  1.6644
   60SAPC   C33 4656   6.296   6.655  10.118 -0.1331 -0.1205  0.1210
   60SAPC   H3X 4657   6.193   6.685  10.090 -0.6253 -1.4471  0.4447
   60SAPC   H3Y 4658   6.297   6.545  10.104 -1.8038 -0.4713  2.2477
   60SAPC   C34 4659   6.386   6.733  10.021  0.3969 -0.6921  0.7301
   60SAPC   H4X 4660   6.494   6.707  10.022  0.7442  0.4757 -0.9918
   60SAPC   H4Y 4661   6.381   6.839  10.056 -0.2264 -0.0435 -1.2060
   60SAPC   C35 4662   6.347   6.739   9.875 -0.1021  0.2875 -0.3652
   60SAPC   H5X 4663   6.377   6.832   9.823 -1.4998  3.0679  3.3899
   60SAPC   H5Y 4664   6.236   6.748   9.878 -0.0428  0.7785  0.4245
   60SAPC   C36 4665   6.387   6.621   9.791 -0.2192  0.5626  0.3069
   60SAPC   H6X 4666   6.376   6.523   9.842 -1.8344  0.2069 -0.6701
   60SAPC   H6Y 4667   6.497   6.633   9.777 -0.1580  1.1003  1.1517
   60SAPC   C37 4668   6.317   6.613   9.655  0.3784 -0.3839  0.3352
   60SAPC   H7X 4669   6.207   6.607   9.665 -0.1359  0.4052 -3.4913
   60SAPC   H7Y 4670   6.368   6.525   9.611 -1.6237 -0.9767 -0.8692
   60SAPC   C38 4671   6.353   6.729   9.559  0.1542 -0.7143 -0.3958
   60SAPC   H8X 4672   6.459   6.761   9.568 -0.4083  0.9889  0.7925
   60SAPC   H8Y 4673   6.282   6.812   9.581 -0.9214 -1.9410  0.9427
   60SAPC   C39 4674   6.329   6.687   9.417 -0.4068  0.0622 -0.4226
   60SAPC   H9X 4675   6.224   6.651   9.405 -0.1179 -0.7202 -0.6702
   60SAPC   H9Y 4676   6.388   6.594   9.402 -0.3288  0.0551 -0.0704
   60SAPC  C310 4677   6.364   6.791   9.317 -0.6157 -0.1086 -0.6711
   60SAPC  H10X 4678   6.474   6.802   9.307 -0.2969 -1.4386  1.0051
   60SAPC  H10Y 4679   6.323   6.889   9.349  3.2012  2.1766 -2.0307
   60SAPC  C311 4680   6.312   6.761   9.177 -0.3728 -0.1309 -0.0064
   60SAPC  H11X 4681   6.203   6.742   9.172 -0.6005  0.7809  0.9329
   60SAPC  H11Y 4682   6.360   6.663   9.161 -0.3640 -0.1672  0.2389
   60SAPC  C312 4683   6.362   6.864   9.076 -0.0396  0.0726 -0.7763
   60SAPC  H12X 4684   6.473   6.867   9.077 -0.0093 -0.3868 -1.7734
   60SAPC  H12Y 4685   6.310   6.958   9.103  2.0799  0.5142  2.3689
   60SAPC  C313 4686   6.319   6.822   8.936  0.6932 -0.5562 -0.5622
   60SAPC  H13X 4687   6.214   6.787   8.945  0.7371 -1.5216 -3.0427
   60SAPC  H13Y 4688   6.382   6.733   8.917  0.6111 -0.9975  1.0854
   60SAPC  C314 4689   6.321   6.931   8.828 -0.0824  0.9310  0.1286
   60SAPC  H14X 4690   6.329   7.026   8.884 -0.3695  1.1184 -0.1473
   60SAPC  H14Y 4691   6.226   6.908   8.774 -0.4124 -0.0337  1.0760
   60SAPC  C315 4692   6.438   6.921   8.733  0.6452  0.0606 -0.3592
   60SAPC  H15X 4693   6.533   6.905   8.789  0.3996  0.1016  0.0653
   60SAPC  H15Y 4694   6.440   7.015   8.673  0.2793  0.4310  0.2054
   60SAPC  C316 4695   6.420   6.807   8.632 -0.1723  0.1644  0.6653
   60SAPC  H16X 4696   6.379   6.851   8.539  1.5638  1.0966  0.2821
   60SAPC  H16Y 4697   6.339   6.737   8.661  1.1999 -2.0919 -0.6650
   60SAPC  C317 4698   6.543   6.723   8.603  0.2760  0.2157  0.5422
   60SAPC  H17X 4699   6.512   6.650   8.525 -1.4525 -0.2651  1.6363
   60SAPC  H17Y 4700   6.566   6.669   8.697  0.4286 -1.5099 -0.4423
   60SAPC  C318 4701   6.671   6.800   8.559 -0.1297 -0.2701 -0.7390
   60SAPC  H18X 4702   6.712   6.858   8.645  0.1121 -0.7196 -0.5455
   60SAPC  H18Y 4703   6.644   6.869   8.478  1.2911  0.6356 -0.4810
   60SAPC  H18Z 4704   6.758   6.735   8.536 -0.6160 -0.8613 -0.9426
   61SAPC     N 4705   0.760   3.566  11.189  0.5301 -0.2877 -0.0373
   61SAPC   C12 4706   0.864   3.550  11.082  0.4454  0.1521  0.0820
   61SAPC  H12A 4707   0.941   3.485  11.121 -0.3343  0.8586  3.0865
   61SAPC  H12B 4708   0.918   3.643  11.069 -0.0720  0.4919  0.3169
   61SAPC   C13 4709   0.655   3.652  11.142  0.6176 -0.8126 -0.0563
   61SAPC  H13A 4710   0.691   3.746  11.102 -1.3854 -0.0197 -0.1619
   61SAPC  H13B 4711   0.604   3.612  11.055  1.5440 -1.6387 -0.2340
   61SAPC  H13C 4712   0.583   3.675  11.219  0.6732 -0.5594 -0.0796
   61SAPC   C14 4713   0.713   3.435  11.224 -0.2274  0.4884  0.1214
   61SAPC  H14A 4714   0.790   3.371  11.264 -1.0861  0.4110  1.7254
   61SAPC  H14B 4715   0.645   3.438  11.308  0.5530 -2.0437  0.9517
   61SAPC  H14C 4716   0.665   3.381  11.143 -0.5064  1.2111 -0.2035
   61SAPC   C15 4717   0.829   3.639  11.307  0.6145  0.8154 -0.2164
   61SAPC  H15A 4718   0.756   3.651  11.386  0.7607 -2.3689  0.5467
   61SAPC  H15B 4719   0.902   3.573  11.351 -0.9596 -0.6377  0.3345
   61SAPC  H15C 4720   0.875   3.733  11.281  0.5501  0.6731 -0.8478
   61SAPC   C11 4721   0.816   3.503  10.946  0.0998 -0.2717 -0.9592
   61SAPC  H11A 4722   0.735   3.428  10.959  0.0743 -0.3395 -1.5211
   61SAPC  H11B 4723   0.903   3.466  10.889  1.5269  1.6256 -0.1147
   61SAPC     P 4724   0.820   3.731  10.810  0.2740  0.3226 -0.3573
   61SAPC   O13 4725   0.720   3.828  10.757  0.2275  0.0333 -0.2396
   61SAPC   O14 4726   0.922   3.788  10.900 -0.5095  0.8336  0.2644
   61SAPC   O12 4727   0.749   3.611  10.886 -0.0482 -0.0622 -0.0515
   61SAPC   O11 4728   0.893   3.659  10.697 -0.2957  0.3233  0.5940
   61SAPC    C1 4729   0.838   3.567  10.597 -0.9552 -1.0032 -0.1889
   61SAPC    HA 4730   0.874   3.463  10.611 -1.5940 -1.2536 -0.3717
   61SAPC    HB 4731   0.727   3.572  10.601 -0.9245 -0.1022  4.5722
   61SAPC    C2 4732   0.893   3.612  10.453 -1.3616  0.0558  0.7684
   61SAPC    HS 4733   0.831   3.569  10.372 -1.7513  2.1503 -0.0894
   61SAPC   O21 4734   1.038   3.595  10.440  0.7462 -0.2538 -0.0601
   61SAPC   C21 4735   1.082   3.475  10.399  0.1060  0.2013  0.1382
   61SAPC   O22 4736   1.005   3.380  10.385 -0.1859  0.0012  0.6671
   61SAPC   C22 4737   1.240   3.475  10.385 -0.3877  0.2211  0.4269
   61SAPC   H2R 4738   1.291   3.478  10.484  1.7592 -3.5960 -0.4130
   61SAPC   H2S 4739   1.262   3.372  10.351 -0.1953  0.1426  0.7855
   61SAPC    C3 4740   0.865   3.761  10.418  0.2534  0.6086  0.3103
   61SAPC    HX 4741   0.918   3.814  10.499 -1.1193  2.3289  0.1498
   61SAPC    HY 4742   0.757   3.776  10.441  0.0444  0.2375 -0.3867
   61SAPC   O31 4743   0.891   3.807  10.277  0.5390  0.4296 -0.1471
   61SAPC   C31 4744   0.995   3.884  10.259 -0.6211 -0.2702 -0.5077
   61SAPC   O32 4745   1.065   3.932  10.349  0.2057  0.6032 -0.3169
   61SAPC   C32 4746   1.012   3.922  10.111  0.0114 -0.7547  0.5699
   61SAPC   H2X 4747   0.963   4.020  10.092  0.0611 -1.0362 -1.1386
   61SAPC   H2Y 4748   0.972   3.842  10.046 -2.6154 -0.3182  1.5209
   61SAPC   C23 4749   1.310   3.584  10.303  0.9420 -0.0197 -0.0761
   61SAPC   H3R 4750   1.346   3.658  10.377  1.0073  0.0635 -0.1910
   61SAPC   H3S 4751   1.238   3.646  10.244  1.6538 -0.5227 -1.5238
   61SAPC   C24 4752   1.448   3.539  10.244  0.5272  0.3860  0.0779
   61SAPC   H4R 4753   1.496   3.465  10.311  1.0770  0.4496 -0.2385
   61SAPC   H4S 4754   1.515   3.627  10.244  1.8762 -0.6076  0.0610
   61SAPC   C25 4755   1.438   3.477  10.103  0.6288 -0.3005 -0.6201
   61SAPC   H5R 4756   1.401   3.374  10.093  1.6623 -0.5417 -2.4489
   61SAPC   C26 4757   1.475   3.518   9.985  0.4636 -0.3101  0.1648
   61SAPC   H6R 4758   1.461   3.451   9.899 -0.2985 -0.5327  0.4559
   61SAPC   C27 4759   1.536   3.654   9.955  0.2895 -0.1927 -0.0743
   61SAPC   H7R 4760   1.644   3.650   9.931  0.9250 -0.9391  2.6175
   61SAPC   H7S 4761   1.521   3.704  10.052  0.4363 -0.8754  0.3079
   61SAPC   C28 4762   1.475   3.729   9.837 -0.3922  0.1332  0.4406
   61SAPC   H8R 4763   1.427   3.824   9.864 -0.7642  0.1642 -0.3133
   61SAPC   C29 4764   1.480   3.696   9.704 -0.6838 -0.4553 -0.2375
   61SAPC   H9R 4765   1.423   3.765   9.640 -0.6067  1.0027  1.2097
   61SAPC  C210 4766   1.548   3.577   9.644  0.0722 -0.1736  0.2548
   61SAPC  H10R 4767   1.622   3.528   9.712 -1.6835 -1.8756  1.0444
   61SAPC  H10S 4768   1.602   3.595   9.549 -2.3098 -2.6367 -1.7215
   61SAPC  C211 4769   1.450   3.468   9.615  0.2608 -0.8239 -0.0348
   61SAPC  H11R 4770   1.358   3.458   9.675  0.4669 -0.2828  0.3731
   61SAPC  C212 4771   1.450   3.376   9.514 -0.3881  0.0226 -0.3071
   61SAPC  H12R 4772   1.368   3.304   9.506 -1.1259  0.9051 -0.8375
   61SAPC  C213 4773   1.554   3.366   9.405 -0.9398  0.1590 -0.3645
   61SAPC  H13R 4774   1.550   3.459   9.344 -0.8101 -0.3336 -1.1452
   61SAPC  H13S 4775   1.533   3.284   9.332 -1.4699  1.2686 -1.4938
   61SAPC  C214 4776   1.689   3.320   9.459 -0.0249 -0.2070 -0.2843
   61SAPC  H14R 4777   1.702   3.290   9.564  0.6485  0.3576 -0.1983
   61SAPC  C215 4778   1.802   3.322   9.378  1.1985  0.2349  0.0214
   61SAPC  H15R 4779   1.887   3.264   9.416  1.1779 -0.1438 -0.5081
   61SAPC  C216 4780   1.808   3.370   9.233 -0.8438  0.4424  0.5633
   61SAPC  H16R 4781   1.865   3.465   9.228  0.0482 -0.1382 -1.5476
   61SAPC  H16S 4782   1.708   3.398   9.193 -0.8877 -0.6157 -0.1217
   61SAPC  C217 4783   1.859   3.276   9.118 -0.2506  0.6006  0.4997
   61SAPC  H17R 4784   1.832   3.171   9.142 -0.9072  0.8391  0.8282
   61SAPC  H17S 4785   1.970   3.284   9.122 -0.0487  0.1408 -2.1694
   61SAPC  C218 4786   1.810   3.327   8.985 -0.0429  0.5084  0.8887
   61SAPC  H18R 4787   1.848   3.428   8.960 -1.8261  0.9358 -0.2253
   61SAPC  H18S 4788   1.700   3.320   8.972 -0.3203  2.5179  1.7588
   61SAPC  C219 4789   1.859   3.227   8.880 -0.0265 -0.1376 -0.5179
   61SAPC  H19R 4790   1.824   3.127   8.914 -2.1428  0.4981 -0.6847
   61SAPC  H19S 4791   1.969   3.240   8.871 -0.1305  0.0336 -1.7439
   61SAPC  C220 4792   1.795   3.252   8.743  0.9037  0.1971  0.3372
   61SAPC  H20R 4793   1.730   3.163   8.724 -0.3623  1.2698 -0.5619
   61SAPC  H20S 4794   1.871   3.253   8.662  0.6038 -0.4704  0.0391
   61SAPC  H20T 4795   1.746   3.350   8.726  2.5337  0.7970 -1.2240
   61SAPC   C33 4796   1.165   3.957  10.094  0.5096 -0.3518 -0.3763
   61SAPC   H3X 4797   1.225   3.864  10.105 -0.2161 -0.7819  0.0225
   61SAPC   H3Y 4798   1.188   4.043  10.160 -1.7124  1.3049 -1.6213
   61SAPC   C34 4799   1.201   4.013   9.953 -0.1987 -0.0030 -0.9746
   61SAPC   H4X 4800   1.171   3.936   9.879 -1.5331 -0.0784 -0.3779
   61SAPC   H4Y 4801   1.311   4.028   9.966 -0.5024  0.3778  1.8326
   61SAPC   C35 4802   1.136   4.143   9.931  0.8592 -0.1505 -1.5314
   61SAPC   H5X 4803   1.148   4.214  10.015 -1.0473 -0.9464 -0.5287
   61SAPC   H5Y 4804   1.026   4.130   9.940  0.9303 -1.7196 -2.5509
   61SAPC   C36 4805   1.167   4.218   9.795  0.1515 -0.2128 -0.5548
   61SAPC   H6X 4806   1.270   4.259   9.809  0.4588 -0.4473 -1.9828
   61SAPC   H6Y 4807   1.095   4.302   9.786 -0.0546  0.0275  2.3182
   61SAPC   C37 4808   1.156   4.122   9.673  0.3830 -0.0743 -0.5516
   61SAPC   H7X 4809   1.057   4.072   9.666  0.2009  0.2205 -0.1190
   61SAPC   H7Y 4810   1.224   4.039   9.702  0.8213  0.8545  1.2725
   61SAPC   C38 4811   1.196   4.179   9.535  0.5618  0.1379  0.4513
   61SAPC   H8X 4812   1.299   4.217   9.549  1.6111 -1.7184 -1.5626
   61SAPC   H8Y 4813   1.132   4.269   9.525  0.3592  0.1107  1.4484
   61SAPC   C39 4814   1.184   4.095   9.402 -0.2479  0.9420  0.3864
   61SAPC   H9X 4815   1.215   4.163   9.320  4.4736  0.5514  1.5529
   61SAPC   H9Y 4816   1.084   4.057   9.374  0.2754 -1.1020  1.1013
   61SAPC  C310 4817   1.301   3.981   9.405 -0.2466 -0.8613  0.0251
   61SAPC  H10X 4818   1.263   3.904   9.475 -0.9179  0.7248  1.4714
   61SAPC  H10Y 4819   1.394   4.021   9.451 -0.2809 -0.3703 -0.3260
   61SAPC  C311 4820   1.348   3.930   9.268  0.0740  0.1494 -0.4937
   61SAPC  H11X 4821   1.344   4.020   9.202  1.4546  1.0898  0.6300
   61SAPC  H11Y 4822   1.270   3.857   9.239  0.9479 -0.2576 -1.9193
   61SAPC  C312 4823   1.476   3.851   9.276 -0.5429  0.0145  0.2995
   61SAPC  H12X 4824   1.452   3.780   9.358 -0.9939  0.1511  0.2865
   61SAPC  H12Y 4825   1.573   3.902   9.295  1.5069 -3.6540  0.4912
   61SAPC  C313 4826   1.506   3.771   9.147  0.6722 -0.2038 -0.7033
   61SAPC  H13X 4827   1.611   3.736   9.158  0.0464 -1.7700  0.9439
   61SAPC  H13Y 4828   1.498   3.841   9.061  2.2076  0.6019 -0.2215
   61SAPC  C314 4829   1.421   3.644   9.130 -0.1951  0.5248  0.1380
   61SAPC  H14X 4830   1.313   3.663   9.111 -0.1901  1.2084  0.7630
   61SAPC  H14Y 4831   1.420   3.580   9.221  0.8755  0.8400  0.3802
   61SAPC  C315 4832   1.465   3.549   9.016 -0.2188  0.1849 -0.2549
   61SAPC  H15X 4833   1.554   3.488   9.039 -0.6159 -0.6204 -0.7943
   61SAPC  H15Y 4834   1.484   3.617   8.929  1.6577 -0.4828 -0.3957
   61SAPC  C316 4835   1.356   3.458   8.965  0.5731  0.2449  0.0307
   61SAPC  H16X 4836   1.272   3.523   8.931 -0.0427 -1.2078 -1.3315
   61SAPC  H16Y 4837   1.321   3.408   9.058  1.5074  0.9563  0.7918
   61SAPC  C317 4838   1.385   3.363   8.851  0.2293  0.0058 -0.6627
   61SAPC  H17X 4839   1.307   3.285   8.850  0.9966 -0.7976  0.1449
   61SAPC  H17Y 4840   1.484   3.317   8.872  0.5626  0.6032 -0.8728
   61SAPC  C318 4841   1.395   3.433   8.710 -0.2891  0.5602 -0.0023
   61SAPC  H18X 4842   1.472   3.512   8.722 -0.0222  0.6357 -1.8328
   61SAPC  H18Y 4843   1.297   3.466   8.668 -0.1960 -1.7186 -2.2187
   61SAPC  H18Z 4844   1.422   3.366   8.626 -1.2764  0.9013 -0.6210
   62SAPC     N 4845   0.392   2.424  10.864 -0.0798 -0.4313 -0.1010
   62SAPC   C12 4846   0.381   2.353  10.731  0.2189 -0.1668 -0.0599
   62SAPC  H12A 4847   0.318   2.267  10.744  0.7883 -0.8009 -1.3489
   62SAPC  H12B 4848   0.482   2.321  10.708 -0.1735 -1.3305 -0.1722
   62SAPC   C13 4849   0.262   2.486  10.914 -0.2176 -0.3210  0.2518
   62SAPC  H13A 4850   0.256   2.591  10.889 -0.9335 -0.0676  1.4175
   62SAPC  H13B 4851   0.174   2.439  10.872 -1.4615  1.3222  0.8561
   62SAPC  H13C 4852   0.252   2.483  11.021  1.2798  1.3589  0.4803
   62SAPC   C14 4853   0.437   2.320  10.964 -0.0714  0.4319  0.2841
   62SAPC  H14A 4854   0.524   2.267  10.930 -1.2655 -1.4885  0.0580
   62SAPC  H14B 4855   0.454   2.366  11.060 -1.3178 -0.8053  1.1473
   62SAPC  H14C 4856   0.357   2.249  10.981  0.1708 -0.1152 -0.7908
   62SAPC   C15 4857   0.501   2.531  10.866 -0.0437 -0.5928  0.0693
   62SAPC  H15A 4858   0.598   2.484  10.879  0.1813 -0.1319  0.1014
   62SAPC  H15B 4859   0.501   2.572  10.765 -1.4115  0.4946  0.4852
   62SAPC  H15C 4860   0.477   2.608  10.937 -2.6309  0.6361 -1.9726
   62SAPC   C11 4861   0.307   2.425  10.615 -0.5841 -0.4765  0.4191
   62SAPC  H11A 4862   0.202   2.454  10.640 -1.0862 -0.5737 -1.4542
   62SAPC  H11B 4863   0.305   2.365  10.522  3.3743 -1.5825  0.8547
   62SAPC     P 4864   0.513   2.554  10.511  0.1391 -0.0441  0.8130
   62SAPC   O13 4865   0.588   2.652  10.594  0.4253 -0.3637  0.2832
   62SAPC   O14 4866   0.577   2.421  10.495  0.5698  0.7257  0.0358
   62SAPC   O12 4867   0.376   2.544  10.585  0.3088  0.7850  0.1035
   62SAPC   O11 4868   0.471   2.620  10.371 -0.2717  0.2081  0.7562
   62SAPC    C1 4869   0.330   2.661  10.354  0.4440  0.6155  0.6812
   62SAPC    HA 4870   0.278   2.571  10.313 -0.4559  0.9629  1.0339
   62SAPC    HB 4871   0.276   2.680  10.449  0.3170  1.7599  0.3869
   62SAPC    C2 4872   0.329   2.783  10.262 -0.3863  0.4618 -0.0259
   62SAPC    HS 4873   0.234   2.803  10.208  1.0432 -0.5043 -3.1128
   62SAPC   O21 4874   0.425   2.762  10.158  0.3405 -0.1317  0.1277
   62SAPC   C21 4875   0.387   2.677  10.062  0.3276  0.8318 -0.3997
   62SAPC   O22 4876   0.291   2.599  10.074 -0.4268 -0.7909 -0.1622
   62SAPC   C22 4877   0.497   2.658   9.954  0.1977 -0.1587  0.0034
   62SAPC   H2R 4878   0.515   2.763   9.923 -0.4491  1.0664  3.3487
   62SAPC   H2S 4879   0.590   2.640  10.013  0.5098  2.4215  0.4397
   62SAPC    C3 4880   0.354   2.926  10.334 -0.3830  0.2072 -0.8724
   62SAPC    HX 4881   0.356   2.997  10.248 -1.0679  0.2318 -0.8713
   62SAPC    HY 4882   0.454   2.927  10.383  0.1189 -1.3057 -1.7831
   62SAPC   O31 4883   0.257   2.954  10.438  0.4181  0.2189  0.0418
   62SAPC   C31 4884   0.146   3.010  10.377 -0.5142 -0.3764  0.0083
   62SAPC   O32 4885   0.132   3.024  10.256 -0.5307  0.4688 -0.7156
   62SAPC   C32 4886   0.045   3.053  10.479  0.3579 -0.1471  0.1631
   62SAPC   H2X 4887   0.083   3.130  10.549 -1.9046 -0.3261  1.6995
   62SAPC   H2Y 4888   0.020   2.958  10.532 -0.0965 -1.0056 -1.5179
   62SAPC   C23 4889   0.472   2.562   9.833  0.1389  0.1990 -0.4301
   62SAPC   H3R 4890   0.422   2.472   9.874 -0.0288  1.4284  2.2665
   62SAPC   H3S 4891   0.577   2.532   9.813  0.5579 -0.4740  2.2949
   62SAPC   C24 4892   0.410   2.620   9.707 -0.2686 -0.0176  0.2032
   62SAPC   H4R 4893   0.437   2.562   9.616  0.0368  1.1083 -0.4477
   62SAPC   H4S 4894   0.459   2.718   9.687 -2.9957  1.6068  1.0250
   62SAPC   C25 4895   0.268   2.655   9.704  0.2743 -1.4819 -0.4500
   62SAPC   H5R 4896   0.196   2.579   9.672 -2.0994  0.5486 -0.2809
   62SAPC   C26 4897   0.214   2.776   9.733 -0.0337  0.1634  0.2155
   62SAPC   H6R 4898   0.107   2.781   9.756  0.1637 -1.5408  1.7646
   62SAPC   C27 4899   0.280   2.906   9.777  0.0043 -0.1833 -0.2995
   62SAPC   H7R 4900   0.285   2.976   9.691 -2.9622 -0.6305 -0.9355
   62SAPC   H7S 4901   0.387   2.884   9.797  0.0416  0.6781  0.4937
   62SAPC   C28 4902   0.231   2.976   9.907 -0.7498 -0.3446 -0.4230
   62SAPC   H8R 4903   0.301   2.986   9.992 -1.8338  2.0996  0.2842
   62SAPC   C29 4904   0.113   3.033   9.933 -0.0510 -0.1465  0.1290
   62SAPC   H9R 4905   0.097   3.076  10.033 -1.1632 -1.9548  0.7832
   62SAPC  C210 4906  -0.001   3.050   9.832 -0.0481  0.3066  0.1062
   62SAPC  H10R 4907  -0.093   3.005   9.875 -0.4285  0.1832 -0.8040
   62SAPC  H10S 4908   0.024   2.993   9.740 -0.3240 -0.5724  0.5681
   62SAPC  C211 4909  -0.038   3.189   9.790 -0.4620 -0.2670 -0.4041
   62SAPC  H11R 4910  -0.101   3.240   9.864 -0.2826 -2.1469  1.1119
   62SAPC  C212 4911   0.008   3.255   9.678 -0.4035 -0.5248 -0.1162
   62SAPC  H12R 4912  -0.026   3.359   9.673  0.4972 -0.1936  0.4257
   62SAPC  C213 4913   0.102   3.197   9.572  0.4823 -0.2725 -0.4687
   62SAPC  H13R 4914   0.199   3.172   9.620  1.3250 -0.1221 -2.0281
   62SAPC  H13S 4915   0.128   3.279   9.502 -0.2516  0.9979  0.6945
   62SAPC  C214 4916   0.041   3.089   9.488 -0.1586  0.9805  0.1380
   62SAPC  H14R 4917  -0.067   3.070   9.500  0.2840 -2.0857 -0.0195
   62SAPC  C215 4918   0.109   3.014   9.398  0.3126 -0.2473 -0.0976
   62SAPC  H15R 4919   0.054   2.940   9.337  1.5296 -0.5280 -0.8938
   62SAPC  C216 4920   0.253   3.022   9.375  0.8300 -0.1658 -0.6510
   62SAPC  H16R 4921   0.297   3.075   9.462  0.5253 -1.4540  0.3366
   62SAPC  H16S 4922   0.270   3.082   9.283 -1.4150  0.9321 -0.4038
   62SAPC  C217 4923   0.307   2.878   9.363  0.3597  0.2558 -0.2202
   62SAPC  H17R 4924   0.260   2.809   9.436  0.4030  0.7369  0.2756
   62SAPC  H17S 4925   0.416   2.876   9.380  0.2972  0.7555  0.2802
   62SAPC  C218 4926   0.279   2.828   9.221 -0.2882 -0.1305 -0.4588
   62SAPC  H18R 4927   0.315   2.906   9.152  1.8262 -0.9009 -0.3101
   62SAPC  H18S 4928   0.175   2.803   9.190  0.0524  0.1863 -1.9072
   62SAPC  C219 4929   0.367   2.706   9.186  0.1814  0.4699  0.9689
   62SAPC  H19R 4930   0.343   2.616   9.247  0.8715 -0.5608 -0.2377
   62SAPC  H19S 4931   0.471   2.728   9.220  0.8168 -1.0900  0.1556
   62SAPC  C220 4932   0.358   2.653   9.040  0.0418 -0.2239 -0.1817
   62SAPC  H20R 4933   0.268   2.589   9.026  0.6218 -0.9334 -0.8296
   62SAPC  H20S 4934   0.449   2.593   9.020  0.7460  0.9211 -0.4737
   62SAPC  H20T 4935   0.358   2.737   8.968 -0.6221  0.2836  0.3984
   62SAPC   C33 4936  -0.081   3.116  10.436 -0.2000  0.1361 -0.0032
   62SAPC   H3X 4937  -0.144   3.126  10.527 -0.0838  0.6290  0.0254
   62SAPC   H3Y 4938  -0.134   3.060  10.357 -0.1862 -0.2329  0.2493
   62SAPC   C34 4939  -0.058   3.256  10.377  0.5479 -1.0218 -0.3336
   62SAPC   H4X 4940   0.010   3.254  10.288 -0.9413 -1.1241 -1.5034
   62SAPC   H4Y 4941  -0.015   3.321  10.457 -0.5932  1.8360 -1.8757
   62SAPC   C35 4942  -0.186   3.329  10.334  1.1014 -0.9025  0.2650
   62SAPC   H5X 4943  -0.183   3.440  10.329 -1.5420 -0.8047 -1.1927
   62SAPC   H5Y 4944  -0.262   3.305  10.412 -1.0181  3.3557 -0.1728
   62SAPC   C36 4945  -0.238   3.283  10.192  0.0065 -0.6101  0.4297
   62SAPC   H6X 4946  -0.255   3.174  10.185  0.7923 -0.7742  1.0094
   62SAPC   H6Y 4947  -0.158   3.310  10.120  1.7638  1.7114  3.0260
   62SAPC   C37 4948  -0.367   3.353  10.166 -0.5251 -0.1690  0.5439
   62SAPC   H7X 4949  -0.428   3.342  10.258 -1.1736 -1.8581 -0.0362
   62SAPC   H7Y 4950  -0.418   3.293  10.088  0.4548 -0.7322  0.3154
   62SAPC   C38 4951  -0.372   3.503  10.129  0.1657  0.0952 -0.3065
   62SAPC   H8X 4952  -0.364   3.577  10.211  0.0736 -0.8806  0.5982
   62SAPC   H8Y 4953  -0.476   3.512  10.090 -0.1993 -2.3308 -0.0743
   62SAPC   C39 4954  -0.292   3.541  10.000  0.2964 -0.3330 -0.3812
   62SAPC   H9X 4955  -0.184   3.531  10.021  0.4228  2.3091  0.6643
   62SAPC   H9Y 4956  -0.317   3.645   9.968  0.8879 -0.2120 -0.4638
   62SAPC  C310 4957  -0.321   3.450   9.876 -0.3307 -0.5111 -0.1472
   62SAPC  H10X 4958  -0.431   3.448   9.865 -0.3651  1.2529 -0.4261
   62SAPC  H10Y 4959  -0.289   3.345   9.895  1.1213 -0.0387  0.1512
   62SAPC  C311 4960  -0.251   3.501   9.747 -0.2307  0.1905 -0.3152
   62SAPC  H11X 4961  -0.142   3.515   9.758 -0.6384  4.3965 -0.1710
   62SAPC  H11Y 4962  -0.282   3.607   9.738  0.7239  0.4798 -0.3148
   62SAPC  C312 4963  -0.303   3.416   9.629  0.8081 -0.3688  0.0884
   62SAPC  H12X 4964  -0.414   3.421   9.627  0.6642 -2.4255  0.8545
   62SAPC  H12Y 4965  -0.292   3.308   9.654 -0.6314  0.0369  2.7686
   62SAPC  C313 4966  -0.246   3.456   9.496 -0.3009 -0.0890  0.3336
   62SAPC  H13X 4967  -0.139   3.482   9.512 -0.7076  0.7788  1.8795
   62SAPC  H13Y 4968  -0.297   3.548   9.460 -0.7373 -1.1085 -1.8339
   62SAPC  C314 4969  -0.250   3.348   9.388 -0.7822  0.9837 -0.2871
   62SAPC  H14X 4970  -0.355   3.324   9.362 -0.3281 -1.2448 -0.2510
   62SAPC  H14Y 4971  -0.201   3.256   9.426 -0.8617  1.3423  0.7237
   62SAPC  C315 4972  -0.178   3.388   9.253  0.4583  0.7833  0.2322
   62SAPC  H15X 4973  -0.086   3.435   9.292  0.7344  1.9789 -1.7390
   62SAPC  H15Y 4974  -0.247   3.454   9.195  0.1575  0.1135 -0.1905
   62SAPC  C316 4975  -0.144   3.264   9.168  0.2722 -0.1459 -0.3258
   62SAPC  H16X 4976  -0.243   3.222   9.141 -1.0114  1.9265  0.8971
   62SAPC  H16Y 4977  -0.096   3.182   9.225 -3.0624 -1.9827  0.0959
   62SAPC  C317 4978  -0.062   3.285   9.039  0.5985 -0.3374  0.5058
   62SAPC  H17X 4979   0.016   3.357   9.070  0.1970 -0.2854  1.4713
   62SAPC  H17Y 4980  -0.118   3.337   8.959  2.3166  1.6299  0.4954
   62SAPC  C318 4981   0.001   3.158   8.968 -0.1586  0.3474 -0.3584
   62SAPC  H18X 4982   0.068   3.097   9.033  2.0183  2.1869 -0.7566
   62SAPC  H18Y 4983   0.074   3.188   8.890  0.8429 -0.5680  0.2107
   62SAPC  H18Z 4984  -0.085   3.101   8.926  0.9594 -1.1865 -0.6392
   63SAPC     N 4985   6.330   2.607   6.180 -0.0036  0.1362  0.0087
   63SAPC   C12 4986   6.283   2.745   6.231  0.3405  0.4231  0.5520
   63SAPC  H12A 4987   6.362   2.817   6.213  0.5926 -0.0425 -0.3257
   63SAPC  H12B 4988   6.280   2.740   6.338  3.2115  0.1612  0.6944
   63SAPC   C13 4989   6.442   2.571   6.273 -1.0650  1.0083 -0.0437
   63SAPC  H13A 4990   6.434   2.465   6.286 -1.6047  0.9701 -0.6310
   63SAPC  H13B 4991   6.544   2.590   6.241 -0.5628 -4.1825 -2.4086
   63SAPC  H13C 4992   6.428   2.622   6.368  2.2115 -0.3852  1.3453
   63SAPC   C14 4993   6.209   2.520   6.184 -0.1533 -0.0189  0.1985
   63SAPC  H14A 4994   6.202   2.428   6.128  1.5980 -1.8569  2.7424
   63SAPC  H14B 4995   6.188   2.489   6.286  0.4213  0.9526  0.6275
   63SAPC  H14C 4996   6.126   2.579   6.148  0.3154  0.8567  0.5318
   63SAPC   C15 4997   6.376   2.628   6.044 -0.3258 -0.5415 -0.9466
   63SAPC  H15A 4998   6.316   2.697   5.986 -2.1740 -2.6599 -1.7060
   63SAPC  H15B 4999   6.476   2.668   6.050 -0.0403 -1.4257  1.0376
   63SAPC  H15C 5000   6.385   2.537   5.986 -0.7061 -1.3860  0.2807
   63SAPC   C11 5001   6.153   2.807   6.172 -0.2161 -0.0153 -1.0306
   63SAPC  H11A 5002   6.166   2.818   6.062 -1.3481 -0.6731 -1.2451
   63SAPC  H11B 5003   6.147   2.909   6.215 -2.4518  0.0170 -1.2964
   63SAPC     P 5004   5.952   2.748   6.335 -0.0611  0.0264 -0.1034
   63SAPC   O13 5005   5.812   2.726   6.298 -0.4504 -0.2007 -0.2992
   63SAPC   O14 5006   6.006   2.661   6.444  1.1187  0.2846 -0.5616
   63SAPC   O12 5007   6.038   2.734   6.207 -0.5370  0.0771  0.5904
   63SAPC   O11 5008   5.975   2.892   6.372 -0.2575  0.0125 -0.3970
   63SAPC    C1 5009   6.063   2.932   6.477  0.1746 -0.0586 -0.4804
   63SAPC    HA 5010   6.150   2.863   6.481 -0.9061 -1.4268  1.0941
   63SAPC    HB 5011   6.107   3.029   6.446  0.7432 -0.0100  0.4433
   63SAPC    C2 5012   5.993   2.949   6.613 -0.0845  0.1897 -0.2793
   63SAPC    HS 5013   6.064   3.008   6.675  0.1691 -0.7436  0.3288
   63SAPC   O21 5014   5.953   2.824   6.679 -0.0040  0.0423 -0.8564
   63SAPC   C21 5015   6.053   2.754   6.731  0.3183 -0.0688  0.7682
   63SAPC   O22 5016   6.171   2.790   6.723 -0.6138  0.6102  0.1970
   63SAPC   C22 5017   5.996   2.627   6.798 -0.5889 -0.8689 -0.0609
   63SAPC   H2R 5018   5.922   2.575   6.733 -1.6442  0.5200 -0.0330
   63SAPC   H2S 5019   6.082   2.559   6.817 -0.3879 -0.3778  0.8949
   63SAPC    C3 5020   5.872   3.034   6.585  0.8402 -0.5603  0.2139
   63SAPC    HX 5021   5.821   2.951   6.532  2.1746 -2.0550  1.1920
   63SAPC    HY 5022   5.896   3.120   6.519  0.7954  0.2724  1.2554
   63SAPC   O31 5023   5.802   3.081   6.698  0.2171 -0.1131 -0.4473
   63SAPC   C31 5024   5.670   3.091   6.699 -0.1440 -0.0770 -0.6903
   63SAPC   O32 5025   5.605   3.064   6.601  0.5630  0.2599 -0.0618
   63SAPC   C32 5026   5.619   3.119   6.840 -0.2829 -0.1748 -0.1671
   63SAPC   H2X 5027   5.579   3.222   6.839 -0.8264 -0.3767  0.2699
   63SAPC   H2Y 5028   5.696   3.125   6.920 -0.2767  2.3172 -0.2933
   63SAPC   C23 5029   5.942   2.678   6.932  0.7585  0.6061 -0.2503
   63SAPC   H3R 5030   5.995   2.770   6.967  0.2087  1.0576 -0.5940
   63SAPC   H3S 5031   5.961   2.604   7.013  0.2490 -0.3161 -0.9682
   63SAPC   C24 5032   5.789   2.708   6.925 -0.0052 -0.6322 -0.3722
   63SAPC   H4R 5033   5.740   2.634   6.858 -2.3494 -1.0810  1.7106
   63SAPC   H4S 5034   5.766   2.803   6.872 -0.4341 -0.7953 -0.4772
   63SAPC   C25 5035   5.735   2.718   7.067  0.0705  0.3600  0.6322
   63SAPC   H5R 5036   5.669   2.638   7.104 -0.9719  0.6122 -0.6377
   63SAPC   C26 5037   5.735   2.821   7.150  0.5994 -0.0415 -0.5385
   63SAPC   H6R 5038   5.679   2.824   7.245  2.2623 -1.0646  0.5290
   63SAPC   C27 5039   5.797   2.954   7.120 -0.2859 -0.5692  0.1680
   63SAPC   H7R 5040   5.722   3.029   7.155 -0.0007  0.0297 -0.4916
   63SAPC   H7S 5041   5.804   2.968   7.010 -0.1152  1.0943  0.3631
   63SAPC   C28 5042   5.927   2.974   7.189 -0.1123  0.0040 -0.6172
   63SAPC   H8R 5043   6.014   2.983   7.123 -1.9953 -1.7072 -3.5827
   63SAPC   C29 5044   5.951   3.001   7.324 -0.7474  0.3070  0.3220
   63SAPC   H9R 5045   6.054   3.006   7.363 -0.1406 -1.5866 -0.9440
   63SAPC  C210 5046   5.844   3.010   7.429 -0.0457  0.1929 -0.5177
   63SAPC  H10R 5047   5.744   3.009   7.382 -0.5912 -0.7020  0.6337
   63SAPC  H10S 5048   5.857   3.110   7.477 -2.2803  0.9092 -1.2826
   63SAPC  C211 5049   5.856   2.898   7.527 -0.0193  0.2356  0.0925
   63SAPC  H11R 5050   5.865   2.797   7.483  1.0357 -0.0140  0.8664
   63SAPC  C212 5051   5.883   2.907   7.658 -0.5091  0.1487  0.2284
   63SAPC  H12R 5052   5.870   2.815   7.717  3.2444 -1.1576 -0.6613
   63SAPC  C213 5053   5.911   3.036   7.732 -0.5241  0.1404  0.0828
   63SAPC  H13R 5054   5.837   3.115   7.708 -0.2104  0.3551 -0.1907
   63SAPC  H13S 5055   6.005   3.068   7.682 -0.9724  1.2465 -0.0586
   63SAPC  C214 5056   5.949   3.021   7.876  0.7906  0.1435 -0.3593
   63SAPC  H14R 5057   5.939   2.920   7.919 -3.5497  0.1406 -0.8687
   63SAPC  C215 5058   5.983   3.119   7.959  1.1275 -0.2341 -0.5829
   63SAPC  H15R 5059   5.979   3.088   8.065 -2.2846 -0.4190 -0.6570
   63SAPC  C216 5060   5.993   3.260   7.923  0.0387 -0.2787  0.5895
   63SAPC  H16R 5061   5.988   3.261   7.812  0.8726  1.1734  0.5402
   63SAPC  H16S 5062   6.090   3.307   7.950  1.1043 -3.4873  2.9467
   63SAPC  C217 5063   5.897   3.349   7.993  0.3288  0.1937 -0.6773
   63SAPC  H17R 5064   5.794   3.310   7.975  0.2074  0.6931 -1.1045
   63SAPC  H17S 5065   5.908   3.452   7.955 -0.5452  0.2463 -0.8194
   63SAPC  C218 5066   5.911   3.351   8.148 -0.3667  0.2006  0.2406
   63SAPC  H18R 5067   6.019   3.366   8.171 -0.1847 -1.6080  0.7385
   63SAPC  H18S 5068   5.894   3.247   8.184 -0.0448 -0.1613 -0.6271
   63SAPC  C219 5069   5.818   3.444   8.220  0.8411  0.0139  0.7156
   63SAPC  H19R 5070   5.804   3.404   8.323  0.7150 -2.3636 -0.1795
   63SAPC  H19S 5071   5.718   3.443   8.172  1.6387  0.3238 -1.0358
   63SAPC  C220 5072   5.871   3.584   8.225 -0.2729  0.6537  0.1438
   63SAPC  H20R 5073   5.981   3.579   8.242  0.1901 -2.6028 -2.7615
   63SAPC  H20S 5074   5.801   3.627   8.300 -0.8179 -0.4129  0.2577
   63SAPC  H20T 5075   5.864   3.643   8.131  2.5563  1.2313  0.2088
   63SAPC   C33 5076   5.502   3.025   6.878  0.1846  0.1231  0.1956
   63SAPC   H3X 5077   5.551   2.927   6.900  1.5392  1.1889  2.2454
   63SAPC   H3Y 5078   5.439   3.009   6.788  1.1167  2.3397 -0.9087
   63SAPC   C34 5079   5.412   3.079   6.987  0.0456  0.0443 -0.4619
   63SAPC   H4X 5080   5.326   3.009   6.993  0.8170 -0.8270  0.8325
   63SAPC   H4Y 5081   5.366   3.165   6.933  1.3998  1.6068  0.7690
   63SAPC   C35 5082   5.466   3.126   7.118 -0.2295  0.6257 -0.1230
   63SAPC   H5X 5083   5.540   3.208   7.112 -0.4918  0.7645 -1.8262
   63SAPC   H5Y 5084   5.500   3.033   7.169  2.8598  1.9869  0.5485
   63SAPC   C36 5085   5.345   3.184   7.205 -0.0658 -0.1390 -0.2380
   63SAPC   H6X 5086   5.266   3.105   7.203 -0.1279 -0.0647 -0.7639
   63SAPC   H6Y 5087   5.293   3.267   7.153 -1.7425 -0.0842  1.3981
   63SAPC   C37 5088   5.388   3.234   7.346  0.8665 -0.5285 -0.4556
   63SAPC   H7X 5089   5.311   3.290   7.405 -0.3323 -1.0730 -1.4587
   63SAPC   H7Y 5090   5.474   3.301   7.326  0.3112  0.0498 -0.9583
   63SAPC   C38 5091   5.429   3.116   7.438  0.7998  0.1697  0.0274
   63SAPC   H8X 5092   5.487   3.042   7.377  1.1873 -0.2302  0.8560
   63SAPC   H8Y 5093   5.333   3.064   7.457  0.0712  1.5483  0.1577
   63SAPC   C39 5094   5.507   3.146   7.560 -0.0888 -0.3015 -0.0199
   63SAPC   H9X 5095   5.589   3.216   7.535  1.2954 -1.4339  1.2137
   63SAPC   H9Y 5096   5.561   3.055   7.593  2.9144  1.0617 -0.8675
   63SAPC  C310 5097   5.430   3.215   7.682 -0.4364  0.0156 -0.5614
   63SAPC  H10X 5098   5.423   3.324   7.662 -2.3083 -0.3269 -2.0193
   63SAPC  H10Y 5099   5.505   3.193   7.761 -0.0571  2.4442 -0.1826
   63SAPC  C311 5100   5.290   3.172   7.710  0.4896  0.1080  0.0804
   63SAPC  H11X 5101   5.274   3.062   7.719 -0.4919  0.0884 -1.4373
   63SAPC  H11Y 5102   5.226   3.200   7.623 -0.3636 -0.4637  0.5117
   63SAPC  C312 5103   5.239   3.240   7.840  0.2319  0.1087 -0.1566
   63SAPC  H12X 5104   5.181   3.334   7.822  1.7028  0.9558 -0.6520
   63SAPC  H12Y 5105   5.327   3.272   7.899 -1.6333  1.2304  2.2158
   63SAPC  C313 5106   5.163   3.138   7.927  0.3758 -0.5421  0.0375
   63SAPC  H13X 5107   5.236   3.063   7.962 -0.9376 -1.3947  1.0442
   63SAPC  H13Y 5108   5.081   3.082   7.878 -1.0083 -0.0904  1.7554
   63SAPC  C314 5109   5.088   3.201   8.051 -0.2080  0.1091  0.9237
   63SAPC  H14X 5110   5.036   3.119   8.104  0.0425  1.0652  2.7167
   63SAPC  H14Y 5111   5.016   3.282   8.025  0.6567  0.5054 -0.3165
   63SAPC  C315 5112   5.186   3.257   8.155  0.2422  0.2272  0.4226
   63SAPC  H15X 5113   5.122   3.329   8.211 -0.6747  0.4718 -0.8967
   63SAPC  H15Y 5114   5.256   3.326   8.105 -0.6528  0.6990 -0.2093
   63SAPC  C316 5115   5.259   3.157   8.248 -0.3761  0.7284 -0.0043
   63SAPC  H16X 5116   5.304   3.079   8.183  0.4630  0.0905  1.2733
   63SAPC  H16Y 5117   5.189   3.098   8.311 -1.2437  2.2872  0.5351
   63SAPC  C317 5118   5.371   3.213   8.332 -0.0540 -0.3548 -0.1371
   63SAPC  H17X 5119   5.416   3.124   8.381  1.7724 -0.9543 -2.6758
   63SAPC  H17Y 5120   5.318   3.279   8.403 -3.2926 -2.4480 -0.3814
   63SAPC  C318 5121   5.482   3.283   8.254  0.3670  0.0091 -0.0530
   63SAPC  H18X 5122   5.540   3.211   8.193 -0.5505 -1.9192  1.2349
   63SAPC  H18Y 5123   5.548   3.324   8.334 -0.9143  1.7989  0.1453
   63SAPC  H18Z 5124   5.448   3.372   8.197 -0.3967 -0.3147 -0.1053
   64SAPC     N 5125   0.194   2.891   5.818 -0.7223  0.1454  0.2774
   64SAPC   C12 5126   0.192   2.878   5.971 -0.2630  0.3731 -0.5882
   64SAPC  H12A 5127   0.178   2.978   6.009  2.9253  0.7194 -0.0520
   64SAPC  H12B 5128   0.294   2.854   5.996 -0.8479 -1.5956  0.0632
   64SAPC   C13 5129   0.209   2.760   5.747  0.0434 -0.0317 -0.3190
   64SAPC  H13A 5130   0.116   2.705   5.745 -0.0196  0.0330 -3.1183
   64SAPC  H13B 5131   0.224   2.789   5.644  1.4480 -2.5533 -0.8891
   64SAPC  H13C 5132   0.293   2.699   5.775  1.3676  1.3185 -1.1872
   64SAPC   C14 5133   0.070   2.956   5.768 -0.6754  0.9224  0.0786
   64SAPC  H14A 5134   0.054   3.046   5.825 -0.0217  0.2268  1.4026
   64SAPC  H14B 5135   0.066   2.979   5.662 -2.9836  1.4017  0.2268
   64SAPC  H14C 5136  -0.017   2.896   5.791  0.5870 -1.4125 -0.9083
   64SAPC   C15 5137   0.317   2.968   5.777 -0.2477 -0.2033  0.4858
   64SAPC  H15A 5138   0.318   2.991   5.671  0.8183 -0.4393  0.4359
   64SAPC  H15B 5139   0.350   3.050   5.839  3.1836 -1.3362  0.3657
   64SAPC  H15C 5140   0.401   2.903   5.794  1.7411  0.9887 -3.4546
   64SAPC   C11 5141   0.100   2.770   6.049  0.5333  0.7776  0.0429
   64SAPC  H11A 5142   0.133   2.755   6.154  3.2408 -3.2591 -1.1788
   64SAPC  H11B 5143   0.135   2.675   6.004  1.4253 -0.1122  2.4627
   64SAPC     P 5144  -0.104   2.929   6.081  0.5377  0.0427 -0.1580
   64SAPC   O13 5145  -0.165   2.982   5.953  0.8522  0.4698 -0.5104
   64SAPC   O14 5146  -0.190   2.887   6.193  0.3199  0.1454 -0.1564
   64SAPC   O12 5147  -0.035   2.790   6.039 -0.0374 -0.3015  0.2096
   64SAPC   O11 5148   0.008   3.029   6.135 -0.1573 -0.6303 -0.2835
   64SAPC    C1 5149  -0.025   3.117   6.241  0.6102  0.2813 -0.2255
   64SAPC    HA 5150   0.026   3.215   6.234  1.1606 -0.0353 -0.6384
   64SAPC    HB 5151  -0.132   3.144   6.256  0.7467  0.7985 -0.1509
   64SAPC    C2 5152   0.023   3.060   6.376 -0.0100  0.1989 -0.0252
   64SAPC    HS 5153  -0.033   2.965   6.390  1.6009 -0.3300  4.4561
   64SAPC   O21 5154  -0.003   3.159   6.482  0.3767  0.4433 -0.3660
   64SAPC   C21 5155  -0.040   3.102   6.598  0.0774  0.6663 -0.6616
   64SAPC   O22 5156  -0.089   2.994   6.617 -0.2996  0.7844  0.1867
   64SAPC   C22 5157  -0.018   3.198   6.712 -0.5783  0.4323  0.5098
   64SAPC   H2R 5158   0.090   3.222   6.727 -0.9635  1.3483  2.0899
   64SAPC   H2S 5159  -0.068   3.295   6.691 -0.0414  0.2195 -2.0014
   64SAPC    C3 5160   0.174   3.037   6.380  0.0713  0.4892 -0.5540
   64SAPC    HX 5161   0.223   3.135   6.359  2.1246 -0.4235 -0.2378
   64SAPC    HY 5162   0.188   2.964   6.297 -2.5324  0.3943 -1.0147
   64SAPC   O31 5163   0.224   2.994   6.510 -0.3329 -0.1289  0.1047
   64SAPC   C31 5164   0.223   2.860   6.526 -0.6168 -0.1171  0.1746
   64SAPC   O32 5165   0.173   2.784   6.441 -0.0355 -0.8998 -0.2998
   64SAPC   C32 5166   0.293   2.802   6.654 -0.2283  0.0489 -0.1762
   64SAPC   H2X 5167   0.399   2.837   6.651 -0.0157 -0.1766  2.5190
   64SAPC   H2Y 5168   0.284   2.691   6.654  0.7491 -0.0443  0.8964
   64SAPC   C23 5169  -0.050   3.134   6.851  0.2480  0.7164  0.4918
   64SAPC   H3R 5170  -0.017   3.029   6.860 -1.0568 -0.0892 -2.8184
   64SAPC   H3S 5171  -0.161   3.142   6.855  0.2608  1.3139 -0.2293
   64SAPC   C24 5172   0.003   3.223   6.972  0.2314 -0.5267  0.9276
   64SAPC   H4R 5173   0.113   3.226   6.962  0.1625  1.0030  0.4377
   64SAPC   H4S 5174  -0.022   3.162   7.061 -2.7132 -1.3457 -0.3214
   64SAPC   C25 5175  -0.036   3.365   6.989  1.8820 -0.3521 -0.3434
   64SAPC   H5R 5176  -0.088   3.421   6.911  3.3465  0.6579 -0.6418
   64SAPC   C26 5177  -0.028   3.434   7.104  0.5170  0.2169 -0.5123
   64SAPC   H6R 5178  -0.056   3.540   7.109  0.6689  0.2009  1.8373
   64SAPC   C27 5179   0.025   3.375   7.231  0.5168 -0.2859  0.4867
   64SAPC   H7R 5180   0.109   3.444   7.257  0.7249 -1.0897  2.1457
   64SAPC   H7S 5181   0.066   3.273   7.212  1.1688  0.0718 -0.0982
   64SAPC   C28 5182  -0.076   3.355   7.337  0.5366  0.3521  0.4740
   64SAPC   H8R 5183  -0.182   3.355   7.305  0.9248 -0.4677 -0.9065
   64SAPC   C29 5184  -0.043   3.380   7.467  0.4718 -0.1865 -0.2987
   64SAPC   H9R 5185  -0.116   3.369   7.548 -0.9900  0.5649 -1.4510
   64SAPC  C210 5186   0.094   3.407   7.516 -0.2314  0.2429  0.2458
   64SAPC  H10R 5187   0.112   3.513   7.489 -2.0937  0.1789 -1.4647
   64SAPC  H10S 5188   0.164   3.345   7.456 -1.5682 -0.9840 -0.1076
   64SAPC  C211 5189   0.111   3.398   7.663  0.4548  0.1436 -0.2749
   64SAPC  H11R 5190   0.051   3.321   7.713 -0.4479  1.8459  1.3981
   64SAPC  C212 5191   0.165   3.491   7.745 -0.2741 -0.2020 -0.9096
   64SAPC  H12R 5192   0.163   3.467   7.852 -0.7384  0.3845 -0.7808
   64SAPC  C213 5193   0.236   3.620   7.717 -1.0296 -0.3698 -0.1995
   64SAPC  H13R 5194   0.258   3.636   7.609 -2.4586  2.3207 -0.1755
   64SAPC  H13S 5195   0.334   3.604   7.767 -1.5949  1.8325  1.7998
   64SAPC  C214 5196   0.198   3.753   7.768  0.7504  0.4879  0.6935
   64SAPC  H14R 5197   0.165   3.811   7.681  0.8452 -0.6689 -0.1311
   64SAPC  C215 5198   0.186   3.798   7.893 -0.3253  0.1202  0.0674
   64SAPC  H15R 5199   0.158   3.903   7.908 -1.8832 -0.3991  1.0798
   64SAPC  C216 5200   0.228   3.714   8.016 -0.6032  0.1577 -0.0082
   64SAPC  H16R 5201   0.326   3.743   8.059  0.2101  1.2719 -2.4342
   64SAPC  H16S 5202   0.244   3.606   7.993 -2.0412  0.1230 -0.9951
   64SAPC  C217 5203   0.118   3.713   8.123 -0.7537 -0.0018 -0.5854
   64SAPC  H17R 5204   0.026   3.660   8.093 -0.7291  0.8693 -2.2921
   64SAPC  H17S 5205   0.083   3.813   8.155 -1.2035  0.1849 -1.6277
   64SAPC  C218 5206   0.176   3.648   8.254  0.8223 -0.1237 -0.4161
   64SAPC  H18R 5207   0.256   3.711   8.298  0.2105  0.8061 -0.6144
   64SAPC  H18S 5208   0.224   3.550   8.230  0.6356  0.6016 -4.3676
   64SAPC  C219 5209   0.070   3.635   8.369 -0.6467  0.1167 -0.0043
   64SAPC  H19R 5210  -0.004   3.555   8.350 -0.4030 -0.4370  1.3389
   64SAPC  H19S 5211   0.018   3.734   8.373 -0.5267  0.2146 -0.7075
   64SAPC  C220 5212   0.132   3.602   8.501  0.7035 -0.9119  0.0758
   64SAPC  H20R 5213   0.180   3.502   8.491 -0.6635 -1.3330 -3.9359
   64SAPC  H20S 5214   0.065   3.595   8.589 -0.3649  0.9352 -0.5392
   64SAPC  H20T 5215   0.213   3.673   8.529 -0.5774  0.5242  0.2268
   64SAPC   C33 5216   0.218   2.852   6.777  0.0492  0.6901 -0.0263
   64SAPC   H3X 5217   0.108   2.839   6.766  0.3231 -1.1871 -0.8373
   64SAPC   H3Y 5218   0.245   2.959   6.787  0.9935  0.3221  1.8081
   64SAPC   C34 5219   0.256   2.780   6.908 -0.1669 -0.5941 -0.6536
   64SAPC   H4X 5220   0.365   2.758   6.909  0.0793  0.5782 -0.0095
   64SAPC   H4Y 5221   0.221   2.675   6.923  2.0169 -1.5713 -1.9101
   64SAPC   C35 5222   0.224   2.868   7.025 -0.0333 -0.4187  0.2958
   64SAPC   H5X 5223   0.114   2.868   7.035 -0.0380 -0.5616  0.2478
   64SAPC   H5Y 5224   0.244   2.972   6.991 -0.1259 -0.6987 -0.6455
   64SAPC   C36 5225   0.288   2.835   7.159  0.4802 -0.1166  0.6158
   64SAPC   H6X 5226   0.398   2.849   7.150  0.4343 -0.5841 -0.8599
   64SAPC   H6Y 5227   0.266   2.727   7.170 -0.1033 -0.3359 -2.0302
   64SAPC   C37 5228   0.214   2.910   7.269 -0.2768 -1.1241 -0.5792
   64SAPC   H7X 5229   0.106   2.884   7.266 -0.8922  1.2655 -2.5851
   64SAPC   H7Y 5230   0.225   3.020   7.254  1.2346 -1.1538  0.1059
   64SAPC   C38 5231   0.259   2.874   7.412 -0.0770  0.6737 -0.4995
   64SAPC   H8X 5232   0.363   2.903   7.437  1.4242 -3.0649 -1.7604
   64SAPC   H8Y 5233   0.264   2.763   7.415  1.2675  0.7165 -0.6740
   64SAPC   C39 5234   0.171   2.931   7.521 -0.3039  0.4870 -0.0437
   64SAPC   H9X 5235   0.073   2.881   7.505 -1.7368  3.1866 -0.2690
   64SAPC   H9Y 5236   0.161   3.040   7.504 -0.9705  0.4846  0.3080
   64SAPC  C310 5237   0.229   2.906   7.664 -0.2126 -0.2162  0.0117
   64SAPC  H10X 5238   0.327   2.957   7.670 -0.9035  1.3792 -1.4095
   64SAPC  H10Y 5239   0.248   2.797   7.674 -1.7851 -0.3650  1.9322
   64SAPC  C311 5240   0.134   2.962   7.772 -0.0486 -0.3617 -0.0119
   64SAPC  H11X 5241   0.035   2.921   7.745  0.2955 -0.7721 -0.6878
   64SAPC  H11Y 5242   0.130   3.072   7.759 -1.3496 -0.5634 -1.5748
   64SAPC  C312 5243   0.170   2.911   7.913 -0.3933 -0.4260 -0.1150
   64SAPC  H12X 5244   0.195   2.803   7.913 -1.5054 -0.7096  0.8533
   64SAPC  H12Y 5245   0.084   2.928   7.981 -0.7006 -1.1629 -0.3162
   64SAPC  C313 5246   0.286   2.990   7.986 -0.0729 -0.6301  0.1043
   64SAPC  H13X 5247   0.370   3.008   7.916  0.0889 -0.5444  0.3159
   64SAPC  H13Y 5248   0.312   2.944   8.084 -1.6335  1.3148  1.5165
   64SAPC  C314 5249   0.231   3.126   8.034 -0.3837 -0.0145  0.1078
   64SAPC  H14X 5250   0.151   3.104   8.108  0.8947 -0.1468  1.4915
   64SAPC  H14Y 5251   0.191   3.177   7.944 -1.3072  0.7608  0.9388
   64SAPC  C315 5252   0.336   3.210   8.098  0.0296  0.1748  0.0640
   64SAPC  H15X 5253   0.325   3.315   8.064  1.9331 -0.1063 -1.5880
   64SAPC  H15Y 5254   0.430   3.171   8.054 -0.6686 -0.0366 -1.2938
   64SAPC  C316 5255   0.329   3.197   8.252  0.1122  0.2972 -0.4363
   64SAPC  H16X 5256   0.322   3.091   8.285  0.3104 -0.0095 -1.3672
   64SAPC  H16Y 5257   0.241   3.254   8.290  0.8930  0.0664  1.9144
   64SAPC  C317 5258   0.443   3.278   8.311  0.3753  0.6080  0.1622
   64SAPC  H17X 5259   0.422   3.386   8.294  1.1420  0.4513 -2.2098
   64SAPC  H17Y 5260   0.539   3.255   8.259  0.5551  2.0158 -0.1729
   64SAPC  C318 5261   0.444   3.249   8.459 -0.5162  0.4071 -0.1111
   64SAPC  H18X 5262   0.349   3.285   8.505 -1.5796 -0.0993 -1.8610
   64SAPC  H18Y 5263   0.524   3.309   8.509 -1.1508  0.0279  1.4314
   64SAPC  H18Z 5264   0.457   3.143   8.488  0.3394  0.2775 -0.9182
   65SAPC     N 5265   6.632   4.080   5.860  0.6639 -0.2222 -0.2505
   65SAPC   C12 5266   6.618   4.113   6.009  0.7317 -0.0030  0.1368
   65SAPC  H12A 5267   6.655   4.029   6.067  2.8821  1.6202  1.2628
   65SAPC  H12B 5268   6.512   4.110   6.031  0.2788 -1.6003 -1.9456
   65SAPC   C13 5269   6.541   3.959   5.824  0.9922  0.6236 -0.3217
   65SAPC  H13A 5270   6.560   3.930   5.722  1.2613 -2.0541  0.3898
   65SAPC  H13B 5271   6.571   3.868   5.874  1.0735 -0.7662 -2.7443
   65SAPC  H13C 5272   6.443   3.995   5.852  2.1984  2.6992  1.5792
   65SAPC   C14 5273   6.590   4.203   5.785 -0.1987  0.1075 -0.0793
   65SAPC  H14A 5274   6.641   4.290   5.824 -0.9179 -0.4947  2.4196
   65SAPC  H14B 5275   6.587   4.185   5.679  0.7916 -1.6024  0.1517
   65SAPC  H14C 5276   6.485   4.218   5.807 -0.4158 -0.1100 -0.9470
   65SAPC   C15 5277   6.776   4.038   5.832  0.5406  0.0170  0.0252
   65SAPC  H15A 5278   6.836   4.094   5.903  1.5943  0.5807 -1.2700
   65SAPC  H15B 5279   6.792   3.932   5.846  1.7216  0.1840  0.0418
   65SAPC  H15C 5280   6.816   4.060   5.734 -0.7744 -0.2139 -0.5916
   65SAPC   C11 5281   6.691   4.233   6.073  0.2424 -0.8399  0.0645
   65SAPC  H11A 5282   6.651   4.253   6.175  1.8620 -4.9459  1.6831
   65SAPC  H11B 5283   6.671   4.321   6.007  2.6713 -1.1391 -1.1599
   65SAPC     P 5284   6.887   4.135   6.200  0.4329  0.3543  0.1820
   65SAPC   O13 5285   6.827   4.001   6.191  0.0126 -0.4679 -0.2152
   65SAPC   O14 5286   7.035   4.153   6.201 -0.2822  0.1121  0.3480
   65SAPC   O12 5287   6.830   4.216   6.076  0.3422 -0.4036 -0.0502
   65SAPC   O11 5288   6.825   4.210   6.328 -0.2724 -0.4313  0.1410
   65SAPC    C1 5289   6.845   4.350   6.347 -0.8213 -0.1231  0.2409
   65SAPC    HA 5290   6.947   4.375   6.309 -1.4349  3.2511  0.4528
   65SAPC    HB 5291   6.785   4.419   6.285  0.0716  0.8152  0.3883
   65SAPC    C2 5292   6.837   4.390   6.496  0.0269  0.1298  0.1759
   65SAPC    HS 5293   6.863   4.498   6.503  0.5752 -0.0310  0.6697
   65SAPC   O21 5294   6.925   4.309   6.578 -0.7001  0.4013  0.6438
   65SAPC   C21 5295   7.055   4.345   6.582 -0.8200 -0.5401  0.2263
   65SAPC   O22 5296   7.105   4.439   6.521 -0.1793  0.4345 -0.1651
   65SAPC   C22 5297   7.133   4.239   6.663  0.8487 -0.8991 -0.1901
   65SAPC   H2R 5298   7.062   4.158   6.689  0.1955  0.4238  2.4718
   65SAPC   H2S 5299   7.216   4.199   6.601  0.5285 -1.0620 -0.5177
   65SAPC    C3 5300   6.692   4.363   6.542 -1.1498 -0.3627  0.4050
   65SAPC    HX 5301   6.662   4.258   6.519 -1.0268 -0.0154 -1.4759
   65SAPC    HY 5302   6.627   4.430   6.482 -0.1996  0.3003  0.0815
   65SAPC   O31 5303   6.666   4.408   6.680  0.3685 -0.0186  0.4447
   65SAPC   C31 5304   6.653   4.314   6.768 -0.4480  0.1460 -0.2384
   65SAPC   O32 5305   6.675   4.196   6.751  0.3634 -0.4499 -0.1221
   65SAPC   C32 5306   6.612   4.371   6.906  0.3912 -0.7439  0.5282
   65SAPC   H2X 5307   6.582   4.478   6.903 -0.4221 -0.9895 -1.0123
   65SAPC   H2Y 5308   6.704   4.365   6.968  0.6140  0.8284  0.4026
   65SAPC   C23 5309   7.177   4.293   6.804  0.0040 -0.0669 -0.7801
   65SAPC   H3R 5310   7.243   4.382   6.794 -1.9887  1.4927 -0.7975
   65SAPC   H3S 5311   7.228   4.204   6.845 -1.7739 -0.6131  0.3344
   65SAPC   C24 5312   7.067   4.348   6.884  0.2165 -0.7450 -0.3127
   65SAPC   H4R 5313   7.026   4.442   6.840  0.7132 -0.4802 -0.2135
   65SAPC   H4S 5314   7.107   4.385   6.981 -2.0066 -1.6373  1.0332
   65SAPC   C25 5315   6.955   4.256   6.902  0.2512 -0.4000  0.2998
   65SAPC   H5R 5316   6.886   4.249   6.817  1.6540 -1.1050 -0.8197
   65SAPC   C26 5317   6.946   4.161   6.998  0.2208 -0.5253 -0.4378
   65SAPC   H6R 5318   6.861   4.092   6.993  0.2647 -0.5019 -1.7786
   65SAPC   C27 5319   7.047   4.136   7.107  0.2619 -0.2023 -0.5625
   65SAPC   H7R 5320   7.145   4.164   7.063 -0.1666 -0.6977 -1.9205
   65SAPC   H7S 5321   7.057   4.027   7.128  0.8235  0.3335  2.2081
   65SAPC   C28 5322   7.005   4.221   7.224  0.1432  0.4316 -0.6663
   65SAPC   H8R 5323   7.025   4.328   7.210 -2.4921  1.0894  0.0684
   65SAPC   C29 5324   6.959   4.190   7.349 -0.1859  0.2490 -0.3566
   65SAPC   H9R 5325   6.934   4.268   7.423 -1.7672  1.4374 -2.0392
   65SAPC  C210 5326   6.935   4.054   7.407  0.1685  0.0467  0.0983
   65SAPC  H10R 5327   7.036   4.032   7.446  0.3359  0.5427 -0.0383
   65SAPC  H10S 5328   6.923   3.973   7.332  2.1456 -0.8452  0.7005
   65SAPC  C211 5329   6.828   4.051   7.509  0.1699 -0.4243 -0.1289
   65SAPC  H11R 5330   6.725   4.038   7.474  1.7301 -0.7939 -5.3852
   65SAPC  C212 5331   6.851   4.082   7.642 -0.0842  0.3230 -0.5545
   65SAPC  H12R 5332   6.768   4.067   7.713 -0.1603 -0.7157 -0.8490
   65SAPC  C213 5333   6.981   4.132   7.707 -0.4608 -0.3322  0.3665
   65SAPC  H13R 5334   7.070   4.105   7.647 -1.6844  1.0930 -2.2087
   65SAPC  H13S 5335   7.003   4.083   7.805  1.5827  3.9152  2.2816
   65SAPC  C214 5336   6.985   4.283   7.716 -0.0973 -0.3753 -0.1540
   65SAPC  H14R 5337   6.949   4.330   7.623 -0.7057 -1.3522 -0.4328
   65SAPC  C215 5338   7.026   4.357   7.826 -0.1427  0.0737 -0.1896
   65SAPC  H15R 5339   7.039   4.465   7.813  0.2260 -0.0398 -0.7875
   65SAPC  C216 5340   7.050   4.296   7.966 -0.0225 -0.4587 -0.0679
   65SAPC  H16R 5341   7.121   4.359   8.024  0.3885 -0.3321 -0.7094
   65SAPC  H16S 5342   7.098   4.196   7.962  0.4440 -0.2264 -0.3224
   65SAPC  C217 5343   6.915   4.268   8.055  0.4138 -0.2416 -0.0624
   65SAPC  H17R 5344   6.867   4.171   8.027  1.6617 -0.4204 -1.7568
   65SAPC  H17S 5345   6.849   4.357   8.042  0.8011 -0.0704 -0.9583
   65SAPC  C218 5346   6.942   4.266   8.207  0.4494 -0.3744  0.1340
   65SAPC  H18R 5347   6.851   4.244   8.267  2.6898 -1.1909  3.5308
   65SAPC  H18S 5348   6.964   4.366   8.251 -1.2868  1.4454 -2.8464
   65SAPC  C219 5349   7.052   4.169   8.255 -0.5849 -0.0391  0.0918
   65SAPC  H19R 5350   7.065   4.168   8.365 -1.1597  2.5146  0.2395
   65SAPC  H19S 5351   7.150   4.212   8.225 -1.2536  1.1589 -0.4185
   65SAPC  C220 5352   7.045   4.031   8.204 -0.3566 -0.5152 -0.3764
   65SAPC  H20R 5353   6.943   3.997   8.231 -0.5512 -0.6178 -1.2064
   65SAPC  H20S 5354   7.113   3.962   8.258 -0.2184 -0.2784 -0.2417
   65SAPC  H20T 5355   7.074   4.039   8.097  1.1004  2.9822  0.1299
   65SAPC   C33 5356   6.493   4.294   6.972  0.2286  0.4893 -0.3442
   65SAPC   H3X 5357   6.507   4.184   6.961 -0.1133  0.5109 -1.0542
   65SAPC   H3Y 5358   6.398   4.316   6.919  0.1871 -0.3808 -0.6534
   65SAPC   C34 5359   6.488   4.313   7.123  0.1615  0.2277 -0.6101
   65SAPC   H4X 5360   6.510   4.418   7.150  1.8854  0.2882 -2.0979
   65SAPC   H4Y 5361   6.575   4.258   7.164 -0.2310  0.1436  0.1342
   65SAPC   C35 5362   6.348   4.262   7.162 -0.1514 -0.7108 -0.3389
   65SAPC   H5X 5363   6.326   4.162   7.119 -1.7683 -0.5475  0.0491
   65SAPC   H5Y 5364   6.272   4.334   7.125  1.1986  0.3636 -1.1000
   65SAPC   C36 5365   6.337   4.251   7.312  0.6068  0.2691  0.2633
   65SAPC   H6X 5366   6.356   4.356   7.342 -0.1644  0.8938 -1.3017
   65SAPC   H6Y 5367   6.413   4.179   7.348  0.1438 -0.2903  0.1425
   65SAPC   C37 5368   6.196   4.212   7.348  0.1295 -0.1833  0.3512
   65SAPC   H7X 5369   6.166   4.124   7.288  0.1809 -0.0977  0.2004
   65SAPC   H7Y 5370   6.131   4.299   7.324 -1.1966 -0.7939  1.5645
   65SAPC   C38 5371   6.173   4.180   7.494 -0.7432  0.4451  0.4665
   65SAPC   H8X 5372   6.228   4.087   7.517  1.8473  2.4116  2.8751
   65SAPC   H8Y 5373   6.065   4.155   7.499 -0.5750 -0.2922  0.4483
   65SAPC   C39 5374   6.206   4.298   7.581 -0.2821  0.2829 -0.2299
   65SAPC   H9X 5375   6.158   4.389   7.540  0.6465  1.5996  1.4718
   65SAPC   H9Y 5376   6.315   4.318   7.574 -0.3128 -0.0629 -2.3442
   65SAPC  C310 5377   6.142   4.280   7.715  0.1655  0.2192  0.8747
   65SAPC  H10X 5378   6.168   4.191   7.775  2.7835  0.9037  0.8838
   65SAPC  H10Y 5379   6.037   4.272   7.680  0.2209  0.5694  0.6230
   65SAPC  C311 5380   6.151   4.397   7.808 -0.4732 -0.1094  0.2489
   65SAPC  H11X 5381   6.087   4.478   7.768 -1.0965 -0.2396  0.9396
   65SAPC  H11Y 5382   6.254   4.438   7.800 -0.6277  0.7343  1.9771
   65SAPC  C312 5383   6.109   4.375   7.955  0.0780 -0.2646 -0.8588
   65SAPC  H12X 5384   6.186   4.309   7.999 -0.0927 -0.1198 -0.3393
   65SAPC  H12Y 5385   6.008   4.329   7.958 -0.0180 -0.0283  1.2240
   65SAPC  C313 5386   6.100   4.507   8.020 -0.1916 -0.0992 -0.5708
   65SAPC  H13X 5387   6.011   4.567   7.991 -1.4415 -1.0007  1.2421
   65SAPC  H13Y 5388   6.194   4.560   7.992  0.3939 -0.9726 -0.3088
   65SAPC  C314 5389   6.092   4.495   8.172  0.1646 -0.4086 -0.2221
   65SAPC  H14X 5390   6.108   4.587   8.233  0.6118 -1.0933  0.7235
   65SAPC  H14Y 5391   6.171   4.422   8.200 -0.4446 -0.1864  2.2662
   65SAPC  C315 5392   5.956   4.427   8.222  0.3012 -0.1712  0.4884
   65SAPC  H15X 5393   5.958   4.322   8.187  2.5222  0.2159 -0.7281
   65SAPC  H15Y 5394   5.871   4.479   8.173  1.4200  0.2131 -1.1405
   65SAPC  C316 5395   5.947   4.439   8.373  0.4351  0.5516 -0.0984
   65SAPC  H16X 5396   5.841   4.414   8.394  1.3263 -3.1563  0.5497
   65SAPC  H16Y 5397   5.963   4.542   8.411 -2.3073  1.6603 -1.6156
   65SAPC  C317 5398   6.021   4.342   8.461 -0.0612 -0.1420 -0.4490
   65SAPC  H17X 5399   5.971   4.348   8.559 -1.9821 -0.7554 -1.3415
   65SAPC  H17Y 5400   6.126   4.377   8.473 -0.3572  0.2662  1.2082
   65SAPC  C318 5401   6.026   4.198   8.404  1.0435 -0.3355  0.1049
   65SAPC  H18X 5402   6.087   4.136   8.472 -0.1546 -0.7865  0.7994
   65SAPC  H18Y 5403   6.090   4.214   8.314  0.8622 -3.2370 -0.6415
   65SAPC  H18Z 5404   5.925   4.166   8.370  1.9331 -0.8546 -2.2894
   66SAPC     N 5405   4.117   5.168   6.094  0.7304 -0.3100  0.1229
   66SAPC   C12 5406   4.243   5.115   6.154  0.3040 -0.2258  0.0817
   66SAPC  H12A 5407   4.295   5.063   6.075  1.0607 -0.2229  0.5789
   66SAPC  H12B 5408   4.208   5.041   6.225 -0.9487  0.4103  0.1568
   66SAPC   C13 5409   4.019   5.063   6.062  0.2478  0.2924 -0.1030
   66SAPC  H13A 5410   4.060   4.986   5.998  1.1268  0.1298  0.6467
   66SAPC  H13B 5411   3.999   5.017   6.157 -0.6350  2.5752  0.8987
   66SAPC  H13C 5412   3.926   5.099   6.020  0.5937 -1.2411 -2.3384
   66SAPC   C14 5413   4.057   5.259   6.193  0.3074 -0.3421  1.1077
   66SAPC  H14A 5414   3.990   5.327   6.143  1.2877  0.6692  1.1415
   66SAPC  H14B 5415   4.000   5.209   6.270  0.2484 -0.1660  1.1773
   66SAPC  H14C 5416   4.133   5.319   6.239 -0.2099  2.7257 -1.6522
   66SAPC   C15 5417   4.143   5.245   5.971 -0.3780 -1.2316  0.1031
   66SAPC  H15A 5418   4.177   5.183   5.889  0.7712  0.1122 -0.4789
   66SAPC  H15B 5419   4.046   5.289   5.954 -0.1547 -0.3788  0.9753
   66SAPC  H15C 5420   4.215   5.321   5.998 -0.0502 -0.4036 -2.7367
   66SAPC   C11 5421   4.353   5.203   6.214 -0.2130 -0.9177  0.0405
   66SAPC  H11A 5422   4.429   5.145   6.271 -0.3655 -0.6885  0.4791
   66SAPC  H11B 5423   4.308   5.273   6.288  4.0978  4.5808 -1.8272
   66SAPC     P 5424   4.530   5.223   6.022  0.5120 -0.2281  0.2302
   66SAPC   O13 5425   4.479   5.109   5.946  1.0006  0.0878  0.5257
   66SAPC   O14 5426   4.606   5.322   5.940  0.1728 -0.3139  0.3813
   66SAPC   O12 5427   4.412   5.285   6.113 -0.5529 -0.6454 -0.2475
   66SAPC   O11 5428   4.629   5.164   6.132  0.1301  0.1141  0.2259
   66SAPC    C1 5429   4.698   5.042   6.117 -0.3576 -0.6721 -0.3407
   66SAPC    HA 5430   4.630   4.959   6.089  0.7224 -1.7151 -0.0144
   66SAPC    HB 5431   4.768   5.050   6.031 -0.7891  2.6669 -0.5058
   66SAPC    C2 5432   4.795   4.995   6.237  0.5738  0.1897  0.4058
   66SAPC    HS 5433   4.792   4.885   6.245 -1.2769 -0.1007 -2.8276
   66SAPC   O21 5434   4.744   5.046   6.363  0.0065 -0.8483 -0.1718
   66SAPC   C21 5435   4.620   4.996   6.400 -0.5022  0.0582  0.2432
   66SAPC   O22 5436   4.576   4.899   6.342 -0.1062  0.1146 -0.2593
   66SAPC   C22 5437   4.579   5.053   6.530  0.7231  0.1517  0.2454
   66SAPC   H2R 5438   4.531   5.149   6.500  2.1757  0.1616 -2.4259
   66SAPC   H2S 5439   4.505   4.978   6.565  0.1598  0.6783  0.1831
   66SAPC    C3 5440   4.936   5.050   6.243  0.3163 -0.1462  0.8826
   66SAPC    HX 5441   4.926   5.161   6.246 -0.3070 -0.1915  0.6357
   66SAPC    HY 5442   4.989   5.032   6.146  1.9507  0.4734  1.6184
   66SAPC   O31 5443   5.007   4.980   6.343  0.2583 -0.0095 -0.0086
   66SAPC   C31 5444   5.057   5.043   6.447  0.1489  0.1006  0.8088
   66SAPC   O32 5445   5.061   5.161   6.465 -0.1234  0.0569 -0.0069
   66SAPC   C32 5446   5.122   4.951   6.552 -0.0785  0.3283 -0.3767
   66SAPC   H2X 5447   5.154   4.858   6.500  1.3717  1.1425 -0.9954
   66SAPC   H2Y 5448   5.032   4.930   6.614 -1.6516  1.0072 -2.3283
   66SAPC   C23 5449   4.688   5.066   6.636  0.0464 -0.5286 -0.3453
   66SAPC   H3R 5450   4.764   5.134   6.590 -2.3957  1.9734 -0.9559
   66SAPC   H3S 5451   4.727   4.964   6.656  0.4330 -0.4129 -0.4960
   66SAPC   C24 5452   4.648   5.137   6.765 -0.1210 -0.1394 -0.2394
   66SAPC   H4R 5453   4.554   5.093   6.803 -0.5169  0.0114 -1.0169
   66SAPC   H4S 5454   4.613   5.239   6.738 -0.9791 -0.6211 -0.9856
   66SAPC   C25 5455   4.754   5.131   6.868 -0.5141  0.1713 -0.4355
   66SAPC   H5R 5456   4.856   5.118   6.829 -0.4020  2.8025 -1.2317
   66SAPC   C26 5457   4.732   5.128   7.000 -0.3992 -0.2146  0.4810
   66SAPC   H6R 5458   4.823   5.120   7.061 -0.0450 -0.2883 -0.0593
   66SAPC   C27 5459   4.599   5.136   7.074 -0.3561  0.3317  0.6681
   66SAPC   H7R 5460   4.514   5.157   7.006 -2.0075 -0.5564  2.3769
   66SAPC   H7S 5461   4.600   5.220   7.147 -0.2087  1.1128 -0.2087
   66SAPC   C28 5462   4.554   5.014   7.144 -0.0725 -0.6846 -0.1169
   66SAPC   H8R 5463   4.589   4.920   7.100  2.1248 -0.7108  1.5071
   66SAPC   C29 5464   4.482   5.013   7.263 -0.1084  0.0219  0.6022
   66SAPC   H9R 5465   4.450   4.913   7.295  0.7411 -0.3206  0.4162
   66SAPC  C210 5466   4.428   5.124   7.352 -0.2752 -0.3773  0.9527
   66SAPC  H10R 5467   4.342   5.172   7.300  1.6833  2.4274  0.0685
   66SAPC  H10S 5468   4.506   5.202   7.367  0.7403 -1.5270  1.9575
   66SAPC  C211 5469   4.375   5.088   7.491  1.0256 -0.2256  0.0551
   66SAPC  H11R 5470   4.446   5.027   7.548  0.0657 -0.8257  0.6434
   66SAPC  C212 5471   4.254   5.115   7.552  0.1164  0.3379 -0.4422
   66SAPC  H12R 5472   4.230   5.088   7.656  0.3938  0.8125 -0.2544
   66SAPC  C213 5473   4.137   5.192   7.496 -0.3244 -0.4860 -0.1855
   66SAPC  H13R 5474   4.149   5.178   7.386 -0.0015  1.1430 -0.3830
   66SAPC  H13S 5475   4.151   5.300   7.519  1.2096 -0.7084 -0.0060
   66SAPC  C214 5476   4.000   5.144   7.541 -0.1272  0.1122 -0.5594
   66SAPC  H14R 5477   3.990   5.152   7.650  0.9419 -0.3847 -0.4220
   66SAPC  C215 5478   3.901   5.074   7.483 -0.2391  0.3577 -0.5043
   66SAPC  H15R 5479   3.820   5.051   7.554  1.5830 -1.1577  1.1877
   66SAPC  C216 5480   3.892   5.024   7.342  0.1861  0.3601  0.7679
   66SAPC  H16R 5481   3.924   4.918   7.346 -0.3332  0.2144  4.2666
   66SAPC  H16S 5482   3.966   5.081   7.281 -1.0588 -0.2947 -1.4720
   66SAPC  C217 5483   3.754   5.047   7.275  0.1658  0.1067 -0.2169
   66SAPC  H17R 5484   3.738   5.153   7.243 -0.3346  0.2095  0.3457
   66SAPC  H17S 5485   3.671   5.015   7.342  1.0592 -2.0574 -0.0859
   66SAPC  C218 5486   3.727   4.945   7.159 -0.4842 -1.0643 -0.8138
   66SAPC  H18R 5487   3.617   4.945   7.143 -0.6845 -1.0594  0.4324
   66SAPC  H18S 5488   3.764   4.844   7.186 -1.3946 -1.2797 -0.3487
   66SAPC  C219 5489   3.797   4.968   7.027  0.4276  0.1532 -0.3247
   66SAPC  H19R 5490   3.906   4.966   7.050  0.4066  0.2032 -0.2198
   66SAPC  H19S 5491   3.778   5.067   6.981  1.1494 -0.1384 -1.2605
   66SAPC  C220 5492   3.762   4.858   6.927 -1.0553 -0.5273 -0.5939
   66SAPC  H20R 5493   3.802   4.903   6.833 -0.8952 -1.9872 -1.2543
   66SAPC  H20S 5494   3.652   4.845   6.914 -1.2879  0.2987  0.4520
   66SAPC  H20T 5495   3.823   4.770   6.958 -0.1296  0.7944  1.5270
   66SAPC   C33 5496   5.238   5.012   6.638 -0.5287  0.2188  0.1156
   66SAPC   H3X 5497   5.196   5.096   6.698 -2.4702 -0.2389 -0.5350
   66SAPC   H3Y 5498   5.309   5.060   6.567  0.2419  1.0923  1.4440
   66SAPC   C34 5499   5.327   4.911   6.711  0.3507 -0.4180 -0.2315
   66SAPC   H4X 5500   5.421   4.967   6.725 -0.4432  1.1256 -0.8773
   66SAPC   H4Y 5501   5.355   4.828   6.642  0.9529  0.2934 -0.8487
   66SAPC   C35 5502   5.262   4.860   6.846 -0.3855  0.0042 -0.2623
   66SAPC   H5X 5503   5.338   4.788   6.882  1.0450  1.2715 -0.6250
   66SAPC   H5Y 5504   5.163   4.812   6.837 -1.0788  1.2633  0.3477
   66SAPC   C36 5505   5.236   4.976   6.946 -0.6457  0.0962 -0.0433
   66SAPC   H6X 5506   5.163   5.046   6.900 -0.1108 -0.6926 -2.1982
   66SAPC   H6Y 5507   5.333   5.028   6.961 -1.2625  1.1106  0.5391
   66SAPC   C37 5508   5.185   4.913   7.081  0.4016 -0.2437  0.0480
   66SAPC   H7X 5509   5.235   4.819   7.110 -1.2183 -0.2654  3.1416
   66SAPC   H7Y 5510   5.077   4.888   7.074  0.7075 -1.8900  0.7861
   66SAPC   C38 5511   5.205   5.003   7.203  0.4471  0.0243  0.8980
   66SAPC   H8X 5512   5.185   5.111   7.185  0.0184  0.0082  1.2655
   66SAPC   H8Y 5513   5.313   4.998   7.230  1.0042 -2.3970 -1.3568
   66SAPC   C39 5514   5.123   4.954   7.326  0.3948  0.5826  0.3318
   66SAPC   H9X 5515   5.160   4.850   7.337  2.2961  0.7128 -3.0909
   66SAPC   H9Y 5516   5.017   4.937   7.297  0.3025 -0.3568  1.1907
   66SAPC  C310 5517   5.131   5.033   7.456  0.0607  0.3180  0.7771
   66SAPC  H10X 5518   5.038   5.017   7.514 -0.1288  0.3571  0.4888
   66SAPC  H10Y 5519   5.128   5.141   7.432 -1.0205  0.1943  0.2711
   66SAPC  C311 5520   5.250   4.984   7.538  0.0410  0.3754  0.2957
   66SAPC  H11X 5521   5.345   4.990   7.482 -0.9539  0.4767 -1.4626
   66SAPC  H11Y 5522   5.233   4.878   7.565  1.1121  0.4272  1.2581
   66SAPC  C312 5523   5.244   5.069   7.668 -0.2066 -0.0079  0.1264
   66SAPC  H12X 5524   5.150   5.039   7.718 -0.5251 -1.7411 -1.4028
   66SAPC  H12Y 5525   5.254   5.179   7.653 -1.1562  0.4157  2.3122
   66SAPC  C313 5526   5.335   5.017   7.781 -0.3382  0.2007 -0.6474
   66SAPC  H13X 5527   5.442   5.014   7.751 -0.4334 -0.5526 -0.9320
   66SAPC  H13Y 5528   5.307   4.911   7.798  2.1025 -0.3192  0.6137
   66SAPC  C314 5529   5.325   5.083   7.914  1.2224 -0.0514 -0.3531
   66SAPC  H14X 5530   5.218   5.083   7.946  0.4405 -3.6003 -2.3898
   66SAPC  H14Y 5531   5.369   5.184   7.920  1.1954 -0.1198  1.9787
   66SAPC  C315 5532   5.398   5.016   8.028 -0.0396  0.7776  1.0824
   66SAPC  H15X 5533   5.505   5.017   7.998 -0.4616  1.7457 -0.5377
   66SAPC  H15Y 5534   5.365   4.910   8.025  2.1375  0.0572 -0.8159
   66SAPC  C316 5535   5.380   5.086   8.163  0.1535  1.2489  0.0330
   66SAPC  H16X 5536   5.273   5.077   8.192  0.3644  0.2738  0.5594
   66SAPC  H16Y 5537   5.413   5.192   8.158 -2.2218  2.0196 -0.8240
   66SAPC  C317 5538   5.461   5.013   8.270  0.8133 -0.5170 -0.3352
   66SAPC  H17X 5539   5.466   5.074   8.362 -0.6668  0.7270 -1.0496
   66SAPC  H17Y 5540   5.567   4.996   8.239  0.9795  1.2552 -0.8765
   66SAPC  C318 5541   5.407   4.874   8.303 -0.5053  0.0649  0.1662
   66SAPC  H18X 5542   5.370   4.823   8.211 -0.2373  2.1609 -1.1888
   66SAPC  H18Y 5543   5.323   4.873   8.376 -1.9167  1.2910 -1.3485
   66SAPC  H18Z 5544   5.486   4.809   8.345 -0.8787 -0.8979 -0.5822
   67SAPC     N 5545   0.782   6.355   6.267  0.7799  0.0221 -0.2708
   67SAPC   C12 5546   0.648   6.293   6.232  0.4970 -0.3987  0.3391
   67SAPC  H12A 5547   0.611   6.250   6.323  0.0719 -0.6692  0.0447
   67SAPC  H12B 5548   0.676   6.212   6.166  0.8596 -0.8167  1.0010
   67SAPC   C13 5549   0.878   6.266   6.338 -0.5433  0.3547 -0.1128
   67SAPC  H13A 5550   0.830   6.200   6.410  0.8793 -1.6628 -0.8998
   67SAPC  H13B 5551   0.932   6.204   6.268 -1.2727 -0.6155  0.1557
   67SAPC  H13C 5552   0.948   6.325   6.395 -0.1320 -1.5175  1.4197
   67SAPC   C14 5553   0.850   6.398   6.138 -0.4498  0.0249  0.1978
   67SAPC  H14A 5554   0.939   6.453   6.165  1.2521 -1.1794 -2.5309
   67SAPC  H14B 5555   0.893   6.317   6.081 -0.3458  0.4950 -0.4092
   67SAPC  H14C 5556   0.788   6.453   6.069 -1.3137  2.1784  2.5652
   67SAPC   C15 5557   0.773   6.474   6.357  0.2160  0.4083 -0.6117
   67SAPC  H15A 5558   0.723   6.557   6.309 -0.1118 -0.1069 -1.1700
   67SAPC  H15B 5559   0.698   6.459   6.434  1.0410  0.6399  0.2547
   67SAPC  H15C 5560   0.864   6.513   6.400  0.0711 -1.0515  1.1449
   67SAPC   C11 5561   0.540   6.376   6.164  0.6050 -0.1260 -0.0531
   67SAPC  H11A 5562   0.469   6.311   6.109  2.7739 -0.4242 -2.7486
   67SAPC  H11B 5563   0.569   6.432   6.073 -2.5086 -1.4986 -2.0461
   67SAPC     P 5564   0.357   6.433   6.341  0.0886 -0.1142  0.1009
   67SAPC   O13 5565   0.342   6.523   6.455  0.1227  0.6827  0.0223
   67SAPC   O14 5566   0.235   6.422   6.257  1.2077  0.2811 -0.1029
   67SAPC   O12 5567   0.486   6.471   6.251 -0.2507 -0.5223  0.0458
   67SAPC   O11 5568   0.391   6.289   6.389  0.0960 -0.0960 -0.4354
   67SAPC    C1 5569   0.413   6.261   6.529 -0.2641 -0.1569 -0.4835
   67SAPC    HA 5570   0.481   6.174   6.543 -0.5869 -0.2201  0.8136
   67SAPC    HB 5571   0.464   6.348   6.576 -0.8894 -0.2350  0.3647
   67SAPC    C2 5572   0.276   6.217   6.594 -0.2202 -0.2727  0.5043
   67SAPC    HS 5573   0.200   6.293   6.566 -0.7758 -0.7222  0.7665
   67SAPC   O21 5574   0.281   6.202   6.734  0.2356  0.5142 -0.1872
   67SAPC   C21 5575   0.275   6.315   6.806  0.0806 -0.1020 -0.5043
   67SAPC   O22 5576   0.258   6.427   6.762 -0.0381  0.3428  0.6904
   67SAPC   C22 5577   0.293   6.288   6.950  0.1704 -0.6179  0.4533
   67SAPC   H2R 5578   0.206   6.229   6.987  0.7782 -1.1399  1.0818
   67SAPC   H2S 5579   0.381   6.223   6.970 -0.4078 -1.0987  1.4977
   67SAPC    C3 5580   0.231   6.078   6.543 -0.1653 -0.0756  0.2395
   67SAPC    HX 5581   0.314   6.009   6.566  1.2517  0.9861 -1.4569
   67SAPC    HY 5582   0.223   6.089   6.432  0.0901  1.3648  0.3465
   67SAPC   O31 5583   0.104   6.031   6.601 -0.2874  0.2539 -0.5149
   67SAPC   C31 5584  -0.005   6.093   6.551 -0.3521 -0.7605  0.1057
   67SAPC   O32 5585  -0.003   6.187   6.468  0.0045  0.6472  0.1056
   67SAPC   C32 5586  -0.132   6.043   6.625  0.3684  0.0059 -0.3743
   67SAPC   H2X 5587  -0.123   5.933   6.607 -2.2876 -0.2149 -0.7833
   67SAPC   H2Y 5588  -0.226   6.082   6.580  1.7564 -0.4566 -4.0681
   67SAPC   C23 5589   0.300   6.422   7.031 -0.3089 -0.1608 -0.6022
   67SAPC   H3R 5590   0.212   6.487   7.012 -0.6594 -0.1014  1.0334
   67SAPC   H3S 5591   0.399   6.466   7.006  0.8595 -2.2354  0.1453
   67SAPC   C24 5592   0.295   6.386   7.181 -0.2965 -0.7325 -0.7719
   67SAPC   H4R 5593   0.375   6.315   7.211  0.9054  0.6259 -0.6393
   67SAPC   H4S 5594   0.199   6.335   7.203 -1.5850  1.8225 -0.1339
   67SAPC   C25 5595   0.305   6.499   7.279 -0.4252 -0.3135  0.2258
   67SAPC   H5R 5596   0.306   6.604   7.247 -0.3698 -0.1633  0.7075
   67SAPC   C26 5597   0.319   6.483   7.411  0.6596 -0.1552  0.0923
   67SAPC   H6R 5598   0.326   6.570   7.478  1.2333 -0.8805  0.9981
   67SAPC   C27 5599   0.322   6.354   7.489 -0.0508  0.6700  0.3970
   67SAPC   H7R 5600   0.407   6.360   7.560  0.1701 -0.1161  0.2068
   67SAPC   H7S 5601   0.351   6.271   7.421 -1.4908  0.1201  0.4075
   67SAPC   C28 5602   0.190   6.332   7.560 -0.5121  0.5380  1.2771
   67SAPC   H8R 5603   0.106   6.320   7.490  0.2006  1.4436  0.2415
   67SAPC   C29 5604   0.170   6.353   7.688 -0.0523  0.2960 -0.2319
   67SAPC   H9R 5605   0.066   6.341   7.724  0.0824  0.6187  0.2865
   67SAPC  C210 5606   0.268   6.396   7.798  0.2164  0.6564  0.2031
   67SAPC  H10R 5607   0.369   6.412   7.755  0.4960 -0.3925  0.4392
   67SAPC  H10S 5608   0.275   6.309   7.866  0.6999 -0.1335 -0.8382
   67SAPC  C211 5609   0.228   6.511   7.881 -0.4399  0.5549  0.8580
   67SAPC  H11R 5610   0.164   6.584   7.829 -0.8308 -0.4375 -0.0979
   67SAPC  C212 5611   0.243   6.527   8.014  0.3218  0.6964 -0.7295
   67SAPC  H12R 5612   0.210   6.621   8.061  0.2390  0.8254 -1.0417
   67SAPC  C213 5613   0.306   6.439   8.115 -0.0440  0.1044  0.4947
   67SAPC  H13R 5614   0.353   6.350   8.067 -0.8624  0.4166 -0.9567
   67SAPC  H13S 5615   0.221   6.412   8.182 -1.7292 -1.7981 -2.2049
   67SAPC  C214 5616   0.413   6.513   8.184 -0.2800 -0.5283 -0.2546
   67SAPC  H14R 5617   0.438   6.615   8.151 -1.4193  0.7266  2.4793
   67SAPC  C215 5618   0.491   6.456   8.278 -0.0040 -0.4412 -0.5704
   67SAPC  H15R 5619   0.578   6.511   8.317  0.8784 -1.9307 -0.3251
   67SAPC  C216 5620   0.476   6.315   8.331  0.2173  0.2353 -0.4287
   67SAPC  H16R 5621   0.554   6.255   8.280  0.6098  1.9063 -1.9022
   67SAPC  H16S 5622   0.380   6.269   8.298  0.1114 -1.2196  1.6887
   67SAPC  C217 5623   0.503   6.296   8.484 -0.2926 -0.2121 -0.2735
   67SAPC  H17R 5624   0.405   6.334   8.521 -1.0312 -1.2632 -1.0550
   67SAPC  H17S 5625   0.594   6.349   8.517 -0.8676  0.9257 -0.4674
   67SAPC  C218 5626   0.528   6.150   8.519  0.7190  0.0625  0.0333
   67SAPC  H18R 5627   0.569   6.149   8.622 -0.7238  1.4069  0.6547
   67SAPC  H18S 5628   0.605   6.105   8.452  1.1114 -0.3844  0.7774
   67SAPC  C219 5629   0.402   6.063   8.522 -0.1516 -0.1720 -0.1900
   67SAPC  H19R 5630   0.368   6.050   8.417 -0.1463  0.6923 -0.3050
   67SAPC  H19S 5631   0.327   6.123   8.578  0.2831  1.0082 -0.8652
   67SAPC  C220 5632   0.422   5.931   8.590  0.3846  0.1098 -0.2771
   67SAPC  H20R 5633   0.330   5.869   8.601  0.8375 -0.6466 -0.6900
   67SAPC  H20S 5634   0.461   5.958   8.691 -0.5146  2.0897 -0.4079
   67SAPC  H20T 5635   0.502   5.882   8.531  0.5902  0.3500 -0.1990
   67SAPC   C33 5636  -0.128   6.074   6.781 -0.1790 -0.2881  0.1076
   67SAPC   H3X 5637  -0.030   6.051   6.828 -0.8351 -2.2066  0.6214
   67SAPC   H3Y 5638  -0.187   6.000   6.839 -1.7897  0.6765 -0.2333
   67SAPC   C34 5639  -0.175   6.215   6.816  0.2462 -0.0727 -0.1014
   67SAPC   H4X 5640  -0.286   6.223   6.814  0.1079 -1.0311  1.7358
   67SAPC   H4Y 5641  -0.159   6.289   6.734  0.2583  0.7476  0.6323
   67SAPC   C35 5642  -0.130   6.265   6.952  0.0363  0.7796  0.3685
   67SAPC   H5X 5643  -0.024   6.237   6.968 -0.6089 -1.5196  0.9169
   67SAPC   H5Y 5644  -0.176   6.199   7.029  2.6728 -0.6795  0.8024
   67SAPC   C36 5645  -0.157   6.412   6.988 -0.3167  0.1339 -0.4253
   67SAPC   H6X 5646  -0.266   6.419   6.971 -0.5797 -2.4333 -0.2136
   67SAPC   H6Y 5647  -0.110   6.481   6.914 -1.2336  1.4404  0.1639
   67SAPC   C37 5648  -0.113   6.439   7.134  0.5044 -0.2647  0.3027
   67SAPC   H7X 5649  -0.002   6.427   7.138  0.5173 -0.4989 -0.4475
   67SAPC   H7Y 5650  -0.159   6.363   7.200 -0.6722 -0.2645 -0.4878
   67SAPC   C38 5651  -0.151   6.581   7.160  0.5950  0.1934  0.2407
   67SAPC   H8X 5652  -0.259   6.600   7.142  0.9177  2.3233  0.3346
   67SAPC   H8Y 5653  -0.103   6.647   7.084 -2.4382  0.9459 -1.1739
   67SAPC   C39 5654  -0.121   6.630   7.303 -0.0882  0.0261  0.6034
   67SAPC   H9X 5655  -0.120   6.741   7.313  0.9277 -0.0939  2.2879
   67SAPC   H9Y 5656  -0.017   6.599   7.330 -0.4273 -1.6189  0.1052
   67SAPC  C310 5657  -0.207   6.572   7.417 -0.2301 -0.3435  0.1864
   67SAPC  H10X 5658  -0.180   6.464   7.427  1.9418  0.1914  0.6472
   67SAPC  H10Y 5659  -0.315   6.582   7.394 -0.0061  0.8884 -0.4264
   67SAPC  C311 5660  -0.176   6.642   7.549  0.4553  1.0249  0.5563
   67SAPC  H11X 5661  -0.232   6.734   7.575  2.4889  1.7113  2.8486
   67SAPC  H11Y 5662  -0.070   6.676   7.558  0.6762  0.2250  1.1694
   67SAPC  C312 5663  -0.197   6.542   7.663  0.1871 -0.0329  0.7590
   67SAPC  H12X 5664  -0.157   6.440   7.646 -4.3527 -1.6706 -2.1579
   67SAPC  H12Y 5665  -0.304   6.511   7.669 -0.4050  1.2851 -1.7472
   67SAPC  C313 5666  -0.140   6.592   7.801 -0.0622 -0.9121 -0.8048
   67SAPC  H13X 5667  -0.196   6.686   7.817  2.2464  0.2953  0.5775
   67SAPC  H13Y 5668  -0.030   6.606   7.791  0.1092 -1.0489  0.6355
   67SAPC  C314 5669  -0.163   6.496   7.911 -0.2460  0.0802  0.1565
   67SAPC  H14X 5670  -0.114   6.400   7.883  0.1924  0.4533 -0.3614
   67SAPC  H14Y 5671  -0.273   6.479   7.901 -0.0753 -0.5347 -0.7606
   67SAPC  C315 5672  -0.116   6.545   8.049  0.0583 -0.6457 -0.3247
   67SAPC  H15X 5673  -0.191   6.623   8.077  0.4111 -0.3038 -0.3214
   67SAPC  H15Y 5674  -0.017   6.596   8.041 -0.4545  0.4843  0.1922
   67SAPC  C316 5675  -0.132   6.444   8.165 -0.7647  0.6262  0.8425
   67SAPC  H16X 5676  -0.054   6.373   8.131 -1.0521  0.0823  1.2985
   67SAPC  H16Y 5677  -0.232   6.396   8.173 -1.0442  1.3686  2.0069
   67SAPC  C317 5678  -0.078   6.502   8.294 -0.1508  0.1905  0.5442
   67SAPC  H17X 5679  -0.152   6.576   8.331 -1.5806  0.6172 -2.8611
   67SAPC  H17Y 5680   0.016   6.558   8.278 -1.7411  2.9633  0.4036
   67SAPC  C318 5681  -0.074   6.398   8.405 -0.0632  0.4166 -0.6364
   67SAPC  H18X 5682  -0.003   6.318   8.374  0.0104  0.3808 -0.3704
   67SAPC  H18Y 5683  -0.162   6.338   8.437  0.6806  0.5044  1.6983
   67SAPC  H18Z 5684  -0.027   6.436   8.498  2.8169  1.9849 -2.5738
   68SAPC     N 5685   5.349   4.408   5.726  0.8809  0.2207  0.3680
   68SAPC   C12 5686   5.422   4.280   5.774  0.2719 -0.3014  0.3495
   68SAPC  H12A 5687   5.472   4.234   5.690  0.4730 -0.1051  0.3613
   68SAPC  H12B 5688   5.352   4.205   5.807  0.8063 -0.6174  0.7970
   68SAPC   C13 5689   5.445   4.469   5.624  0.4109 -0.4976  0.1437
   68SAPC  H13A 5690   5.533   4.504   5.677  0.4295  0.2122 -0.3479
   68SAPC  H13B 5691   5.473   4.401   5.545 -3.1157  0.2087 -1.8785
   68SAPC  H13C 5692   5.398   4.558   5.586 -0.7460 -0.9289  0.5135
   68SAPC   C14 5693   5.223   4.358   5.652 -0.6204 -0.5031  0.6571
   68SAPC  H14A 5694   5.185   4.441   5.593  1.2918  0.3764  0.5787
   68SAPC  H14B 5695   5.261   4.298   5.570  1.3742  1.7708 -0.2340
   68SAPC  H14C 5696   5.148   4.314   5.715 -0.9221 -0.9169  0.0180
   68SAPC   C15 5697   5.312   4.497   5.832  0.2790  0.1182  0.4176
   68SAPC  H15A 5698   5.257   4.451   5.913  1.7233  0.6917  1.7719
   68SAPC  H15B 5699   5.402   4.548   5.863  0.7146 -0.2429 -0.2472
   68SAPC  H15C 5700   5.243   4.570   5.790 -0.0663 -1.7920 -2.6121
   68SAPC   C11 5701   5.527   4.314   5.887 -0.3293  0.0185  0.0991
   68SAPC  H11A 5702   5.602   4.387   5.850  0.3301 -0.0737  1.1924
   68SAPC  H11B 5703   5.581   4.222   5.917 -1.4501 -1.4794 -2.2188
   68SAPC     P 5704   5.573   4.436   6.115  0.4697  0.1764  0.3196
   68SAPC   O13 5705   5.681   4.350   6.148  0.4420  0.4896 -0.6012
   68SAPC   O14 5706   5.616   4.567   6.065  0.5679  0.3024 -0.0299
   68SAPC   O12 5707   5.473   4.360   6.015 -0.0837 -0.5223 -0.2108
   68SAPC   O11 5708   5.481   4.447   6.238  0.3529 -0.3824  0.0893
   68SAPC    C1 5709   5.341   4.443   6.234  0.1731 -0.1478 -0.3332
   68SAPC    HA 5710   5.294   4.474   6.139 -1.0682  1.7728  0.8247
   68SAPC    HB 5711   5.310   4.338   6.251  1.3478 -0.4648 -0.0747
   68SAPC    C2 5712   5.276   4.529   6.347  0.1551  0.2556  1.0178
   68SAPC    HS 5713   5.332   4.625   6.346  2.3991 -0.9744 -0.7271
   68SAPC   O21 5714   5.292   4.453   6.461 -0.4653 -0.3830  0.2268
   68SAPC   C21 5715   5.392   4.466   6.537 -0.0967  0.5499 -0.3345
   68SAPC   O22 5716   5.481   4.557   6.528  0.0611  0.6668 -0.1867
   68SAPC   C22 5717   5.369   4.372   6.654  0.4463 -0.1007  0.1219
   68SAPC   H2R 5718   5.260   4.375   6.675  0.9017 -1.3225  3.1934
   68SAPC   H2S 5719   5.397   4.270   6.620 -1.4880 -1.0568  1.2394
   68SAPC    C3 5720   5.123   4.564   6.315  0.3863 -0.3978  0.0327
   68SAPC    HX 5721   5.093   4.468   6.268  3.3137 -1.1545 -0.5351
   68SAPC    HY 5722   5.118   4.639   6.234  2.6247 -0.2999 -0.0890
   68SAPC   O31 5723   5.048   4.602   6.432 -0.3315 -0.1745  0.0515
   68SAPC   C31 5724   4.918   4.605   6.410 -0.3168  0.1517 -0.1562
   68SAPC   O32 5725   4.862   4.574   6.306 -0.3837  0.4852 -0.2995
   68SAPC   C32 5726   4.845   4.635   6.538  0.4125 -0.3529  0.3520
   68SAPC   H2X 5727   4.758   4.566   6.537 -0.1421  0.3498  0.1602
   68SAPC   H2Y 5728   4.827   4.744   6.545  0.7487 -0.3823  2.0797
   68SAPC   C23 5729   5.462   4.408   6.772 -0.6749  0.4907  0.6499
   68SAPC   H3R 5730   5.567   4.425   6.740 -0.4397 -0.6371  0.7793
   68SAPC   H3S 5731   5.459   4.322   6.842 -0.9359 -1.5196 -1.6780
   68SAPC   C24 5732   5.421   4.533   6.855  0.1819  0.1701 -0.0917
   68SAPC   H4R 5733   5.411   4.624   6.792 -0.8032  0.6773  0.7557
   68SAPC   H4S 5734   5.497   4.558   6.931 -0.5923 -1.5837  1.3152
   68SAPC   C25 5735   5.280   4.532   6.919 -0.0752 -0.4624  0.1745
   68SAPC   H5R 5736   5.200   4.560   6.850  0.0336  0.2049  0.3128
   68SAPC   C26 5737   5.244   4.523   7.052 -0.9016 -0.4038  0.1461
   68SAPC   H6R 5738   5.136   4.511   7.071 -0.8525 -0.7845  0.1892
   68SAPC   C27 5739   5.324   4.493   7.176  0.6395  0.2904 -0.2306
   68SAPC   H7R 5740   5.415   4.432   7.157  0.2025 -0.3755 -0.2048
   68SAPC   H7S 5741   5.262   4.413   7.220  0.5384 -1.5383 -3.4056
   68SAPC   C28 5742   5.358   4.614   7.263 -0.3879  0.0911 -0.2923
   68SAPC   H8R 5743   5.415   4.697   7.218 -1.3867 -0.0320 -1.8889
   68SAPC   C29 5744   5.335   4.635   7.396 -0.3818 -0.7213  0.2929
   68SAPC   H9R 5745   5.362   4.733   7.438 -0.8635 -0.7700  0.7341
   68SAPC  C210 5746   5.259   4.540   7.479 -0.0712  0.0843  0.0665
   68SAPC  H10R 5747   5.315   4.445   7.465 -0.6074 -0.2131 -0.1078
   68SAPC  H10S 5748   5.154   4.524   7.445  0.1086  0.0839 -0.4945
   68SAPC  C211 5749   5.264   4.578   7.626  1.0363  0.5923  0.1559
   68SAPC  H11R 5750   5.353   4.633   7.662 -0.0169  1.4163  1.5629
   68SAPC  C212 5751   5.166   4.553   7.720 -1.3233 -0.4155 -0.7214
   68SAPC  H12R 5752   5.188   4.590   7.822  1.6582 -3.0734 -0.2358
   68SAPC  C213 5753   5.032   4.487   7.709 -0.5561 -0.0945 -0.1866
   68SAPC  H13R 5754   5.034   4.409   7.787 -0.7623  1.0700  1.0099
   68SAPC  H13S 5755   5.025   4.440   7.608  0.2962 -0.3550 -0.1395
   68SAPC  C214 5756   4.913   4.575   7.735 -0.0986  0.0541  0.2702
   68SAPC  H14R 5757   4.866   4.617   7.645  0.4386  2.0464  0.8763
   68SAPC  C215 5758   4.859   4.602   7.863 -0.7839 -0.0814  0.6897
   68SAPC  H15R 5759   4.757   4.644   7.862 -2.1067 -2.9975 -2.0732
   68SAPC  C216 5760   4.915   4.548   7.992 -0.5025  0.5099  0.5426
   68SAPC  H16R 5761   4.980   4.457   7.988  0.5142  0.8164  4.6090
   68SAPC  H16S 5762   4.821   4.524   8.046 -1.5177  2.0219 -0.5104
   68SAPC  C217 5763   5.004   4.636   8.079 -0.0289 -0.0049  1.1158
   68SAPC  H17R 5764   5.096   4.676   8.032 -1.2663 -0.3202 -1.8228
   68SAPC  H17S 5765   5.034   4.575   8.167  1.3754  0.7328  1.1692
   68SAPC  C218 5766   4.937   4.761   8.128 -0.0593 -1.5921 -0.1423
   68SAPC  H18R 5767   4.838   4.737   8.174 -0.8704 -0.7804 -1.4087
   68SAPC  H18S 5768   4.924   4.831   8.043  0.9240 -0.7225  0.4056
   68SAPC  C219 5769   5.027   4.821   8.238  0.9453  0.0636 -0.0701
   68SAPC  H19R 5770   5.132   4.829   8.204  1.1000  1.9717  0.7312
   68SAPC  H19S 5771   5.019   4.750   8.324  1.6876 -0.2026 -0.2177
   68SAPC  C220 5772   4.983   4.965   8.277  0.4584  0.1640  0.2495
   68SAPC  H20R 5773   4.970   5.024   8.183  2.3451  0.2781  0.0225
   68SAPC  H20S 5774   5.054   5.014   8.347 -0.0416  4.0310 -1.6770
   68SAPC  H20T 5775   4.880   4.969   8.318  0.4849 -0.8085  0.4233
   68SAPC   C33 5776   4.926   4.610   6.670 -0.5794 -0.4191 -1.0943
   68SAPC   H3X 5777   5.017   4.671   6.652 -0.6687 -0.4544 -1.7003
   68SAPC   H3Y 5778   4.962   4.507   6.693 -0.9119 -0.2023  0.5126
   68SAPC   C34 5779   4.848   4.652   6.795 -0.6412 -0.4452  0.2919
   68SAPC   H4X 5780   4.756   4.590   6.800 -0.2924 -0.9220  1.0011
   68SAPC   H4Y 5781   4.815   4.757   6.776 -1.7093 -0.8601 -0.2012
   68SAPC   C35 5782   4.928   4.654   6.921 -0.1020  0.5338 -0.4034
   68SAPC   H5X 5783   5.015   4.723   6.920  0.0541  0.3906  0.9622
   68SAPC   H5Y 5784   4.968   4.552   6.939 -4.1595 -0.8766  2.0133
   68SAPC   C36 5785   4.839   4.679   7.041 -0.2626  0.4105  0.8716
   68SAPC   H6X 5786   4.748   4.616   7.022  1.3935 -1.5756 -1.0530
   68SAPC   H6Y 5787   4.801   4.783   7.034 -1.4186  0.0626  1.6558
   68SAPC   C37 5788   4.904   4.640   7.177  0.6475  0.0385  0.0580
   68SAPC   H7X 5789   4.986   4.709   7.206  0.1106  0.3383  0.9066
   68SAPC   H7Y 5790   4.939   4.536   7.158  0.3390 -0.0110 -0.2417
   68SAPC   C38 5791   4.798   4.641   7.284  0.3286 -0.0313 -0.3205
   68SAPC   H8X 5792   4.837   4.567   7.356  2.1539  0.2965 -0.9267
   68SAPC   H8Y 5793   4.700   4.606   7.244  1.0444  0.1156 -2.3635
   68SAPC   C39 5794   4.774   4.783   7.352 -0.5726  0.1323  0.6742
   68SAPC   H9X 5795   4.735   4.854   7.276  0.9004  0.1648 -0.0689
   68SAPC   H9Y 5796   4.878   4.804   7.384 -0.1566 -0.8343 -0.0017
   68SAPC  C310 5797   4.677   4.786   7.474  0.1043 -0.0137 -0.5453
   68SAPC  H10X 5798   4.702   4.691   7.526  3.0252  0.7948 -0.2681
   68SAPC  H10Y 5799   4.575   4.793   7.432 -0.2931 -1.0066  0.2123
   68SAPC  C311 5800   4.705   4.911   7.564 -0.3504 -0.1452 -0.3596
   68SAPC  H11X 5801   4.675   5.003   7.510 -2.4346 -0.2654  0.5317
   68SAPC  H11Y 5802   4.813   4.916   7.590 -0.6600 -1.3589  1.3354
   68SAPC  C312 5803   4.636   4.901   7.703  0.4524 -0.0281  0.0664
   68SAPC  H12X 5804   4.678   4.814   7.757 -0.8972 -0.4091  0.5373
   68SAPC  H12Y 5805   4.531   4.872   7.680  0.1796  0.5255  0.5958
   68SAPC  C313 5806   4.647   5.027   7.780  0.6422  0.5425  0.5673
   68SAPC  H13X 5807   4.573   5.106   7.752  0.6051  0.5685  0.7355
   68SAPC  H13Y 5808   4.744   5.080   7.773  1.5567 -1.0341  0.9053
   68SAPC  C314 5809   4.647   5.002   7.934  0.2325 -0.4556  0.4557
   68SAPC  H14X 5810   4.741   4.944   7.952  0.6997 -0.7458 -2.4084
   68SAPC  H14Y 5811   4.564   4.931   7.954 -1.9452  2.0430  0.7774
   68SAPC  C315 5812   4.627   5.134   8.006 -0.0717  0.0130 -0.3314
   68SAPC  H15X 5813   4.523   5.171   7.993  0.0157  0.4805  0.2269
   68SAPC  H15Y 5814   4.701   5.205   7.963 -0.3718  0.3489 -0.3029
   68SAPC  C316 5815   4.650   5.112   8.154 -0.0529  0.3413 -0.3997
   68SAPC  H16X 5816   4.751   5.071   8.172 -0.1836  0.4213  0.5516
   68SAPC  H16Y 5817   4.578   5.030   8.173  0.8114 -0.8480 -2.0350
   68SAPC  C317 5818   4.628   5.239   8.237  0.8570  0.4529 -0.1781
   68SAPC  H17X 5819   4.544   5.303   8.204  1.2536  1.3306  0.4747
   68SAPC  H17Y 5820   4.712   5.312   8.234  0.1191  1.3952  1.0880
   68SAPC  C318 5821   4.602   5.215   8.385  0.4313 -0.1349  0.7818
   68SAPC  H18X 5822   4.496   5.188   8.402  0.1401 -0.1090 -0.8353
   68SAPC  H18Y 5823   4.617   5.309   8.441  2.7282  0.6034 -0.9267
   68SAPC  H18Z 5824   4.668   5.136   8.427  0.1598 -1.3228 -0.9186
   69SLPC     N 5825   2.365   1.289  11.394 -0.2175 -0.4518  0.0795
   69SLPC   C13 5826   2.271   1.285  11.512  0.4207 -0.5317  0.1343
   69SLPC  H13A 5827   2.172   1.319  11.486 -0.0971 -2.9061 -1.3014
   69SLPC  H13B 5828   2.270   1.189  11.562 -1.5484 -0.8887 -0.5080
   69SLPC  H13C 5829   2.295   1.367  11.579 -1.7213  2.9791 -3.0058
   69SLPC   C14 5830   2.322   1.179  11.302  0.4225 -0.7233  0.3656
   69SLPC  H14A 5831   2.219   1.206  11.284  0.2380 -0.4495  1.7265
   69SLPC  H14B 5832   2.372   1.170  11.207  1.3328  0.6510  0.6872
   69SLPC  H14C 5833   2.317   1.085  11.355  2.4183 -1.2416 -0.2911
   69SLPC   C15 5834   2.504   1.251  11.434 -0.2162  0.5494  0.1411
   69SLPC  H15A 5835   2.567   1.241  11.347  1.7442  3.2415  1.1150
   69SLPC  H15B 5836   2.539   1.334  11.494 -0.9284  0.8127  0.1966
   69SLPC  H15C 5837   2.505   1.171  11.506  1.3632  1.8009  1.6108
   69SLPC   C12 5838   2.368   1.429  11.322  0.1561 -0.2014 -0.0290
   69SLPC  H12A 5839   2.407   1.501  11.391 -0.8857  0.3007  0.0538
   69SLPC  H12B 5840   2.269   1.466  11.299  0.1938  1.1740  1.8114
   69SLPC   C11 5841   2.444   1.442  11.190 -0.1321  0.3492 -0.3208
   69SLPC  H11A 5842   2.543   1.392  11.193  0.4237  1.3933 -0.6196
   69SLPC  H11B 5843   2.474   1.549  11.188 -0.1802  0.3556 -0.7665
   69SLPC     P 5844   2.247   1.447  11.015 -0.1818  0.0957  0.2539
   69SLPC   O13 5845   2.205   1.361  10.903 -1.0256 -0.1272 -0.5301
   69SLPC   O14 5846   2.156   1.466  11.123  0.1625 -0.5647 -0.8779
   69SLPC   O12 5847   2.380   1.394  11.078  0.6189 -0.2184  0.3846
   69SLPC   O11 5848   2.301   1.585  10.965  0.5014 -0.3613  0.2716
   69SLPC    C1 5849   2.416   1.591  10.877 -0.1451  0.1784  0.0826
   69SLPC    HA 5850   2.502   1.525  10.901 -0.0436  0.5097  0.6720
   69SLPC    HB 5851   2.384   1.553  10.778  1.1999  0.2330 -0.3935
   69SLPC    C2 5852   2.466   1.739  10.852  0.0910 -0.1941 -0.1516
   69SLPC    HS 5853   2.494   1.775  10.954 -0.1441 -1.9025  0.5500
   69SLPC   O21 5854   2.362   1.822  10.792  0.2650 -0.1046  0.8566
   69SLPC   C21 5855   2.394   1.955  10.787  0.1239 -0.1121  0.3100
   69SLPC   O22 5856   2.494   2.003  10.834  0.1850 -0.3302  0.1998
   69SLPC   C22 5857   2.290   2.033  10.706 -0.2852 -0.2351 -0.8404
   69SLPC   H2R 5858   2.206   2.037  10.778  0.8452 -0.5035  0.5520
   69SLPC   H2S 5859   2.323   2.135  10.674 -0.3056 -0.8401 -2.9318
   69SLPC    C3 5860   2.590   1.734  10.760  0.0250  0.3054  0.2996
   69SLPC    HX 5861   2.675   1.674  10.800  0.2075  0.2007 -0.2376
   69SLPC    HY 5862   2.633   1.837  10.753 -1.3653  0.8279 -1.0339
   69SLPC   O31 5863   2.558   1.693  10.630 -0.5538  0.5533 -0.6855
   69SLPC   C31 5864   2.599   1.571  10.582 -0.2475  0.0730 -0.1390
   69SLPC   O32 5865   2.683   1.503  10.640  0.5049  0.0025 -0.0050
   69SLPC   C32 5866   2.539   1.540  10.440  0.7160  0.1977 -0.4405
   69SLPC   H2X 5867   2.433   1.574  10.442  0.2940 -0.5078 -4.3118
   69SLPC   H2Y 5868   2.551   1.430  10.430  2.6479  0.4729 -1.5827
   69SLPC   C23 5869   2.237   1.968  10.581 -0.1955  0.4756  0.3943
   69SLPC   H3R 5870   2.146   2.017  10.541 -0.2018 -0.3773 -0.6796
   69SLPC   H3S 5871   2.209   1.861  10.593  0.7597  0.1487 -0.1489
   69SLPC   C24 5872   2.347   1.970  10.469  0.0738 -0.3505 -0.1125
   69SLPC   H4R 5873   2.440   1.925  10.510  0.3367  0.8095  0.6132
   69SLPC   H4S 5874   2.373   2.077  10.455  0.7023 -0.3093  1.2596
   69SLPC   C25 5875   2.301   1.900  10.335 -0.1192  0.2928  0.0690
   69SLPC   H5R 5876   2.191   1.905  10.326  0.0328  2.4955 -1.4369
   69SLPC   H5S 5877   2.338   1.795  10.333 -0.9026  0.0188 -0.1750
   69SLPC   C26 5878   2.382   1.969  10.219  0.1270  1.0557  0.0550
   69SLPC   H6R 5879   2.492   1.952  10.226  0.2104  1.2450 -0.6653
   69SLPC   H6S 5880   2.365   2.079  10.221  1.1886  1.2633 -0.8882
   69SLPC   C27 5881   2.341   1.923  10.079 -0.1285  0.0232  0.6435
   69SLPC   H7R 5882   2.230   1.924  10.074 -0.1618 -0.2834  1.1968
   69SLPC   H7S 5883   2.378   1.818  10.079  1.2965  0.4812 -1.0102
   69SLPC   C28 5884   2.395   2.013   9.958  0.5977  0.0884  0.0125
   69SLPC   H8R 5885   2.375   1.950   9.869  0.3354 -1.1373  0.9088
   69SLPC   H8S 5886   2.504   2.035   9.956  0.2313  2.2368 -2.4847
   69SLPC   C29 5887   2.328   2.147   9.954 -0.0417  0.3660  0.3260
   69SLPC   H9R 5888   2.314   2.199  10.050 -1.0111  1.4811 -0.3917
   69SLPC  C210 5889   2.290   2.214   9.845  0.5472  0.2930 -0.1456
   69SLPC  H10R 5890   2.236   2.309   9.854  0.3090  0.3480 -1.7612
   69SLPC  C211 5891   2.304   2.161   9.700 -0.1281 -1.0638  0.7004
   69SLPC  H11R 5892   2.344   2.059   9.686 -3.5360 -2.6690  1.5539
   69SLPC  H11S 5893   2.377   2.225   9.646 -1.6854 -1.6897 -2.3275
   69SLPC  C212 5894   2.171   2.164   9.633  0.4385 -0.6326 -0.3622
   69SLPC  H12R 5895   2.096   2.235   9.670  1.3270  1.0245 -1.5986
   69SLPC  C213 5896   2.140   2.087   9.533  0.3920 -0.0019 -0.0674
   69SLPC  H13R 5897   2.042   2.105   9.486 -0.6767 -2.8811  0.8747
   69SLPC  C214 5898   2.216   1.970   9.477 -1.3188  0.6420  0.6161
   69SLPC  H14R 5899   2.220   1.887   9.550 -1.6561 -0.4107 -0.5287
   69SLPC  H14S 5900   2.321   1.993   9.450 -0.5648 -2.5250  0.4634
   69SLPC  C215 5901   2.127   1.903   9.365  0.4691 -0.1056 -0.7261
   69SLPC  H15R 5902   2.025   1.890   9.405  0.4153  1.8307 -0.1281
   69SLPC  H15S 5903   2.153   1.797   9.347  1.7333  0.1280 -0.3706
   69SLPC  C216 5904   2.116   1.973   9.227  0.1542 -0.2771 -0.4536
   69SLPC  H16R 5905   2.055   2.066   9.227 -3.1996 -2.3101  1.2519
   69SLPC  H16S 5906   2.056   1.911   9.158  1.1229 -1.8557  0.0608
   69SLPC  C217 5907   2.242   1.979   9.143  0.4432 -0.0820 -0.2657
   69SLPC  H17R 5908   2.297   1.883   9.152  1.3209  0.2849 -1.5303
   69SLPC  H17S 5909   2.309   2.056   9.185 -0.4752  0.5301  0.1175
   69SLPC  C218 5910   2.218   2.010   9.001 -0.0914  0.1510  0.1636
   69SLPC  H18R 5911   2.312   2.031   8.945 -0.4942 -0.0143 -0.6037
   69SLPC  H18S 5912   2.164   2.107   8.990  0.9867  0.8877  1.1662
   69SLPC  H18T 5913   2.166   1.929   8.945 -2.2407  1.2606  0.4563
   69SLPC   C33 5914   2.623   1.601  10.329  0.0308  1.1550  0.5074
   69SLPC   H3X 5915   2.729   1.570  10.320 -0.3056  0.0997 -0.1392
   69SLPC   H3Y 5916   2.623   1.712  10.330  0.9482  1.4652 -4.4200
   69SLPC   C34 5917   2.559   1.568  10.196  0.4767 -0.3279  0.2603
   69SLPC   H4X 5918   2.449   1.586  10.195  0.1808 -1.9382 -0.8596
   69SLPC   H4Y 5919   2.562   1.463  10.161 -2.4873 -0.8390  1.2706
   69SLPC   C35 5920   2.617   1.653  10.088  0.3993 -0.3399  0.5051
   69SLPC   H5X 5921   2.726   1.636  10.100  0.2085 -0.3180  2.5537
   69SLPC   H5Y 5922   2.593   1.759  10.112  2.6949  0.3577 -0.0169
   69SLPC   C36 5923   2.562   1.620   9.947 -0.3775 -0.1844 -0.0008
   69SLPC   H6X 5924   2.451   1.612   9.954 -0.3327 -1.4716 -0.5121
   69SLPC   H6Y 5925   2.600   1.517   9.932 -1.0881 -0.3763 -0.5689
   69SLPC   C37 5926   2.612   1.723   9.837 -0.5313 -0.3804  0.8037
   69SLPC   H7X 5927   2.722   1.719   9.821 -0.7410  0.8785 -1.4729
   69SLPC   H7Y 5928   2.575   1.826   9.852  0.0449 -0.1066  0.4078
   69SLPC   C38 5929   2.567   1.682   9.692  0.1836  0.5477 -0.3978
   69SLPC   H8X 5930   2.456   1.676   9.694  0.1432  1.3314 -0.1838
   69SLPC   H8Y 5931   2.603   1.580   9.666 -0.5615  0.0057  0.6266
   69SLPC   C39 5932   2.610   1.770   9.581  0.8814  0.3799  0.5077
   69SLPC   H9X 5933   2.721   1.775   9.588  1.0995  0.3967 -2.0313
   69SLPC   H9Y 5934   2.577   1.872   9.610 -0.7897 -0.6296  2.4318
   69SLPC  C310 5935   2.562   1.726   9.444 -0.3224  0.0765  0.1021
   69SLPC  H10X 5936   2.453   1.743   9.439 -0.1223  1.4460  0.1437
   69SLPC  H10Y 5937   2.586   1.618   9.432 -1.4981 -0.1601 -0.1985
   69SLPC  C311 5938   2.626   1.797   9.325  0.3782 -0.2527  1.3535
   69SLPC  H11X 5939   2.737   1.791   9.331  0.4874  0.1329 -0.0720
   69SLPC  H11Y 5940   2.575   1.896   9.329  1.3446  0.2735  1.1596
   69SLPC  C312 5941   2.581   1.734   9.191  0.6261 -0.2307 -0.0420
   69SLPC  H12X 5942   2.472   1.712   9.194  0.6295 -0.1880  0.7732
   69SLPC  H12Y 5943   2.630   1.635   9.177  0.2049 -0.4430 -0.0583
   69SLPC  C313 5944   2.604   1.829   9.075  0.1840  0.9446  0.6112
   69SLPC  H13X 5945   2.714   1.841   9.064  0.2551  0.0717  0.3435
   69SLPC  H13Y 5946   2.565   1.929   9.105  1.7981  0.9865  2.8740
   69SLPC  C314 5947   2.526   1.776   8.952  0.9636  0.3477  0.7713
   69SLPC  H14X 5948   2.416   1.776   8.967  0.8141  0.7407 -0.1930
   69SLPC  H14Y 5949   2.556   1.670   8.941  2.2025  0.6634  0.9928
   69SLPC  C315 5950   2.581   1.843   8.825 -0.0509 -1.1100  0.8248
   69SLPC  H15X 5951   2.692   1.834   8.831 -0.0251 -0.1092  3.3521
   69SLPC  H15Y 5952   2.562   1.953   8.828  1.5467 -0.7720 -0.3432
   69SLPC  C316 5953   2.521   1.797   8.691  0.1702 -0.8913 -0.9358
   69SLPC  H16X 5954   2.411   1.808   8.697  0.2363  0.9168 -2.2258
   69SLPC  H16Y 5955   2.546   1.690   8.670  0.5324 -0.9661 -0.1570
   69SLPC  C317 5956   2.554   1.891   8.574  0.2081  0.3572  0.9044
   69SLPC  H17X 5957   2.656   1.874   8.535 -0.3413  0.4226 -0.6064
   69SLPC  H17Y 5958   2.535   1.999   8.593 -1.0530  0.4225 -0.5326
   69SLPC  C318 5959   2.456   1.863   8.463  0.4938 -0.3643 -0.2764
   69SLPC  H18X 5960   2.351   1.861   8.500  0.5634  0.7629  0.0361
   69SLPC  H18Y 5961   2.472   1.766   8.412  0.0758 -0.2785 -0.5783
   69SLPC  H18Z 5962   2.453   1.948   8.391  0.1988 -0.3931 -0.3002
   70SLPC     N 5963   3.825   6.606  10.915 -0.0690  0.6093 -0.1046
   70SLPC   C13 5964   3.904   6.562  11.027 -0.1757 -0.2316 -0.6320
   70SLPC  H13A 5965   3.967   6.486  10.984  0.6957  0.2008 -0.1585
   70SLPC  H13B 5966   3.961   6.645  11.067 -0.4068 -0.2187 -0.3176
   70SLPC  H13C 5967   3.840   6.524  11.105  0.5600 -1.0873 -0.4250
   70SLPC   C14 5968   3.905   6.670  10.801 -0.2856  0.9351  0.1685
   70SLPC  H14A 5969   3.982   6.605  10.761 -2.3829 -1.8486  0.3724
   70SLPC  H14B 5970   3.836   6.686  10.720 -0.1610  0.3882 -0.0506
   70SLPC  H14C 5971   3.947   6.766  10.826 -0.5144  1.4226 -1.2629
   70SLPC   C15 5972   3.728   6.717  10.949 -0.2363  0.3861  0.2950
   70SLPC  H15A 5973   3.679   6.731  10.854  0.8640  0.5153 -0.2742
   70SLPC  H15B 5974   3.654   6.690  11.022  1.0148  0.7116  1.7287
   70SLPC  H15C 5975   3.779   6.812  10.963  1.3519 -0.2287 -0.9475
   70SLPC   C12 5976   3.747   6.488  10.863  0.7038 -0.3510  0.2945
   70SLPC  H12A 5977   3.675   6.472  10.941 -1.1977  0.1359 -1.2791
   70SLPC  H12B 5978   3.811   6.403  10.847  0.4256 -0.6724  0.8684
   70SLPC   C11 5979   3.660   6.509  10.734 -0.0276  0.0230  0.4382
   70SLPC  H11A 5980   3.607   6.413  10.715  0.5062  0.0349 -1.2218
   70SLPC  H11B 5981   3.732   6.539  10.655  0.2196 -0.7313  0.3646
   70SLPC     P 5982   3.406   6.557  10.768 -0.2305  0.0630 -0.3739
   70SLPC   O13 5983   3.399   6.471  10.891 -0.4177 -0.2541  0.3813
   70SLPC   O14 5984   3.323   6.680  10.767  0.3550  0.0470 -0.0958
   70SLPC   O12 5985   3.558   6.604  10.755 -0.6799 -0.1678  0.3370
   70SLPC   O11 5986   3.386   6.477  10.633  0.1744 -0.1673  0.5407
   70SLPC    C1 5987   3.373   6.564  10.517 -0.2912  0.5780  0.2130
   70SLPC    HA 5988   3.277   6.620  10.516 -1.3337 -1.0221  2.3652
   70SLPC    HB 5989   3.453   6.641  10.520 -0.1211  0.3758  1.4448
   70SLPC    C2 5990   3.377   6.475  10.392 -0.4886  1.1202  1.0129
   70SLPC    HS 5991   3.299   6.399  10.410 -0.0328  0.5221  0.4961
   70SLPC   O21 5992   3.507   6.417  10.383 -0.7022 -0.3140  0.4029
   70SLPC   C21 5993   3.524   6.311  10.305  0.5900 -0.1735 -0.0766
   70SLPC   O22 5994   3.435   6.236  10.275 -0.3758  1.0718  0.3462
   70SLPC   C22 5995   3.673   6.302  10.259  0.0454 -0.5585 -0.1975
   70SLPC   H2R 5996   3.712   6.404  10.241  1.0391 -0.5976  1.4749
   70SLPC   H2S 5997   3.725   6.260  10.349 -0.2921  1.3563  0.9486
   70SLPC    C3 5998   3.331   6.561  10.264 -0.2065  0.3552 -0.0760
   70SLPC    HX 5999   3.389   6.656  10.270 -0.5894  0.5253  1.0886
   70SLPC    HY 6000   3.223   6.585  10.266  0.0685  1.5947  0.5351
   70SLPC   O31 6001   3.359   6.497  10.137  0.2401 -0.1402 -0.2212
   70SLPC   C31 6002   3.265   6.427  10.077 -0.6854 -0.3692 -0.7312
   70SLPC   O32 6003   3.160   6.398  10.129  0.0261  0.2315 -0.7815
   70SLPC   C32 6004   3.309   6.370   9.944 -0.0028 -0.0543 -0.0507
   70SLPC   H2X 6005   3.389   6.298   9.972  2.0637  2.1910  0.2136
   70SLPC   H2Y 6006   3.363   6.459   9.905  0.3974  0.3861  1.4139
   70SLPC   C23 6007   3.704   6.201  10.146 -0.4058 -0.4701 -0.4220
   70SLPC   H3R 6008   3.639   6.111  10.153  0.5578 -1.2246 -0.8329
   70SLPC   H3S 6009   3.812   6.176  10.152 -0.3992 -0.8287 -1.7308
   70SLPC   C24 6010   3.680   6.272  10.003  0.1452  0.6244 -0.5389
   70SLPC   H4R 6011   3.773   6.326   9.978  1.2679  0.0436  2.0202
   70SLPC   H4S 6012   3.595   6.341  10.022 -0.8983 -1.1740  1.9923
   70SLPC   C25 6013   3.656   6.162   9.902  0.2556 -0.8694  0.6334
   70SLPC   H5R 6014   3.559   6.122   9.940  0.8882  0.5413  4.0465
   70SLPC   H5S 6015   3.735   6.083   9.897  0.0342 -1.3524  3.1250
   70SLPC   C26 6016   3.648   6.216   9.753  0.1757 -0.2664 -0.2524
   70SLPC   H6R 6017   3.726   6.294   9.746 -0.0335  0.1364  1.4333
   70SLPC   H6S 6018   3.551   6.271   9.757  0.4573  0.2034  0.1029
   70SLPC   C27 6019   3.644   6.117   9.642 -0.2130 -1.1963  0.4983
   70SLPC   H7R 6020   3.582   6.031   9.677  0.3720 -2.3475 -1.1787
   70SLPC   H7S 6021   3.746   6.075   9.627  0.5768  0.4563  1.0462
   70SLPC   C28 6022   3.584   6.167   9.514  0.3201  0.8293  0.4974
   70SLPC   H8R 6023   3.493   6.229   9.528 -0.1197  0.5540 -0.9558
   70SLPC   H8S 6024   3.545   6.077   9.461  1.4795  1.0049 -0.7291
   70SLPC   C29 6025   3.665   6.259   9.422 -0.4944  0.0445 -0.2313
   70SLPC   H9R 6026   3.739   6.322   9.474 -1.7898  1.4152  0.0293
   70SLPC  C210 6027   3.630   6.296   9.293 -0.6096 -0.0145  0.1002
   70SLPC  H10R 6028   3.700   6.345   9.224 -0.2983 -0.6546 -0.0541
   70SLPC  C211 6029   3.518   6.240   9.217  0.0185 -0.0766 -0.0798
   70SLPC  H11R 6030   3.456   6.320   9.170 -1.5476 -1.1814  0.0279
   70SLPC  H11S 6031   3.446   6.180   9.276  0.6599 -1.0936 -0.2978
   70SLPC  C212 6032   3.575   6.140   9.120  0.5855  0.3841 -0.1828
   70SLPC  H12R 6033   3.660   6.078   9.154 -0.6278 -1.2988 -0.1141
   70SLPC  C213 6034   3.502   6.086   9.020 -0.3125 -0.4632 -0.0616
   70SLPC  H13R 6035   3.547   6.003   8.963  2.9659  0.0826  1.4510
   70SLPC  C214 6036   3.363   6.137   8.977 -0.5127  0.3185  0.2708
   70SLPC  H14R 6037   3.314   6.202   9.053 -1.3532  0.6229 -0.5195
   70SLPC  H14S 6038   3.298   6.047   8.968 -1.0818  0.8393 -1.0665
   70SLPC  C215 6039   3.369   6.198   8.837 -0.5785 -0.4869  0.2825
   70SLPC  H15R 6040   3.442   6.282   8.830 -2.1521  0.9224  0.3674
   70SLPC  H15S 6041   3.269   6.242   8.816  0.0709  1.0247  0.2564
   70SLPC  C216 6042   3.395   6.099   8.719  0.4537 -0.5810  0.1503
   70SLPC  H16R 6043   3.323   6.015   8.721 -0.9734  0.3905 -3.0686
   70SLPC  H16S 6044   3.499   6.064   8.737  0.7586 -0.8269 -1.8173
   70SLPC  C217 6045   3.381   6.162   8.575 -0.1969  0.1872  0.3270
   70SLPC  H17R 6046   3.426   6.096   8.498 -1.7606 -0.8367  0.2327
   70SLPC  H17S 6047   3.440   6.256   8.577  0.9421 -0.4857 -0.6857
   70SLPC  C218 6048   3.234   6.188   8.532  0.0676  0.0221  0.9767
   70SLPC  H18R 6049   3.217   6.193   8.422 -0.1215  1.6415  1.0553
   70SLPC  H18S 6050   3.197   6.279   8.585 -0.7762  0.4128 -0.2391
   70SLPC  H18T 6051   3.170   6.101   8.557  0.9542 -1.1563 -0.6251
   70SLPC   C33 6052   3.201   6.306   9.855  1.2542 -1.1323  0.4686
   70SLPC   H3X 6053   3.119   6.378   9.837  0.4703 -2.2846 -0.7401
   70SLPC   H3Y 6054   3.165   6.213   9.904  0.4058 -0.3847  1.2863
   70SLPC   C34 6055   3.250   6.268   9.705  0.2018 -0.2166 -0.0770
   70SLPC   H4X 6056   3.296   6.167   9.698 -0.5567 -0.5474 -0.4551
   70SLPC   H4Y 6057   3.318   6.349   9.671  0.1759  0.0548  0.5198
   70SLPC   C35 6058   3.132   6.292   9.607  0.0338  0.3214 -0.4176
   70SLPC   H5X 6059   3.090   6.394   9.616 -3.3642 -0.6487 -2.8749
   70SLPC   H5Y 6060   3.051   6.222   9.637 -1.4948  1.9365 -0.6437
   70SLPC   C36 6061   3.189   6.260   9.467 -0.7351 -0.1236  0.0450
   70SLPC   H6X 6062   3.227   6.156   9.457  0.1495  0.2905 -1.1177
   70SLPC   H6Y 6063   3.273   6.329   9.443  1.7154 -2.0309  2.4152
   70SLPC   C37 6064   3.073   6.286   9.369  0.1077  0.7765 -0.0819
   70SLPC   H7X 6065   3.042   6.389   9.398 -0.6157  0.2839  0.9709
   70SLPC   H7Y 6066   2.988   6.219   9.391 -3.0033  3.9360 -1.4273
   70SLPC   C38 6067   3.093   6.272   9.217 -0.3020  0.0697 -0.9385
   70SLPC   H8X 6068   3.099   6.164   9.193  0.1232 -0.0247 -0.4223
   70SLPC   H8Y 6069   3.191   6.314   9.188 -0.6709  0.6846 -1.3181
   70SLPC   C39 6070   2.983   6.343   9.127  0.1268 -0.0361  0.1177
   70SLPC   H9X 6071   2.975   6.452   9.144 -0.0780 -0.4770  3.3907
   70SLPC   H9Y 6072   2.888   6.297   9.160 -1.8597  2.6021 -1.4678
   70SLPC  C310 6073   3.002   6.307   8.978 -0.2993 -0.1137  0.9183
   70SLPC  H10X 6074   3.028   6.199   8.971  1.8338  0.4280 -0.3774
   70SLPC  H10Y 6075   3.095   6.352   8.935 -0.9117 -1.0167 -1.5553
   70SLPC  C311 6076   2.894   6.361   8.884 -0.3348 -0.0004  0.1189
   70SLPC  H11X 6077   2.886   6.472   8.880  0.1381 -0.0069 -1.1503
   70SLPC  H11Y 6078   2.792   6.332   8.917 -1.3076  2.5610 -0.3998
   70SLPC  C312 6079   2.905   6.331   8.731  0.0800 -0.7657 -0.0277
   70SLPC  H12X 6080   2.882   6.223   8.721 -0.8653 -0.6100  0.2681
   70SLPC  H12Y 6081   3.009   6.354   8.701  0.4700 -2.1891  0.1837
   70SLPC  C313 6082   2.805   6.411   8.664  0.4645  0.0680  0.9538
   70SLPC  H13X 6083   2.825   6.519   8.652 -1.8136  0.4030 -0.2790
   70SLPC  H13Y 6084   2.708   6.400   8.717  0.2359  0.9014  0.7142
   70SLPC  C314 6085   2.795   6.364   8.519 -0.3181  0.8573 -0.0527
   70SLPC  H14X 6086   2.775   6.255   8.518  1.6399  0.4649 -0.5705
   70SLPC  H14Y 6087   2.899   6.367   8.479 -0.6476 -0.6249 -1.0725
   70SLPC  C315 6088   2.685   6.429   8.437  0.1668  0.0116  0.2869
   70SLPC  H15X 6089   2.680   6.395   8.331 -0.5205  2.0325 -0.3728
   70SLPC  H15Y 6090   2.707   6.538   8.440 -2.5062  0.5797  2.0955
   70SLPC  C316 6091   2.550   6.418   8.507  0.4579  0.7916  0.1365
   70SLPC  H16X 6092   2.541   6.497   8.585 -0.8161  0.0905  0.7219
   70SLPC  H16Y 6093   2.541   6.323   8.563 -0.4461  0.5266 -0.4452
   70SLPC  C317 6094   2.436   6.447   8.409  0.3273 -0.4452  0.4046
   70SLPC  H17X 6095   2.350   6.401   8.462 -1.3213 -0.2811 -2.0183
   70SLPC  H17Y 6096   2.449   6.391   8.314 -1.2116 -0.4437  0.1792
   70SLPC  C318 6097   2.413   6.599   8.371 -0.1766  0.2631  0.1898
   70SLPC  H18X 6098   2.411   6.663   8.462  4.1199  1.3525 -0.2667
   70SLPC  H18Y 6099   2.311   6.601   8.326  0.2668  0.9671 -0.8098
   70SLPC  H18Z 6100   2.493   6.639   8.306  0.6432  1.3674  1.8040
   71SLPC     N 6101   2.836   4.893  10.670 -0.0474 -0.5590  0.0398
   71SLPC   C13 6102   2.791   4.846  10.803 -0.3672 -0.1283  0.8515
   71SLPC  H13A 6103   2.737   4.922  10.857  1.9631  2.0084  0.3750
   71SLPC  H13B 6104   2.728   4.758  10.794 -0.5266 -0.3417  3.3237
   71SLPC  H13C 6105   2.874   4.810  10.863 -0.8570 -0.2193  1.4872
   71SLPC   C14 6106   2.889   4.778  10.590  0.4576  0.2222  0.1759
   71SLPC  H14A 6107   2.928   4.814  10.496  1.3802  2.9609  1.5071
   71SLPC  H14B 6108   2.956   4.717  10.650 -0.0656 -1.7047 -1.1094
   71SLPC  H14C 6109   2.817   4.699  10.572  1.0358 -0.1251 -0.6904
   71SLPC   C15 6110   2.937   5.008  10.690  0.1333  1.0123  0.2985
   71SLPC  H15A 6111   2.974   5.041  10.595  2.7105  1.4968  1.3867
   71SLPC  H15B 6112   2.893   5.092  10.742  1.8276  2.0622  0.1185
   71SLPC  H15C 6113   3.026   4.982  10.746  0.4620  0.1958 -0.5851
   71SLPC   C12 6114   2.710   4.949  10.604  0.2125  0.1537  0.0830
   71SLPC  H12A 6115   2.737   4.998  10.511  0.8866  0.5935  0.4973
   71SLPC  H12B 6116   2.665   5.029  10.659  0.1614  0.0839  0.1424
   71SLPC   C11 6117   2.596   4.850  10.579 -0.8522 -0.1571  0.1078
   71SLPC  H11A 6118   2.651   4.766  10.530  0.9498  2.6172 -3.0428
   71SLPC  H11B 6119   2.528   4.895  10.504 -0.7550 -1.2616 -0.6771
   71SLPC     P 6120   2.430   4.916  10.760  0.0212 -0.2975 -0.0878
   71SLPC   O13 6121   2.336   4.842  10.841 -0.0507  0.1377 -0.1520
   71SLPC   O14 6122   2.512   5.018  10.828  0.0321 -0.0521  0.0250
   71SLPC   O12 6123   2.534   4.810  10.702 -0.5135  0.0275  0.8536
   71SLPC   O11 6124   2.345   4.983  10.640 -0.0399 -0.2933  0.4038
   71SLPC    C1 6125   2.263   5.092  10.684 -0.0535  0.2089 -0.2460
   71SLPC    HA 6126   2.176   5.058  10.744  0.8659 -1.4072  0.2252
   71SLPC    HB 6127   2.314   5.171  10.743 -1.0356  0.0777  0.8233
   71SLPC    C2 6128   2.212   5.180  10.562  0.1009 -0.3744 -0.2875
   71SLPC    HS 6129   2.141   5.251  10.608 -0.6419 -2.7319  2.4747
   71SLPC   O21 6130   2.159   5.093  10.457  0.0313 -0.2953 -0.0329
   71SLPC   C21 6131   2.032   5.077  10.454  0.3891 -0.7433 -0.1068
   71SLPC   O22 6132   1.954   5.141  10.519  0.0293 -0.2234 -0.9387
   71SLPC   C22 6133   1.979   4.984  10.340 -0.0673 -0.0391  0.8620
   71SLPC   H2R 6134   2.054   4.902  10.346  1.8558  1.5835  0.2756
   71SLPC   H2S 6135   1.873   4.957  10.356 -0.6554  1.2359 -0.6515
   71SLPC    C3 6136   2.327   5.259  10.496 -0.4167  0.0130  0.7823
   71SLPC    HX 6137   2.416   5.192  10.501 -0.6860 -0.6193 -1.5950
   71SLPC    HY 6138   2.356   5.343  10.564  0.7048 -0.8291  1.3815
   71SLPC   O31 6139   2.298   5.303  10.359  0.2100 -0.3063 -0.3466
   71SLPC   C31 6140   2.366   5.243  10.265  0.0839  0.4889 -0.1873
   71SLPC   O32 6141   2.419   5.134  10.281  0.1042  0.3935 -0.3051
   71SLPC   C32 6142   2.380   5.326  10.145  0.3480  0.1945 -0.1580
   71SLPC   H2X 6143   2.424   5.424  10.174 -2.3978  1.2409  0.8577
   71SLPC   H2Y 6144   2.279   5.347  10.103  0.9226  2.1384 -0.6714
   71SLPC   C23 6145   2.003   5.071  10.211 -0.1633 -0.0879  0.6452
   71SLPC   H3R 6146   2.108   5.105  10.200 -0.5078  0.3225 -1.7912
   71SLPC   H3S 6147   1.940   5.162  10.204  0.0791  0.0526  0.3009
   71SLPC   C24 6148   1.962   4.982  10.092  0.4747  0.7824 -0.0469
   71SLPC   H4R 6149   1.860   4.947  10.119  0.4234 -0.9439 -2.2001
   71SLPC   H4S 6150   2.031   4.895  10.080  1.2837  1.0066  2.3965
   71SLPC   C25 6151   1.977   5.060   9.955  0.1681  0.0587 -0.6546
   71SLPC   H5R 6152   2.078   5.107   9.952 -0.2254  0.9007 -2.4481
   71SLPC   H5S 6153   1.907   5.145   9.946 -1.3691 -1.2516 -1.6770
   71SLPC   C26 6154   1.954   4.983   9.831 -0.3027  0.5921 -0.0771
   71SLPC   H6R 6155   1.855   4.932   9.824  0.1455 -0.4207  0.7677
   71SLPC   H6S 6156   2.028   4.901   9.838  0.7226  1.5391  0.6184
   71SLPC   C27 6157   1.985   5.067   9.707 -0.1102  0.5799 -0.5325
   71SLPC   H7R 6158   2.074   5.131   9.725  1.4808 -1.1968 -1.6853
   71SLPC   H7S 6159   1.893   5.123   9.680 -1.9373 -2.3843 -0.9166
   71SLPC   C28 6160   2.032   4.979   9.592  0.4153  0.3110 -0.9194
   71SLPC   H8R 6161   2.056   5.050   9.509  3.1224  1.3067  0.5834
   71SLPC   H8S 6162   1.949   4.913   9.561  2.0698 -2.6903  0.5915
   71SLPC   C29 6163   2.160   4.899   9.603  0.0027 -0.1293 -0.5167
   71SLPC   H9R 6164   2.201   4.892   9.705 -0.4333 -1.5410 -0.4130
   71SLPC  C210 6165   2.218   4.836   9.503  0.0857 -0.0795 -0.1761
   71SLPC  H10R 6166   2.314   4.786   9.523  0.8678  0.9312 -1.1993
   71SLPC  C211 6167   2.180   4.832   9.352 -0.2485  0.2953 -0.3183
   71SLPC  H11R 6168   2.209   4.936   9.324 -1.1302  0.9301  1.0255
   71SLPC  H11S 6169   2.074   4.821   9.321 -0.1924 -1.9562  0.1062
   71SLPC  C212 6170   2.252   4.715   9.282  0.6827 -0.3191 -0.2275
   71SLPC  H12R 6171   2.272   4.623   9.338 -2.0021 -0.9846 -0.2199
   71SLPC  C213 6172   2.281   4.717   9.153  0.0976  0.0339 -0.2445
   71SLPC  H13R 6173   2.327   4.625   9.111  2.7336  0.2490  1.8772
   71SLPC  C214 6174   2.249   4.828   9.052 -0.4711  0.7042 -0.6784
   71SLPC  H14R 6175   2.342   4.885   9.034  0.5306  1.2276  4.5088
   71SLPC  H14S 6176   2.169   4.895   9.090 -0.6654  0.6767 -1.0369
   71SLPC  C215 6177   2.188   4.754   8.924 -0.1116 -0.5192  0.6436
   71SLPC  H15R 6178   2.092   4.714   8.962 -0.7091  2.7818  3.0029
   71SLPC  H15S 6179   2.256   4.669   8.900  1.7601  1.1946 -0.3991
   71SLPC  C216 6180   2.170   4.857   8.809 -0.6699 -0.4820 -0.0669
   71SLPC  H16R 6181   2.142   4.799   8.719  0.1665  0.0027 -0.6475
   71SLPC  H16S 6182   2.265   4.905   8.778 -1.5633  1.7377  0.4592
   71SLPC  C217 6183   2.068   4.972   8.822  0.1497 -0.0755  0.2677
   71SLPC  H17R 6184   2.061   5.001   8.929  1.3406  2.3015 -0.2466
   71SLPC  H17S 6185   1.967   4.929   8.801 -0.2891  0.9418  0.2396
   71SLPC  C218 6186   2.100   5.097   8.746  0.1494  0.0014  0.2720
   71SLPC  H18R 6187   2.020   5.174   8.755  0.8309  0.8339 -0.6823
   71SLPC  H18S 6188   2.114   5.083   8.637 -0.4045  0.8508  0.0889
   71SLPC  H18T 6189   2.193   5.144   8.784  1.0695 -1.0646 -0.6011
   71SLPC   C33 6190   2.472   5.252  10.047  0.0947  0.1605  0.1325
   71SLPC   H3X 6191   2.449   5.143  10.054  1.1189 -0.0196  1.2465
   71SLPC   H3Y 6192   2.577   5.261  10.085  1.1156 -2.6373 -1.7415
   71SLPC   C34 6193   2.480   5.307   9.902  0.1848 -0.7364 -0.2186
   71SLPC   H4X 6194   2.569   5.255   9.861 -0.2828 -1.3164 -0.5054
   71SLPC   H4Y 6195   2.504   5.415   9.912 -0.0300 -0.4455 -2.5119
   71SLPC   C35 6196   2.346   5.274   9.838 -0.4847 -0.0907  1.3743
   71SLPC   H5X 6197   2.264   5.323   9.893 -0.8436  1.5248 -0.4835
   71SLPC   H5Y 6198   2.341   5.164   9.851  0.4942 -0.6272 -1.8226
   71SLPC   C36 6199   2.320   5.303   9.690 -0.0961  0.1159 -0.3586
   71SLPC   H6X 6200   2.297   5.411   9.695 -1.5522 -0.2050  0.2794
   71SLPC   H6Y 6201   2.221   5.259   9.665  0.1649 -0.5143 -0.3033
   71SLPC   C37 6202   2.435   5.274   9.596  0.6432 -0.5172  0.3255
   71SLPC   H7X 6203   2.478   5.173   9.609 -1.1520 -1.3795 -0.0653
   71SLPC   H7Y 6204   2.518   5.344   9.622  0.9931 -0.9647  0.4151
   71SLPC   C38 6205   2.398   5.305   9.449  0.0048 -0.2830 -0.6093
   71SLPC   H8X 6206   2.489   5.295   9.387 -0.3134 -2.0880 -0.8335
   71SLPC   H8Y 6207   2.363   5.410   9.441  1.5118  0.2831 -0.0704
   71SLPC   C39 6208   2.289   5.215   9.381 -0.3757 -0.6595 -0.2473
   71SLPC   H9X 6209   2.194   5.227   9.437 -0.9860  0.0865 -1.3952
   71SLPC   H9Y 6210   2.324   5.109   9.375  1.7740  0.0198 -0.3671
   71SLPC  C310 6211   2.258   5.259   9.238  0.0453 -0.1544 -0.4164
   71SLPC  H10X 6212   2.226   5.365   9.237 -1.3542 -0.5535 -1.2524
   71SLPC  H10Y 6213   2.173   5.204   9.193 -1.5558  1.2869  0.7551
   71SLPC  C311 6214   2.380   5.247   9.141  0.7657 -0.3842 -0.0288
   71SLPC  H11X 6215   2.413   5.142   9.124 -1.9925 -0.9469 -2.6758
   71SLPC  H11Y 6216   2.471   5.303   9.172  1.3417 -0.2132 -1.9274
   71SLPC  C312 6217   2.350   5.301   8.999  0.4481 -0.3191 -0.0014
   71SLPC  H12X 6218   2.338   5.411   9.000 -0.4939 -0.3019 -3.1095
   71SLPC  H12Y 6219   2.257   5.258   8.957  0.6648 -0.5749 -0.2213
   71SLPC  C313 6220   2.463   5.269   8.899 -0.0386 -0.1213 -0.4112
   71SLPC  H13X 6221   2.495   5.166   8.926  1.7302  0.9578  1.9057
   71SLPC  H13Y 6222   2.546   5.338   8.923 -1.2460  1.2936 -0.1297
   71SLPC  C314 6223   2.433   5.301   8.750  0.3063  0.5017 -0.7126
   71SLPC  H14X 6224   2.375   5.218   8.703  0.5123 -0.3085  0.4124
   71SLPC  H14Y 6225   2.530   5.301   8.695  0.2941 -2.4600 -0.8976
   71SLPC  C315 6226   2.361   5.431   8.724  0.4707  0.0958  1.0978
   71SLPC  H15X 6227   2.430   5.513   8.755  0.1722  0.8423 -0.1675
   71SLPC  H15Y 6228   2.266   5.441   8.781 -1.4820  0.7778 -2.0361
   71SLPC  C316 6229   2.328   5.453   8.576  0.7844  0.0446  0.1810
   71SLPC  H16X 6230   2.250   5.381   8.543 -0.1756  0.9156  0.5135
   71SLPC  H16Y 6231   2.426   5.436   8.525  0.8195 -0.2486  0.3446
   71SLPC  C317 6232   2.276   5.596   8.559  0.1141  0.5296  0.6099
   71SLPC  H17X 6233   2.333   5.655   8.635  1.8334  0.3757 -0.5177
   71SLPC  H17Y 6234   2.166   5.598   8.578 -0.0168 -1.5871  0.3622
   71SLPC  C318 6235   2.312   5.648   8.420  0.1185 -0.6281 -0.1781
   71SLPC  H18X 6236   2.281   5.755   8.411 -0.3958 -0.9165 -2.4858
   71SLPC  H18Y 6237   2.263   5.598   8.334  0.6378 -0.9820 -0.2704
   71SLPC  H18Z 6238   2.422   5.642   8.405 -0.0374 -2.1345 -0.8412
   72SLPC     N 6239   4.320   5.592  10.902  0.6195  0.6855  0.3695
   72SLPC   C13 6240   4.270   5.488  11.003 -0.2021 -0.2471  0.2910
   72SLPC  H13A 6241   4.332   5.486  11.091  1.2811 -0.7443 -0.7167
   72SLPC  H13B 6242   4.167   5.506  11.028 -1.5116 -3.8762 -1.7503
   72SLPC  H13C 6243   4.281   5.393  10.953 -0.7601 -0.8432  1.2833
   72SLPC   C14 6244   4.329   5.729  10.957  0.0472  0.2264 -0.2749
   72SLPC  H14A 6245   4.385   5.733  11.049 -3.3932  2.6133  1.9939
   72SLPC  H14B 6246   4.360   5.806  10.887 -1.6672  0.9668 -0.2860
   72SLPC  H14C 6247   4.230   5.761  10.988 -0.1056 -0.1310 -0.3932
   72SLPC   C15 6248   4.209   5.592  10.799 -1.0008 -0.6085  0.6647
   72SLPC  H15A 6249   4.113   5.613  10.844 -1.8766  0.3634 -1.5250
   72SLPC  H15B 6250   4.239   5.659  10.720  0.6085 -1.9746  0.0335
   72SLPC  H15C 6251   4.205   5.494  10.753  0.5877  0.2207 -1.4130
   72SLPC   C12 6252   4.444   5.555  10.826  0.0957 -0.2863 -0.9229
   72SLPC  H12A 6253   4.517   5.537  10.903  0.0259  2.1299 -0.2148
   72SLPC  H12B 6254   4.477   5.631  10.757 -1.8444  1.2917 -0.2309
   72SLPC   C11 6255   4.426   5.433  10.730  0.0315 -0.1074  0.0834
   72SLPC  H11A 6256   4.520   5.415  10.674  0.2477 -0.1938  0.4700
   72SLPC  H11B 6257   4.369   5.474  10.644 -0.4471  0.7030  0.7790
   72SLPC     P 6258   4.423   5.190  10.835  0.0071  0.0350  0.3823
   72SLPC   O13 6259   4.495   5.228  10.953 -0.5697 -0.4349 -0.3673
   72SLPC   O14 6260   4.335   5.074  10.839 -0.0618  0.5907  0.2161
   72SLPC   O12 6261   4.350   5.315  10.769 -0.2478 -0.6051  0.7962
   72SLPC   O11 6262   4.537   5.155  10.735  0.4764  0.5109 -0.0828
   72SLPC    C1 6263   4.492   5.069  10.619  1.0845  0.4562 -0.1553
   72SLPC    HA 6264   4.421   4.990  10.650 -0.7882  2.7359  1.8628
   72SLPC    HB 6265   4.440   5.135  10.546 -0.0690 -0.9392 -0.6484
   72SLPC    C2 6266   4.605   5.007  10.542  0.8442 -0.1504  0.4508
   72SLPC    HS 6267   4.656   4.932  10.606  0.8606  0.3954  1.0838
   72SLPC   O21 6268   4.689   5.113  10.500  0.3778 -0.0399  0.3392
   72SLPC   C21 6269   4.818   5.097  10.504  0.2882  0.6767  0.0641
   72SLPC   O22 6270   4.877   4.997  10.539 -0.4231  0.1537 -0.6277
   72SLPC   C22 6271   4.889   5.226  10.472 -0.1373  0.5281 -0.2958
   72SLPC   H2R 6272   4.810   5.303  10.468 -1.1172 -0.4705 -0.6453
   72SLPC   H2S 6273   4.963   5.230  10.555  0.1669 -0.5960 -0.4886
   72SLPC    C3 6274   4.541   4.934  10.418  0.4510  0.1308  0.2657
   72SLPC    HX 6275   4.482   5.006  10.357 -0.4773 -2.3338 -1.9273
   72SLPC    HY 6276   4.466   4.853  10.428 -0.3983  0.9000  0.2104
   72SLPC   O31 6277   4.652   4.901  10.325  0.3228 -0.5085  0.0839
   72SLPC   C31 6278   4.725   4.797  10.364  0.0927  0.0326 -0.4599
   72SLPC   O32 6279   4.717   4.732  10.466  0.7196  0.0078  0.5163
   72SLPC   C32 6280   4.815   4.769  10.251  0.2792  0.4002 -0.2738
   72SLPC   H2X 6281   4.754   4.713  10.177  0.0556  2.0206 -1.3889
   72SLPC   H2Y 6282   4.903   4.712  10.288 -0.9674  0.7909  3.7234
   72SLPC   C23 6283   4.975   5.229  10.342  0.5613  0.1786 -0.4493
   72SLPC   H3R 6284   5.023   5.129  10.334  1.9319  0.8909 -1.6180
   72SLPC   H3S 6285   5.050   5.310  10.353 -0.2999  0.8902  0.2629
   72SLPC   C24 6286   4.893   5.244  10.213 -0.2503 -0.5585 -0.3313
   72SLPC   H4R 6287   4.851   5.346  10.212  0.1268 -0.2935  2.4994
   72SLPC   H4S 6288   4.814   5.165  10.219 -0.7157  0.0017  2.8867
   72SLPC   C25 6289   4.987   5.232  10.095  0.3232 -0.2761  0.6704
   72SLPC   H5R 6290   5.052   5.142  10.106 -0.7227 -1.3002 -1.0682
   72SLPC   H5S 6291   5.059   5.316  10.096 -0.7886  0.7173  1.9239
   72SLPC   C26 6292   4.915   5.235   9.959  0.0647  0.2320 -0.1635
   72SLPC   H6R 6293   4.861   5.329   9.932 -1.0013 -0.2832  0.1331
   72SLPC   H6S 6294   4.835   5.159   9.969 -0.2143  0.6705  1.2161
   72SLPC   C27 6295   5.018   5.201   9.850  0.1571  0.3807  0.4181
   72SLPC   H7R 6296   5.078   5.112   9.876 -0.6146 -0.8050 -1.5950
   72SLPC   H7S 6297   5.090   5.284   9.830  1.8484 -1.2701 -0.5975
   72SLPC   C28 6298   4.944   5.179   9.715  0.7413 -0.3400 -0.8221
   72SLPC   H8R 6299   4.902   5.273   9.674 -0.9860  0.7985  3.0407
   72SLPC   H8S 6300   4.847   5.130   9.737  1.0836 -0.5473  0.2956
   72SLPC   C29 6301   5.029   5.097   9.616  0.0991  0.4356  0.3337
   72SLPC   H9R 6302   5.134   5.105   9.645  0.0413  0.1936  0.6123
   72SLPC  C210 6303   4.986   5.040   9.502 -0.0568  0.3670  0.3372
   72SLPC  H10R 6304   5.062   4.998   9.434 -0.5525  0.0125 -0.0021
   72SLPC  C211 6305   4.844   5.038   9.450  0.0136  0.4798 -0.7248
   72SLPC  H11R 6306   4.811   5.142   9.428 -0.9281  0.4123  0.2845
   72SLPC  H11S 6307   4.779   5.005   9.534  3.0741 -0.3104  1.5207
   72SLPC  C212 6308   4.826   4.954   9.327  0.1991 -0.2565 -0.1016
   72SLPC  H12R 6309   4.861   4.851   9.341 -1.0756 -0.7964 -0.7691
   72SLPC  C213 6310   4.769   4.979   9.211  0.2073 -0.4189  0.4304
   72SLPC  H13R 6311   4.771   4.899   9.135  0.7738 -1.2562  1.2939
   72SLPC  C214 6312   4.699   5.109   9.171  0.5839  0.0264  0.1959
   72SLPC  H14R 6313   4.691   5.185   9.252 -0.6704 -1.0774  1.1533
   72SLPC  H14S 6314   4.597   5.075   9.142  1.0567 -2.2109  0.8922
   72SLPC  C215 6315   4.761   5.187   9.055 -0.4120 -0.0532 -0.4874
   72SLPC  H15R 6316   4.867   5.212   9.078 -0.1419 -0.5724 -1.1170
   72SLPC  H15S 6317   4.706   5.283   9.046  1.5724  1.5088  2.5566
   72SLPC  C216 6318   4.774   5.109   8.922 -0.1599  0.1598 -0.0225
   72SLPC  H16R 6319   4.671   5.082   8.891  0.0590  0.0586 -0.6764
   72SLPC  H16S 6320   4.835   5.017   8.934 -0.4455  0.1707  1.9610
   72SLPC  C217 6321   4.833   5.198   8.812 -0.3422  0.2723 -0.3799
   72SLPC  H17R 6322   4.836   5.129   8.725  2.8358 -1.9467  1.3022
   72SLPC  H17S 6323   4.938   5.218   8.841 -0.0904 -0.3900 -0.8234
   72SLPC  C218 6324   4.756   5.320   8.773 -0.1390 -0.2834 -0.6266
   72SLPC  H18R 6325   4.732   5.392   8.854  2.4667  0.1484 -0.1560
   72SLPC  H18S 6326   4.654   5.292   8.737  0.3798  0.5452 -2.9218
   72SLPC  H18T 6327   4.813   5.363   8.688 -0.2604 -0.0575 -0.5946
   72SLPC   C33 6328   4.865   4.890  10.158 -0.1816 -0.1138 -0.0803
   72SLPC   H3X 6329   4.922   4.960  10.222 -0.2676 -1.3333  1.3895
   72SLPC   H3Y 6330   4.771   4.948  10.145 -1.1356 -0.7118  3.1702
   72SLPC   C34 6331   4.933   4.860  10.021 -0.7086 -0.1336  0.5815
   72SLPC   H4X 6332   5.021   4.803  10.057  0.0839  0.9274  0.3904
   72SLPC   H4Y 6333   4.980   4.944   9.965 -1.5261  1.2375  1.8606
   72SLPC   C35 6334   4.868   4.778   9.910  0.1011  0.5062 -0.4307
   72SLPC   H5X 6335   4.782   4.831   9.863 -0.4567 -2.1782 -2.7985
   72SLPC   H5Y 6336   4.829   4.682   9.949  0.5556  0.8821  0.9824
   72SLPC   C36 6337   4.963   4.748   9.797  0.3172  0.3289 -0.7288
   72SLPC   H6X 6338   5.043   4.689   9.846 -0.5733  1.1008  1.7907
   72SLPC   H6Y 6339   4.981   4.849   9.755 -2.5331  0.5800 -1.5821
   72SLPC   C37 6340   4.887   4.659   9.694 -0.2647  0.0804  0.5938
   72SLPC   H7X 6341   4.783   4.694   9.680 -0.1458  0.9569  1.7570
   72SLPC   H7Y 6342   4.877   4.553   9.724  0.0107  0.3014  1.5011
   72SLPC   C38 6343   4.968   4.649   9.557  0.2627 -0.0905  0.2800
   72SLPC   H8X 6344   5.071   4.612   9.575  0.2786 -0.9689 -1.4176
   72SLPC   H8Y 6345   4.976   4.755   9.524 -2.2586 -0.1678 -0.7947
   72SLPC   C39 6346   4.888   4.572   9.451 -0.7305 -0.5032  0.2921
   72SLPC   H9X 6347   4.805   4.634   9.411  1.0038  2.5769  1.1067
   72SLPC   H9Y 6348   4.857   4.477   9.498 -0.5721 -1.0756 -0.7303
   72SLPC  C310 6349   4.975   4.534   9.333 -0.3129 -0.3246  0.8812
   72SLPC  H10X 6350   4.935   4.443   9.283 -0.3411 -0.3946  1.0309
   72SLPC  H10Y 6351   5.068   4.493   9.378 -0.0117  0.8287  1.3431
   72SLPC  C311 6352   5.004   4.641   9.224 -0.1292 -0.0318 -0.2787
   72SLPC  H11X 6353   5.105   4.643   9.178  0.7193  2.2410  1.5183
   72SLPC  H11Y 6354   4.993   4.738   9.277  0.4171 -0.6238  0.9647
   72SLPC  C312 6355   4.899   4.648   9.117  0.1421  0.5712  0.2899
   72SLPC  H12X 6356   4.909   4.750   9.073  1.6096  1.5464  2.6601
   72SLPC  H12Y 6357   4.798   4.640   9.161  0.3350 -0.9800  0.4974
   72SLPC  C313 6358   4.912   4.554   8.995  0.3490  0.4261  0.3335
   72SLPC  H13X 6359   4.896   4.447   9.023  0.9785 -0.1689 -1.4155
   72SLPC  H13Y 6360   5.017   4.556   8.960 -0.3038  2.0070 -1.7238
   72SLPC  C314 6361   4.833   4.589   8.869  0.0745 -0.3096  1.1130
   72SLPC  H14X 6362   4.839   4.695   8.836 -0.3155  0.1293  2.4084
   72SLPC  H14Y 6363   4.728   4.590   8.904  0.2477  1.3034  1.6395
   72SLPC  C315 6364   4.848   4.507   8.743 -0.4588  0.6370  0.1169
   72SLPC  H15X 6365   4.821   4.401   8.766  1.3814  0.3177  0.9895
   72SLPC  H15Y 6366   4.950   4.510   8.700 -0.6806 -0.0831 -0.4987
   72SLPC  C316 6367   4.761   4.564   8.628 -0.3269  0.1962 -0.0123
   72SLPC  H16X 6368   4.817   4.644   8.576  1.6233 -0.7123  0.5965
   72SLPC  H16Y 6369   4.667   4.605   8.672 -0.7122 -2.7845  2.3024
   72SLPC  C317 6370   4.727   4.473   8.506  1.2535 -0.3754 -0.7836
   72SLPC  H17X 6371   4.644   4.527   8.456  1.1719  2.2791  1.8933
   72SLPC  H17Y 6372   4.694   4.373   8.541  0.3779  0.1244 -0.1390
   72SLPC  C318 6373   4.830   4.480   8.400  0.5646  0.2894  0.7530
   72SLPC  H18X 6374   4.793   4.417   8.316 -0.2557  2.3896 -0.5499
   72SLPC  H18Y 6375   4.914   4.429   8.452  1.2857  0.9860  0.2990
   72SLPC  H18Z 6376   4.850   4.583   8.364 -1.5252 -0.3008 -2.6030
   73SLPC     N 6377   2.271   2.600  11.150 -0.0018 -0.1193  0.8887
   73SLPC   C13 6378   2.172   2.706  11.112  0.3773 -0.4315 -0.3199
   73SLPC  H13A 6379   2.188   2.742  11.012  1.8156 -0.3393 -0.0783
   73SLPC  H13B 6380   2.067   2.689  11.129  0.0347  2.0680  0.4384
   73SLPC  H13C 6381   2.194   2.796  11.168  0.2523 -0.4268 -0.2785
   73SLPC   C14 6382   2.229   2.542  11.277 -0.4762  0.1177  0.5410
   73SLPC  H14A 6383   2.222   2.625  11.347 -0.8844  0.6784 -0.1509
   73SLPC  H14B 6384   2.126   2.510  11.266 -0.6737  0.6483  0.7798
   73SLPC  H14C 6385   2.295   2.462  11.305  1.1396  0.0820 -2.8959
   73SLPC   C15 6386   2.411   2.654  11.170 -0.2582  0.5131 -0.2951
   73SLPC  H15A 6387   2.486   2.577  11.184 -1.4786 -0.5441  0.7265
   73SLPC  H15B 6388   2.446   2.711  11.086 -0.6572 -0.1947 -0.9497
   73SLPC  H15C 6389   2.410   2.712  11.261  0.4331 -0.6901  0.5150
   73SLPC   C12 6390   2.277   2.489  11.044  0.5971 -0.5245 -0.6150
   73SLPC  H12A 6391   2.183   2.438  11.057 -0.6606  2.0321  1.1767
   73SLPC  H12B 6392   2.353   2.422  11.079  2.1878  1.5450  0.1185
   73SLPC   C11 6393   2.294   2.529  10.894  0.4522  0.1003  0.0593
   73SLPC  H11A 6394   2.197   2.577  10.871 -1.1825 -2.8771  0.2830
   73SLPC  H11B 6395   2.292   2.433  10.838 -1.8949 -0.3884  0.8525
   73SLPC     P 6396   2.550   2.540  10.836 -0.2679  0.2730 -0.1234
   73SLPC   O13 6397   2.651   2.644  10.796 -0.2979  0.9554  0.7603
   73SLPC   O14 6398   2.591   2.463  10.956 -0.0635  0.6841  0.1481
   73SLPC   O12 6399   2.405   2.614  10.864 -0.3243 -0.1391 -0.7122
   73SLPC   O11 6400   2.520   2.439  10.711  0.0950  0.0818  0.1146
   73SLPC    C1 6401   2.562   2.302  10.726 -0.2225 -0.8629 -0.5174
   73SLPC    HA 6402   2.538   2.257  10.825 -0.7010 -0.2317 -0.3484
   73SLPC    HB 6403   2.512   2.239  10.649 -0.2613 -1.4676 -0.0132
   73SLPC    C2 6404   2.721   2.284  10.704 -0.5093  0.0309  0.1017
   73SLPC    HS 6405   2.777   2.315  10.795  0.6793 -0.1757 -0.5309
   73SLPC   O21 6406   2.765   2.347  10.588 -0.0208 -0.2619 -0.1569
   73SLPC   C21 6407   2.892   2.377  10.570  0.3226 -0.3334 -1.1334
   73SLPC   O22 6408   2.970   2.352  10.657  0.0964 -0.7034 -0.7294
   73SLPC   C22 6409   2.932   2.450  10.447 -0.3481 -0.2939 -0.3581
   73SLPC   H2R 6410   2.953   2.372  10.371 -0.6760 -3.9323  2.9895
   73SLPC   H2S 6411   2.849   2.517  10.413 -0.8712  0.6538  2.4900
   73SLPC    C3 6412   2.767   2.138  10.690 -0.2800  0.6051  0.0378
   73SLPC    HX 6413   2.722   2.086  10.778 -0.0634  1.1179  0.4592
   73SLPC    HY 6414   2.875   2.119  10.704 -0.2333  0.7359 -0.1420
   73SLPC   O31 6415   2.719   2.079  10.564  0.2158  0.2364  0.2874
   73SLPC   C31 6416   2.803   2.076  10.456 -0.0834  0.0770 -0.2623
   73SLPC   O32 6417   2.923   2.090  10.452  0.4138 -1.0210  0.5716
   73SLPC   C32 6418   2.719   2.040  10.333  0.1127  0.5391 -0.3498
   73SLPC   H2X 6419   2.634   2.111  10.322  0.0180  0.4895  0.0699
   73SLPC   H2Y 6420   2.670   1.946  10.366 -2.2236  1.9844  0.5668
   73SLPC   C23 6421   3.057   2.534  10.470 -0.5530 -0.0503 -0.2562
   73SLPC   H3R 6422   3.137   2.466  10.507  1.0070  0.9154 -1.7290
   73SLPC   H3S 6423   3.040   2.610  10.550 -1.9682 -1.5203  0.8864
   73SLPC   C24 6424   3.108   2.604  10.342 -0.6506 -0.2389 -0.1566
   73SLPC   H4R 6425   3.190   2.677  10.360 -1.2725  0.7221 -1.0934
   73SLPC   H4S 6426   3.025   2.671  10.312  0.5605  0.6702 -1.6028
   73SLPC   C25 6427   3.160   2.511  10.229 -0.3428 -0.4846 -0.1617
   73SLPC   H5R 6428   3.073   2.455  10.188  1.1022 -1.7547 -1.5730
   73SLPC   H5S 6429   3.241   2.447  10.268 -0.0617 -1.1180 -1.7219
   73SLPC   C26 6430   3.220   2.594  10.109  0.1935 -0.5509 -0.6543
   73SLPC   H6R 6431   3.265   2.538  10.026  1.0057 -1.7114  0.5345
   73SLPC   H6S 6432   3.301   2.656  10.153 -1.8369  1.8486 -0.0608
   73SLPC   C27 6433   3.114   2.681  10.033 -0.1748 -0.3251 -0.6024
   73SLPC   H7R 6434   3.077   2.758  10.104  1.1354 -1.9394  1.9750
   73SLPC   H7S 6435   3.031   2.612  10.009  1.6269 -2.1500 -1.9073
   73SLPC   C28 6436   3.170   2.753   9.914  1.0003  0.5830  0.0756
   73SLPC   H8R 6437   3.214   2.682   9.841 -0.3911  0.0411 -0.2634
   73SLPC   H8S 6438   3.251   2.822   9.948  1.2448  0.3871 -0.1040
   73SLPC   C29 6439   3.056   2.835   9.854 -0.5504 -0.8195 -0.0732
   73SLPC   H9R 6440   3.019   2.914   9.922 -0.8007 -1.2794  0.3334
   73SLPC  C210 6441   3.003   2.829   9.735 -0.0344 -0.0806 -0.1858
   73SLPC  H10R 6442   2.932   2.904   9.699  0.1340 -1.4549 -3.7505
   73SLPC  C211 6443   3.035   2.738   9.623  0.3313 -0.6028 -0.5710
   73SLPC  H11R 6444   3.079   2.644   9.664 -1.5517 -2.4544 -2.5071
   73SLPC  H11S 6445   3.111   2.775   9.550 -0.5873 -0.1160 -1.3137
   73SLPC  C212 6446   2.911   2.699   9.549  0.1109 -0.0167 -0.2670
   73SLPC  H12R 6447   2.824   2.694   9.617 -1.4603 -1.3753 -2.2543
   73SLPC  C213 6448   2.905   2.654   9.422  0.6136  0.0332 -0.1992
   73SLPC  H13R 6449   2.806   2.631   9.379  0.8511 -0.0344 -0.7204
   73SLPC  C214 6450   3.024   2.631   9.325  0.1650  0.6970 -0.2630
   73SLPC  H14R 6451   3.122   2.649   9.375  1.0261 -3.1184 -0.3151
   73SLPC  H14S 6452   3.018   2.691   9.232 -1.4197  0.3455 -0.4192
   73SLPC  C215 6453   3.036   2.483   9.272 -0.7923 -0.9727  0.1801
   73SLPC  H15R 6454   3.035   2.407   9.352 -1.2495  0.0667  1.1869
   73SLPC  H15S 6455   3.131   2.478   9.215 -1.0276  3.8763 -1.0793
   73SLPC  C216 6456   2.933   2.450   9.160  0.4448 -0.3897  0.5627
   73SLPC  H16R 6457   2.840   2.501   9.194 -0.1663 -1.5520  0.6700
   73SLPC  H16S 6458   2.903   2.343   9.166  0.1727 -0.2738  1.3772
   73SLPC  C217 6459   2.971   2.487   9.015  0.6820 -0.8100 -0.5606
   73SLPC  H17R 6460   3.066   2.433   8.994  1.0336 -2.1525  3.6421
   73SLPC  H17S 6461   2.992   2.596   9.012  0.0669 -0.6793 -0.1805
   73SLPC  C218 6462   2.853   2.467   8.911  0.1582  0.3538 -0.1211
   73SLPC  H18R 6463   2.771   2.539   8.931  0.6179  1.3520 -1.6516
   73SLPC  H18S 6464   2.826   2.360   8.902  0.5665  0.4072 -3.1040
   73SLPC  H18T 6465   2.898   2.485   8.811  1.7032  1.2774  0.6947
   73SLPC   C33 6466   2.800   2.017  10.205  0.9278 -0.4169 -0.3063
   73SLPC   H3X 6467   2.737   1.959  10.134  1.2884 -2.4428  0.9521
   73SLPC   H3Y 6468   2.891   1.955  10.220 -0.8756 -3.1016  0.3933
   73SLPC   C34 6469   2.829   2.147  10.142 -0.8182  0.4353  0.8510
   73SLPC   H4X 6470   2.915   2.197  10.191  0.0347  0.1062 -0.2796
   73SLPC   H4Y 6471   2.747   2.220  10.164 -0.6691  0.7998  0.2089
   73SLPC   C35 6472   2.868   2.136   9.996  0.2246  0.0214  0.4188
   73SLPC   H5X 6473   2.784   2.077   9.953 -1.1132  2.1636 -0.0688
   73SLPC   H5Y 6474   2.962   2.078   9.984  0.9844  1.4812 -1.2160
   73SLPC   C36 6475   2.866   2.279   9.929 -0.3393 -0.3640 -0.0183
   73SLPC   H6X 6476   2.933   2.356   9.973 -1.3217  0.4113  0.1557
   73SLPC   H6Y 6477   2.770   2.330   9.951  0.1985 -0.3484  2.7616
   73SLPC   C37 6478   2.884   2.293   9.780  0.0587  0.1403  0.0480
   73SLPC   H7X 6479   2.985   2.253   9.758  0.8973  1.9502  0.4274
   73SLPC   H7Y 6480   2.877   2.402   9.759  0.6532 -0.3106 -2.9734
   73SLPC   C38 6481   2.775   2.235   9.697 -0.6793  0.1908  0.1256
   73SLPC   H8X 6482   2.674   2.261   9.737 -0.8239 -1.5424  0.9471
   73SLPC   H8Y 6483   2.786   2.125   9.699 -0.2960  0.2363  1.3732
   73SLPC   C39 6484   2.787   2.283   9.551 -0.1252  0.0933  0.0976
   73SLPC   H9X 6485   2.868   2.222   9.506 -0.3601  0.2958 -0.6013
   73SLPC   H9Y 6486   2.817   2.390   9.546 -1.9741  0.6646  0.4478
   73SLPC  C310 6487   2.651   2.278   9.476 -1.0697 -0.0131  0.2700
   73SLPC  H10X 6488   2.578   2.333   9.538  0.8236  1.2420  1.4929
   73SLPC  H10Y 6489   2.623   2.171   9.465  1.0439 -0.3944 -2.8384
   73SLPC  C311 6490   2.655   2.335   9.332 -0.1389  0.0687 -0.2362
   73SLPC  H11X 6491   2.755   2.296   9.301  0.8188  1.9923  0.2812
   73SLPC  H11Y 6492   2.655   2.446   9.324  1.1184  0.3914  2.9272
   73SLPC  C312 6493   2.547   2.273   9.234  0.3738 -0.0104 -0.5753
   73SLPC  H12X 6494   2.453   2.326   9.261  0.6824  0.0001  0.5193
   73SLPC  H12Y 6495   2.537   2.165   9.258 -1.9141  0.3619  0.4240
   73SLPC  C313 6496   2.587   2.285   9.087 -0.1423 -1.0141  0.2418
   73SLPC  H13X 6497   2.644   2.200   9.045  0.8733 -1.1294  1.7778
   73SLPC  H13Y 6498   2.659   2.369   9.081 -0.6740 -0.5651  0.0769
   73SLPC  C314 6499   2.460   2.310   9.007 -0.0389 -0.1959 -0.5497
   73SLPC  H14X 6500   2.420   2.413   9.019 -2.2159 -1.2946  3.7296
   73SLPC  H14Y 6501   2.378   2.245   9.045  0.9504 -0.4582  1.2656
   73SLPC  C315 6502   2.487   2.269   8.859  0.6257 -0.3943 -0.1453
   73SLPC  H15X 6503   2.525   2.165   8.865 -1.7057 -1.2224  2.3094
   73SLPC  H15Y 6504   2.549   2.353   8.821 -1.2218  0.3303 -1.6735
   73SLPC  C316 6505   2.354   2.252   8.785 -0.1333 -0.0102  0.2961
   73SLPC  H16X 6506   2.280   2.184   8.832  0.7157 -2.0774 -1.1817
   73SLPC  H16Y 6507   2.378   2.199   8.690 -1.9462 -0.5867  0.1263
   73SLPC  C317 6508   2.290   2.381   8.747  0.9212 -0.0474  0.3937
   73SLPC  H17X 6509   2.352   2.463   8.704 -2.0230  1.9064 -0.4333
   73SLPC  H17Y 6510   2.260   2.436   8.839 -0.5568 -0.6775  0.3166
   73SLPC  C318 6511   2.165   2.363   8.654  0.2351  1.0690  0.0360
   73SLPC  H18X 6512   2.194   2.304   8.565 -0.9869  0.4098  0.0426
   73SLPC  H18Y 6513   2.139   2.469   8.634 -0.1607  0.8612 -0.5846
   73SLPC  H18Z 6514   2.088   2.313   8.718  0.5328  1.0612  0.3920
   74SLPC     N 6515   5.715   4.986  10.849  0.2388 -0.4457 -0.0445
   74SLPC   C13 6516   5.668   4.868  10.919  0.0744 -0.2645  0.3963
   74SLPC  H13A 6517   5.584   4.811  10.881 -1.9639  0.2683  3.6367
   74SLPC  H13B 6518   5.741   4.791  10.905  0.0840  0.2736 -3.6864
   74SLPC  H13C 6519   5.655   4.879  11.026 -4.0957 -2.4182  0.3298
   74SLPC   C14 6520   5.616   5.103  10.860  0.0110  0.0871 -0.1986
   74SLPC  H14A 6521   5.658   5.190  10.813 -1.9097  0.2142 -1.8135
   74SLPC  H14B 6522   5.524   5.078  10.809 -1.8377 -2.5964  3.8696
   74SLPC  H14C 6523   5.595   5.129  10.963 -1.1153 -0.9915 -0.1402
   74SLPC   C15 6524   5.722   4.956  10.705  1.2055  0.3142 -0.8501
   74SLPC  H15A 6525   5.638   4.909  10.656  1.9948  0.0527 -1.9731
   74SLPC  H15B 6526   5.762   5.039  10.650 -0.8055  2.2889  0.4891
   74SLPC  H15C 6527   5.792   4.874  10.694  0.0515 -1.0979  1.3474
   74SLPC   C12 6528   5.850   5.037  10.900 -0.8010 -0.0635 -0.5417
   74SLPC  H12A 6529   5.917   4.953  10.913 -2.0438 -1.0554 -0.3970
   74SLPC  H12B 6530   5.832   5.074  11.000  0.0800  1.3038 -0.8549
   74SLPC   C11 6531   5.928   5.148  10.824  0.7172  0.5851 -0.6070
   74SLPC  H11A 6532   5.950   5.101  10.726  1.0344  1.5942 -1.0318
   74SLPC  H11B 6533   6.020   5.161  10.884  0.4989 -2.1646  0.4973
   74SLPC     P 6534   5.879   5.355  10.679 -0.2248 -0.2110  0.0108
   74SLPC   O13 6535   5.758   5.444  10.678  0.3997 -0.1544  0.8182
   74SLPC   O14 6536   6.012   5.421  10.695  0.1548  0.1308  0.3160
   74SLPC   O12 6537   5.856   5.265  10.799 -0.4349  0.2097  0.1285
   74SLPC   O11 6538   5.877   5.257  10.560  0.4524 -0.0160 -0.1934
   74SLPC    C1 6539   5.770   5.259  10.459 -0.4935 -0.0601  0.2094
   74SLPC    HA 6540   5.701   5.173  10.476 -2.8988  1.5094 -0.9738
   74SLPC    HB 6541   5.706   5.351  10.464 -0.6063 -0.1845  1.4542
   74SLPC    C2 6542   5.840   5.243  10.324  0.2719  0.1327 -0.2802
   74SLPC    HS 6543   5.902   5.151  10.339  0.3372  0.4116  1.2422
   74SLPC   O21 6544   5.920   5.358  10.290  0.5635  0.5216  0.4118
   74SLPC   C21 6545   6.049   5.342  10.250  0.9163  0.1874 -0.5423
   74SLPC   O22 6546   6.115   5.241  10.279  0.3466  0.5629  0.2524
   74SLPC   C22 6547   6.098   5.461  10.171 -0.9619  0.0686  0.4377
   74SLPC   H2R 6548   6.019   5.539  10.166 -0.3111  0.6727 -0.6931
   74SLPC   H2S 6549   6.188   5.500  10.224  2.7953 -2.8372 -3.1374
   74SLPC    C3 6550   5.740   5.205  10.207  0.5499 -0.1813  0.4085
   74SLPC    HX 6551   5.678   5.296  10.192  1.0987  0.3829  1.4641
   74SLPC    HY 6552   5.679   5.122  10.249  1.3807 -1.0171  0.0067
   74SLPC   O31 6553   5.815   5.169  10.080 -0.0253  0.3745 -0.2519
   74SLPC   C31 6554   5.821   5.038  10.052 -0.7716 -0.0149  0.3282
   74SLPC   O32 6555   5.795   4.947  10.127 -0.8111  0.6330  0.0693
   74SLPC   C32 6556   5.854   5.018   9.901  0.1376  0.5133 -0.3285
   74SLPC   H2X 6557   5.965   5.026   9.892  0.2774  1.9203  1.9812
   74SLPC   H2Y 6558   5.807   5.102   9.845 -2.0821 -0.6410 -0.2967
   74SLPC   C23 6559   6.146   5.417  10.024 -0.3810 -0.1388 -0.0403
   74SLPC   H3R 6560   6.182   5.313  10.043  0.2192  0.2118  0.8272
   74SLPC   H3S 6561   6.232   5.486  10.008 -1.5616  1.6236  0.8902
   74SLPC   C24 6562   6.032   5.427   9.923 -0.2498  0.4616 -0.1274
   74SLPC   H4R 6563   5.986   5.528   9.922  1.8411  1.4585 -0.0903
   74SLPC   H4S 6564   5.948   5.362   9.955  0.2282 -0.7127 -1.1966
   74SLPC   C25 6565   6.082   5.386   9.786 -0.2122  0.2209 -0.1268
   74SLPC   H5R 6566   6.112   5.280   9.778  2.1742  0.7459  1.0708
   74SLPC   H5S 6567   6.164   5.452   9.751  0.6034 -0.8337 -0.2540
   74SLPC   C26 6568   5.976   5.404   9.684 -0.3631 -0.0469  0.3194
   74SLPC   H6R 6569   5.937   5.506   9.662 -0.0832 -0.1995 -0.9609
   74SLPC   H6S 6570   5.893   5.338   9.715  0.3714  0.3277  3.4438
   74SLPC   C27 6571   6.024   5.344   9.544 -0.1370 -0.3516 -0.3367
   74SLPC   H7R 6572   6.055   5.239   9.563  1.5843  0.1632 -0.1124
   74SLPC   H7S 6573   6.117   5.401   9.521 -0.0373 -1.1194 -2.0016
   74SLPC   C28 6574   5.914   5.361   9.436  0.3765 -0.1039 -0.1617
   74SLPC   H8R 6575   5.828   5.297   9.464 -0.4591  0.8164 -0.5559
   74SLPC   H8S 6576   5.948   5.304   9.347 -0.1571 -0.4150 -0.1664
   74SLPC   C29 6577   5.860   5.500   9.407 -1.1180 -0.9495  0.0690
   74SLPC   H9R 6578   5.807   5.552   9.489 -1.8162 -1.4242 -0.0755
   74SLPC  C210 6579   5.878   5.561   9.290  0.0372  0.2163  0.2710
   74SLPC  H10R 6580   5.856   5.669   9.283 -1.2734 -0.0929 -0.8242
   74SLPC  C211 6581   5.939   5.506   9.165  0.0195  0.0892 -0.6188
   74SLPC  H11R 6582   5.911   5.399   9.152  1.9885 -0.2082 -3.1601
   74SLPC  H11S 6583   6.047   5.514   9.189  0.1976 -1.0814 -0.9572
   74SLPC  C212 6584   5.923   5.592   9.042 -0.7863  0.3971  0.1033
   74SLPC  H12R 6585   5.899   5.699   9.047  0.1641  0.8337 -2.8138
   74SLPC  C213 6586   5.934   5.547   8.914 -0.2288  0.2991  0.7011
   74SLPC  H13R 6587   5.937   5.621   8.832 -0.1448 -1.5636 -1.0617
   74SLPC  C214 6588   5.958   5.408   8.874 -0.5880 -0.0634  0.8828
   74SLPC  H14R 6589   5.857   5.376   8.843 -1.4040 -0.2828  3.5471
   74SLPC  H14S 6590   5.999   5.342   8.953 -0.3244  0.2052  0.9733
   74SLPC  C215 6591   6.057   5.393   8.755 -0.4962 -0.2142  0.3584
   74SLPC  H15R 6592   6.035   5.457   8.666  1.4586 -0.1246 -0.1242
   74SLPC  H15S 6593   6.042   5.285   8.734  1.7057 -0.6598  0.7797
   74SLPC  C216 6594   6.208   5.392   8.798  0.3038 -0.2526  0.6466
   74SLPC  H16R 6595   6.231   5.323   8.882 -2.0254 -1.5885  0.2766
   74SLPC  H16S 6596   6.244   5.491   8.834 -0.8216  0.2979  0.3179
   74SLPC  C217 6597   6.313   5.364   8.681 -0.2324 -0.0659 -0.2960
   74SLPC  H17R 6598   6.281   5.446   8.613 -0.8511  1.3914  1.6234
   74SLPC  H17S 6599   6.301   5.266   8.631  2.4434 -0.0422 -1.1091
   74SLPC  C218 6600   6.457   5.380   8.723 -0.1978  0.7034  0.1019
   74SLPC  H18R 6601   6.473   5.479   8.769  2.4057 -0.2447  1.4296
   74SLPC  H18S 6602   6.525   5.365   8.637  1.3113 -1.7068  1.5931
   74SLPC  H18T 6603   6.477   5.294   8.790 -0.9826 -0.0358 -0.5889
   74SLPC   C33 6604   5.803   4.881   9.841  0.4195  0.3532  0.1726
   74SLPC   H3X 6605   5.701   4.854   9.877  0.0376  0.3384 -0.8737
   74SLPC   H3Y 6606   5.868   4.799   9.877  2.8278  1.9668 -0.2072
   74SLPC   C34 6607   5.801   4.881   9.684 -0.0450  0.6557  0.3517
   74SLPC   H4X 6608   5.727   4.963   9.665  0.4761  1.7134  2.4712
   74SLPC   H4Y 6609   5.762   4.783   9.650  1.6406  0.7820 -2.1308
   74SLPC   C35 6610   5.940   4.902   9.630  0.2470 -0.0862  0.8667
   74SLPC   H5X 6611   6.011   4.835   9.684  0.1977  0.0712  1.1232
   74SLPC   H5Y 6612   5.965   5.009   9.646  2.0153 -0.4604  0.7981
   74SLPC   C36 6613   5.950   4.868   9.472  0.1715 -0.4866  0.3794
   74SLPC   H6X 6614   5.902   4.769   9.461 -0.4084 -0.4829  2.4309
   74SLPC   H6Y 6615   6.055   4.871   9.436 -0.4046 -1.1153 -1.4632
   74SLPC   C37 6616   5.867   4.963   9.386  0.6303 -0.3624 -0.3617
   74SLPC   H7X 6617   5.900   5.067   9.406  0.5527  0.2475 -3.0956
   74SLPC   H7Y 6618   5.764   4.945   9.426  0.3943 -1.5745 -1.4389
   74SLPC   C38 6619   5.872   4.936   9.234 -0.3372  0.8585  0.0559
   74SLPC   H8X 6620   5.781   4.961   9.176 -1.1113 -1.0950  0.3529
   74SLPC   H8Y 6621   5.872   4.825   9.230  0.6834  0.7819  1.2992
   74SLPC   C39 6622   6.014   4.957   9.175 -0.2390 -0.3429  0.7116
   74SLPC   H9X 6623   6.083   4.882   9.218  1.2441  1.1269  1.0167
   74SLPC   H9Y 6624   6.039   5.061   9.204 -0.2479  0.1063 -0.8100
   74SLPC  C310 6625   6.022   4.965   9.020 -0.5248 -0.0312  0.2583
   74SLPC  H10X 6626   5.968   5.057   8.987 -2.0370 -0.1263  2.2706
   74SLPC  H10Y 6627   5.967   4.888   8.960  0.0199  0.7946 -1.3682
   74SLPC  C311 6628   6.163   4.963   8.958 -0.1708  0.2647 -0.3456
   74SLPC  H11X 6629   6.209   4.864   8.982  0.4067  0.4403 -0.7167
   74SLPC  H11Y 6630   6.236   5.039   8.994  0.3693  0.6061 -2.0571
   74SLPC  C312 6631   6.154   4.975   8.807  0.0221  0.0097 -0.1977
   74SLPC  H12X 6632   6.073   5.042   8.771  0.8849  0.9743 -0.4315
   74SLPC  H12Y 6633   6.127   4.876   8.764  0.2793  0.7310 -2.1587
   74SLPC  C313 6634   6.290   5.031   8.749 -0.2316  0.2855 -0.0693
   74SLPC  H13X 6635   6.304   5.122   8.811 -1.0715 -1.7027  3.3556
   74SLPC  H13Y 6636   6.276   5.053   8.641  0.2989 -2.8593 -0.8838
   74SLPC  C314 6637   6.411   4.930   8.766 -0.5551 -0.3958 -0.5718
   74SLPC  H14X 6638   6.383   4.846   8.699 -1.2302 -0.9593  0.3941
   74SLPC  H14Y 6639   6.414   4.895   8.872  0.8881  0.5429 -0.2670
   74SLPC  C315 6640   6.542   4.992   8.707 -0.8683  0.0518 -0.1391
   74SLPC  H15X 6641   6.561   5.084   8.767  0.8638 -0.0045 -0.5430
   74SLPC  H15Y 6642   6.521   5.019   8.602 -0.7142 -1.8743 -0.7075
   74SLPC  C316 6643   6.663   4.890   8.720  0.4445 -0.0771  0.0590
   74SLPC  H16X 6644   6.653   4.800   8.656  1.2673 -1.0191  1.2085
   74SLPC  H16Y 6645   6.672   4.849   8.823  2.5429 -1.1727 -0.4915
   74SLPC  C317 6646   6.798   4.954   8.683 -0.3480 -0.9255 -0.2884
   74SLPC  H17X 6647   6.819   5.038   8.753  0.1684  0.0676 -1.5970
   74SLPC  H17Y 6648   6.788   4.997   8.582 -0.2992  1.1662  0.5465
   74SLPC  C318 6649   6.929   4.864   8.681 -0.2080 -0.2103 -0.2817
   74SLPC  H18X 6650   6.961   4.835   8.783  0.8984  1.2443 -0.1786
   74SLPC  H18Y 6651   7.013   4.917   8.629 -0.2665  1.3745  1.1474
   74SLPC  H18Z 6652   6.916   4.774   8.618  3.8544 -0.1315 -1.5672
   75SLPC     N 6653   3.609   0.250   6.202 -0.1059  0.8783 -0.4795
   75SLPC   C13 6654   3.670   0.150   6.115 -0.4547  0.2312  0.1552
   75SLPC  H13A 6655   3.681   0.186   6.015 -0.4267  0.0470  0.0912
   75SLPC  H13B 6656   3.766   0.121   6.154  0.1514  2.6666  0.6530
   75SLPC  H13C 6657   3.610   0.061   6.103  0.0952 -0.1809  0.3974
   75SLPC   C14 6658   3.473   0.288   6.142 -0.0025 -0.2650 -0.1079
   75SLPC  H14A 6659   3.426   0.195   6.114 -0.2576 -0.3792  0.6770
   75SLPC  H14B 6660   3.412   0.339   6.215 -0.3858  0.7517 -1.1138
   75SLPC  H14C 6661   3.491   0.352   6.057 -2.9225  0.7234 -0.1080
   75SLPC   C15 6662   3.695   0.380   6.205  0.3630 -0.5067 -0.0650
   75SLPC  H15A 6663   3.651   0.456   6.266  0.5067 -1.1424  0.8495
   75SLPC  H15B 6664   3.790   0.355   6.250 -0.3556 -0.4845  1.5085
   75SLPC  H15C 6665   3.704   0.417   6.104 -1.8915 -1.2341 -0.5869
   75SLPC   C12 6666   3.586   0.191   6.340  0.1757  0.1890  0.1509
   75SLPC  H12A 6667   3.526   0.262   6.395  0.4387 -0.6958  1.6441
   75SLPC  H12B 6668   3.676   0.180   6.399 -0.4711 -2.4374  0.7998
   75SLPC   C11 6669   3.498   0.061   6.349  0.2573  0.4862 -0.1895
   75SLPC  H11A 6670   3.522   0.003   6.441  0.2375  2.7059  1.2879
   75SLPC  H11B 6671   3.530  -0.008   6.267  0.0961  2.3122 -1.8709
   75SLPC     P 6672   3.276   0.157   6.457  0.3549  0.0217 -0.2536
   75SLPC   O13 6673   3.370   0.206   6.562 -0.2647 -0.0963  0.5388
   75SLPC   O14 6674   3.189   0.259   6.400 -0.5123 -0.2368  0.1550
   75SLPC   O12 6675   3.357   0.097   6.333 -0.1647  0.0983  0.1971
   75SLPC   O11 6676   3.184   0.041   6.511 -0.8321  0.0254 -0.0474
   75SLPC    C1 6677   3.233  -0.074   6.572  0.2860  0.5902  0.5414
   75SLPC    HA 6678   3.154  -0.151   6.555 -0.8065  1.8669 -0.4529
   75SLPC    HB 6679   3.333  -0.101   6.533 -0.4686  1.3747 -2.2088
   75SLPC    C2 6680   3.236  -0.066   6.729 -0.3773 -0.4541  0.3033
   75SLPC    HS 6681   3.338  -0.027   6.751 -0.6253  0.9319 -0.8699
   75SLPC   O21 6682   3.209  -0.196   6.783 -0.1648  0.0256 -0.1697
   75SLPC   C21 6683   3.314  -0.271   6.809  0.1027  0.3850  0.9048
   75SLPC   O22 6684   3.430  -0.252   6.784  0.0993  0.0263 -0.0560
   75SLPC   C22 6685   3.253  -0.401   6.872 -0.0656 -0.4933 -0.0157
   75SLPC   H2R 6686   3.248  -0.468   6.783 -3.5138  0.0836 -0.4179
   75SLPC   H2S 6687   3.333  -0.442   6.936 -0.2188 -1.1504 -0.2392
   75SLPC    C3 6688   3.150   0.047   6.790  0.5439 -0.7342 -0.1529
   75SLPC    HX 6689   3.041   0.031   6.771  0.3734 -0.4831  0.6101
   75SLPC    HY 6690   3.189   0.131   6.728  1.1930 -0.4608  0.6195
   75SLPC   O31 6691   3.170   0.064   6.931 -0.2384 -0.7985  0.1611
   75SLPC   C31 6692   3.282   0.120   6.963  0.0860 -0.7834 -0.4059
   75SLPC   O32 6693   3.374   0.164   6.897  0.1380  0.3395 -0.3832
   75SLPC   C32 6694   3.297   0.117   7.120 -0.1951 -0.0124 -0.1617
   75SLPC   H2X 6695   3.192   0.127   7.156  0.3213  2.2302  0.9324
   75SLPC   H2Y 6696   3.356   0.207   7.146  0.8219 -1.3525  2.6961
   75SLPC   C23 6697   3.113  -0.397   6.937 -0.4170  0.2536 -0.6545
   75SLPC   H3R 6698   3.071  -0.499   6.929  0.6367 -0.3309  0.8236
   75SLPC   H3S 6699   3.040  -0.328   6.889 -3.9269 -0.3811  3.2247
   75SLPC   C24 6700   3.122  -0.379   7.091  0.4006  0.2784 -0.8190
   75SLPC   H4R 6701   3.189  -0.293   7.109  0.7221 -0.4006  1.5490
   75SLPC   H4S 6702   3.170  -0.474   7.124 -0.2350 -0.3294 -1.5747
   75SLPC   C25 6703   2.982  -0.343   7.160 -0.2031 -0.1997 -0.0255
   75SLPC   H5R 6704   2.907  -0.401   7.102  1.1082  0.9244 -3.0514
   75SLPC   H5S 6705   2.970  -0.237   7.129  0.5745  0.1395  0.7903
   75SLPC   C26 6706   2.974  -0.374   7.310  0.1768 -0.1705 -0.4871
   75SLPC   H6R 6707   3.034  -0.301   7.369 -0.1781 -0.1178 -0.1935
   75SLPC   H6S 6708   3.005  -0.480   7.323 -1.9043 -0.5456  1.9732
   75SLPC   C27 6709   2.833  -0.372   7.370  0.4313  0.0787 -0.3098
   75SLPC   H7R 6710   2.764  -0.429   7.304  3.2597 -2.2652 -1.4707
   75SLPC   H7S 6711   2.808  -0.265   7.350  1.3209  0.3410 -0.0786
   75SLPC   C28 6712   2.815  -0.409   7.518 -0.3243 -0.6130 -0.3037
   75SLPC   H8R 6713   2.868  -0.505   7.528  0.8783 -0.0122 -0.7573
   75SLPC   H8S 6714   2.704  -0.421   7.516 -0.6333  1.5518 -3.0285
   75SLPC   C29 6715   2.863  -0.301   7.614  0.8745  0.2999  0.6878
   75SLPC   H9R 6716   2.799  -0.212   7.607  0.2907 -0.1619 -0.0366
   75SLPC  C210 6717   2.961  -0.306   7.699  0.5555  0.1459  0.1305
   75SLPC  H10R 6718   2.980  -0.213   7.754 -1.8412  0.0922  1.1625
   75SLPC  C211 6719   3.053  -0.419   7.734  0.4960  0.9020  0.0209
   75SLPC  H11R 6720   2.991  -0.512   7.736 -1.9726  2.4453  0.1743
   75SLPC  H11S 6721   3.079  -0.402   7.840  0.9357 -2.3191  0.5453
   75SLPC  C212 6722   3.174  -0.424   7.641  0.3487  0.7817 -0.2868
   75SLPC  H12R 6723   3.154  -0.465   7.541  0.8598  1.8671 -0.8376
   75SLPC  C213 6724   3.304  -0.390   7.680  0.0472 -0.0978 -0.1379
   75SLPC  H13R 6725   3.382  -0.398   7.603  2.0033  3.8339  1.2073
   75SLPC  C214 6726   3.368  -0.338   7.815  0.3351 -0.1752  0.5704
   75SLPC  H14R 6727   3.286  -0.285   7.868  0.5185  0.3398  0.3404
   75SLPC  H14S 6728   3.436  -0.255   7.785 -1.0938  0.5949 -0.6863
   75SLPC  C215 6729   3.417  -0.449   7.911 -0.1317 -0.0443 -0.4999
   75SLPC  H15R 6730   3.510  -0.486   7.862  0.0078  0.9083 -0.9860
   75SLPC  H15S 6731   3.338  -0.522   7.938  0.1552 -0.0158  0.4545
   75SLPC  C216 6732   3.467  -0.391   8.039  1.1574  0.4078  0.0587
   75SLPC  H16R 6733   3.394  -0.324   8.089  1.6405  0.2684  0.9842
   75SLPC  H16S 6734   3.556  -0.331   8.009  1.2156  0.2334 -0.1197
   75SLPC  C217 6735   3.514  -0.494   8.139 -0.7399 -0.0112 -0.4984
   75SLPC  H17R 6736   3.580  -0.570   8.092  1.8372  0.7946  1.5577
   75SLPC  H17S 6737   3.429  -0.556   8.174 -0.8470  1.0817  1.3302
   75SLPC  C218 6738   3.574  -0.449   8.273 -0.1434  0.6229  0.5308
   75SLPC  H18R 6739   3.604  -0.539   8.330 -0.8356  0.3303  0.4440
   75SLPC  H18S 6740   3.487  -0.404   8.326 -2.4461  0.1084 -2.5241
   75SLPC  H18T 6741   3.656  -0.375   8.261  0.2021  0.1230 -0.2426
   75SLPC   C33 6742   3.357  -0.020   7.168  0.4584 -0.1454  0.0007
   75SLPC   H3X 6743   3.332  -0.107   7.105 -0.0681 -0.5224  0.7194
   75SLPC   H3Y 6744   3.468  -0.018   7.168  0.5018 -1.5787 -0.6445
   75SLPC   C34 6745   3.311  -0.063   7.306 -0.4162 -0.1480 -0.0432
   75SLPC   H4X 6746   3.363  -0.157   7.334 -0.5905  0.0755  1.0594
   75SLPC   H4Y 6747   3.201  -0.071   7.292 -0.2042 -1.5270 -1.1449
   75SLPC   C35 6748   3.330   0.043   7.412 -0.3240  0.2483 -0.2375
   75SLPC   H5X 6749   3.250   0.118   7.397  0.2018  1.0084  0.6905
   75SLPC   H5Y 6750   3.421   0.105   7.399  0.1144 -0.6585 -1.8253
   75SLPC   C36 6751   3.312  -0.010   7.556 -0.0022  0.0536  0.0473
   75SLPC   H6X 6752   3.376  -0.100   7.569 -1.6019 -0.8168  2.6936
   75SLPC   H6Y 6753   3.210  -0.050   7.569  1.2721 -2.9569  1.7396
   75SLPC   C37 6754   3.360   0.095   7.660 -0.0943  0.2770 -0.3355
   75SLPC   H7X 6755   3.315   0.194   7.636 -2.3914 -0.3077  1.1990
   75SLPC   H7Y 6756   3.470   0.089   7.643 -0.4465 -0.5813 -2.6741
   75SLPC   C38 6757   3.322   0.053   7.812  0.0155 -0.3455  0.2089
   75SLPC   H8X 6758   3.317  -0.058   7.808  0.6103 -0.3702  0.0587
   75SLPC   H8Y 6759   3.227   0.097   7.849  0.1774 -1.2184  1.7143
   75SLPC   C39 6760   3.428   0.091   7.919 -0.9154 -0.3034  0.2347
   75SLPC   H9X 6761   3.427   0.202   7.924 -2.2851 -0.2038 -1.4460
   75SLPC   H9Y 6762   3.531   0.061   7.890 -1.2501 -0.8360 -0.4288
   75SLPC  C310 6763   3.399   0.034   8.060 -0.7543 -0.2128  0.3197
   75SLPC  H10X 6764   3.415  -0.076   8.055  1.3267  0.0390  0.5935
   75SLPC  H10Y 6765   3.298   0.071   8.086  0.0086  0.4151  2.7101
   75SLPC  C311 6766   3.496   0.089   8.166  0.0910  0.7519 -0.1582
   75SLPC  H11X 6767   3.450   0.176   8.218 -1.3299 -1.6009  2.8360
   75SLPC  H11Y 6768   3.578   0.131   8.104  0.9122  1.4839  1.3637
   75SLPC  C312 6769   3.543  -0.009   8.272 -0.3301  0.0927 -0.1469
   75SLPC  H12X 6770   3.580  -0.100   8.220  0.2790  0.5262 -0.4771
   75SLPC  H12Y 6771   3.450  -0.030   8.330 -0.2410 -0.6404 -0.2609
   75SLPC  C313 6772   3.647   0.041   8.374 -0.3272 -0.5491 -0.4510
   75SLPC  H13X 6773   3.662  -0.025   8.462 -2.3873 -0.0898  0.2990
   75SLPC  H13Y 6774   3.622   0.141   8.417  1.6569  0.0213 -0.5017
   75SLPC  C314 6775   3.782   0.055   8.310 -0.1832 -0.7357 -0.1086
   75SLPC  H14X 6776   3.785   0.118   8.219  0.4771 -0.8088 -0.1376
   75SLPC  H14Y 6777   3.823  -0.041   8.273  2.7544  0.3744 -0.0089
   75SLPC  C315 6778   3.887   0.101   8.410 -0.0165 -0.5196 -0.3965
   75SLPC  H15X 6779   3.874   0.046   8.506  0.7588 -1.0091 -0.5668
   75SLPC  H15Y 6780   3.872   0.206   8.446  4.0924  0.1874 -0.3214
   75SLPC  C316 6781   4.027   0.095   8.361  0.8554 -0.5865  0.9303
   75SLPC  H16X 6782   4.022   0.110   8.251  0.6140 -1.0324  0.8824
   75SLPC  H16Y 6783   4.060  -0.009   8.381 -2.0318 -1.2461  2.8388
   75SLPC  C317 6784   4.111   0.201   8.422 -0.0692  0.1272 -0.5245
   75SLPC  H17X 6785   4.119   0.196   8.533 -1.2690 -1.0889 -0.4707
   75SLPC  H17Y 6786   4.071   0.301   8.395  1.3460  0.7583 -0.3476
   75SLPC  C318 6787   4.247   0.195   8.360  0.6156 -0.5086  0.0656
   75SLPC  H18X 6788   4.258   0.220   8.252 -1.2595  1.2702  0.2265
   75SLPC  H18Y 6789   4.308   0.105   8.383  1.6503  0.6479  2.0752
   75SLPC  H18Z 6790   4.314   0.273   8.401 -0.9806  1.0027 -0.0566
   76SLPC     N 6791   6.086   5.765   5.843  0.0946 -0.1046 -0.1179
   76SLPC   C13 6792   5.936   5.742   5.869 -0.7936 -0.0354 -0.2405
   76SLPC  H13A 6793   5.901   5.776   5.965 -3.0576  0.5409 -1.2113
   76SLPC  H13B 6794   5.881   5.774   5.782  1.1352  3.7459 -0.2676
   76SLPC  H13C 6795   5.936   5.635   5.884  2.0011 -0.0677  0.1174
   76SLPC   C14 6796   6.092   5.913   5.825  0.0841 -0.5555  0.2959
   76SLPC  H14A 6797   6.190   5.942   5.790  0.8143 -1.7526  1.2335
   76SLPC  H14B 6798   6.013   5.954   5.764 -0.8472  0.1908  1.9137
   76SLPC  H14C 6799   6.075   5.960   5.921  1.9582 -0.2756  0.5307
   76SLPC   C15 6800   6.113   5.710   5.707 -0.3056 -0.5403  0.2352
   76SLPC  H15A 6801   6.212   5.727   5.668 -0.7939  0.8636 -0.4594
   76SLPC  H15B 6802   6.102   5.602   5.705  2.2144 -0.8556  0.0352
   76SLPC  H15C 6803   6.050   5.756   5.632 -0.9684  1.3197  1.8658
   76SLPC   C12 6804   6.170   5.716   5.954 -0.2850  0.1372 -0.1487
   76SLPC  H12A 6805   6.172   5.608   5.956 -3.6785 -0.0294  2.4913
   76SLPC  H12B 6806   6.114   5.742   6.043 -0.4676  0.9448 -0.4950
   76SLPC   C11 6807   6.315   5.774   5.976  0.3598  0.1374  0.1392
   76SLPC  H11A 6808   6.357   5.760   5.875  1.2355 -0.6897  0.6052
   76SLPC  H11B 6809   6.365   5.695   6.035 -1.4195 -0.8764  0.3514
   76SLPC     P 6810   6.293   5.949   6.171 -0.5345 -0.3259 -0.2898
   76SLPC   O13 6811   6.343   6.084   6.193  0.1641 -0.2180  0.3999
   76SLPC   O14 6812   6.153   5.916   6.201 -0.0027 -0.2033  0.0271
   76SLPC   O12 6813   6.321   5.913   6.020 -0.2784 -0.2507  0.1079
   76SLPC   O11 6814   6.391   5.847   6.241  0.1655 -0.2384 -0.1834
   76SLPC    C1 6815   6.418   5.864   6.385  0.4095  0.4645  1.1004
   76SLPC    HA 6816   6.517   5.825   6.416  1.1209  1.6790  0.4328
   76SLPC    HB 6817   6.405   5.969   6.420  1.3087  1.6423 -1.8125
   76SLPC    C2 6818   6.307   5.778   6.458 -0.2195 -0.6666 -0.4533
   76SLPC    HS 6819   6.213   5.837   6.462  0.4569  0.3979  0.2975
   76SLPC   O21 6820   6.351   5.749   6.592  0.6568 -0.3470  0.0621
   76SLPC   C21 6821   6.335   5.857   6.673  0.4410 -0.7482 -0.0063
   76SLPC   O22 6822   6.295   5.969   6.642  0.8050 -0.1534  0.1604
   76SLPC   C22 6823   6.369   5.815   6.818 -0.2263 -0.4409  0.0563
   76SLPC   H2R 6824   6.300   5.731   6.842  1.1330 -2.1246 -1.5731
   76SLPC   H2S 6825   6.475   5.783   6.827 -0.0321  0.5138  1.4072
   76SLPC    C3 6826   6.273   5.648   6.383  0.8806  0.5295 -0.1479
   76SLPC    HX 6827   6.365   5.598   6.345  0.2954  0.1527 -1.1134
   76SLPC    HY 6828   6.215   5.659   6.289  0.1148 -0.8913  0.1342
   76SLPC   O31 6829   6.213   5.549   6.468  0.0758  0.1340  0.5791
   76SLPC   C31 6830   6.090   5.577   6.521  0.1017 -0.0946  0.3436
   76SLPC   O32 6831   6.032   5.684   6.509 -0.5147 -0.1746  0.0754
   76SLPC   C32 6832   6.055   5.475   6.632  0.2565 -0.8653 -0.5069
   76SLPC   H2X 6833   6.154   5.426   6.645  2.7147  3.2314 -1.8939
   76SLPC   H2Y 6834   5.985   5.404   6.584 -0.0996  0.2988 -1.7781
   76SLPC   C23 6835   6.342   5.924   6.929  0.6548  0.3240  0.0859
   76SLPC   H3R 6836   6.235   5.949   6.919  0.7561  0.5311 -0.5495
   76SLPC   H3S 6837   6.408   6.014   6.922  0.4161  0.4227 -1.3121
   76SLPC   C24 6838   6.366   5.845   7.063 -0.3137  0.2202  0.0221
   76SLPC   H4R 6839   6.470   5.807   7.054 -0.6714 -0.7776  0.0619
   76SLPC   H4S 6840   6.303   5.754   7.055  0.9186 -0.5131 -2.5206
   76SLPC   C25 6841   6.347   5.914   7.195 -0.0675 -0.4313  0.6053
   76SLPC   H5R 6842   6.241   5.949   7.197  0.4529  1.2341  0.5541
   76SLPC   H5S 6843   6.414   6.002   7.199  1.5638 -1.6388  0.6944
   76SLPC   C26 6844   6.383   5.825   7.315  0.3225  1.0288 -0.3400
   76SLPC   H6R 6845   6.494   5.823   7.311  0.3410 -1.2195  0.1724
   76SLPC   H6S 6846   6.333   5.727   7.305  1.4783  0.5588 -1.7741
   76SLPC   C27 6847   6.340   5.887   7.447  0.2211  0.0878 -0.3661
   76SLPC   H7R 6848   6.230   5.899   7.442  0.2430  0.5512  0.1181
   76SLPC   H7S 6849   6.385   5.988   7.456  1.3629 -0.2037 -2.3831
   76SLPC   C28 6850   6.384   5.795   7.568  0.2390 -0.0369 -0.8552
   76SLPC   H8R 6851   6.368   5.691   7.530  0.0311  0.1785 -1.3739
   76SLPC   H8S 6852   6.495   5.804   7.567  0.2308  0.1786 -2.4626
   76SLPC   C29 6853   6.328   5.830   7.706 -0.4169  0.1759  0.7155
   76SLPC   H9R 6854   6.251   5.909   7.710  1.6706  2.3965 -0.1378
   76SLPC  C210 6855   6.388   5.798   7.823  0.4612 -0.2978  0.1631
   76SLPC  H10R 6856   6.349   5.829   7.921  2.4948  0.8954  0.6585
   76SLPC  C211 6857   6.510   5.709   7.835 -0.2994 -0.8404 -0.0724
   76SLPC  H11R 6858   6.583   5.765   7.899  0.0329  0.1090 -1.2577
   76SLPC  H11S 6859   6.558   5.681   7.739 -0.9676 -0.2562 -0.5806
   76SLPC  C212 6860   6.471   5.577   7.895 -0.0447 -0.2846 -0.1584
   76SLPC  H12R 6861   6.380   5.533   7.853  0.1297 -1.0331  0.2228
   76SLPC  C213 6862   6.536   5.497   7.982  0.3616 -0.4065  0.0804
   76SLPC  H13R 6863   6.485   5.406   8.016  0.0543 -1.3561 -2.6520
   76SLPC  C214 6864   6.667   5.521   8.050 -0.9468 -0.0107 -0.5438
   76SLPC  H14R 6865   6.660   5.502   8.160  0.9394 -2.4575 -0.7495
   76SLPC  H14S 6866   6.701   5.626   8.037 -2.5507  1.0559  2.7659
   76SLPC  C215 6867   6.789   5.434   7.996  0.8174 -0.8655  0.6792
   76SLPC  H15R 6868   6.818   5.451   7.890  1.5681 -1.6260  0.7474
   76SLPC  H15S 6869   6.760   5.326   8.001 -0.3120 -0.6275 -0.2426
   76SLPC  C216 6870   6.913   5.458   8.080 -0.2865  0.2109  0.6466
   76SLPC  H16R 6871   6.881   5.417   8.178 -0.4971 -4.0858 -1.0268
   76SLPC  H16S 6872   6.941   5.566   8.079  2.8629 -0.4968  0.4901
   76SLPC  C217 6873   7.034   5.377   8.032 -0.4772  0.1196 -0.0564
   76SLPC  H17R 6874   7.003   5.271   8.047  0.9026 -0.3381 -0.3182
   76SLPC  H17S 6875   7.122   5.388   8.098 -1.1754  1.1210  0.7427
   76SLPC  C218 6876   7.081   5.390   7.894 -0.0800 -0.5690  0.3968
   76SLPC  H18R 6877   7.179   5.341   7.877  0.1889  0.4882 -1.3246
   76SLPC  H18S 6878   7.092   5.495   7.859 -0.4671 -1.1795 -1.6677
   76SLPC  H18T 6879   7.010   5.349   7.819  2.7356 -0.3508 -2.5669
   76SLPC   C33 6880   5.985   5.539   6.761 -0.1092  0.0641  0.1457
   76SLPC   H3X 6881   5.897   5.598   6.728  0.9789  1.8761  0.3444
   76SLPC   H3Y 6882   6.063   5.609   6.800  3.5302 -3.9315  0.7810
   76SLPC   C34 6883   5.960   5.432   6.874  0.3331  0.1893  0.2265
   76SLPC   H4X 6884   5.911   5.344   6.827  1.5667  1.4040 -3.7877
   76SLPC   H4Y 6885   5.896   5.482   6.950 -0.6441 -0.0134 -0.4492
   76SLPC   C35 6886   6.089   5.376   6.924  0.2991  0.1811 -0.6158
   76SLPC   H5X 6887   6.154   5.453   6.971 -0.3170 -0.0828  0.7311
   76SLPC   H5Y 6888   6.141   5.336   6.834 -0.3381  1.8141 -1.7431
   76SLPC   C36 6889   6.067   5.266   7.023 -0.7859 -0.0843 -0.2868
   76SLPC   H6X 6890   6.169   5.229   7.050  0.5636  2.5433 -1.4278
   76SLPC   H6Y 6891   6.013   5.180   6.979  0.7236 -0.7000 -1.0233
   76SLPC   C37 6892   6.000   5.302   7.158 -0.4655  0.6237  0.3841
   76SLPC   H7X 6893   5.989   5.211   7.222 -0.4391  1.0105  0.9472
   76SLPC   H7Y 6894   5.905   5.357   7.141 -0.2881  0.8192  0.0343
   76SLPC   C38 6895   6.095   5.391   7.247 -0.2241  0.1741  0.3167
   76SLPC   H8X 6896   6.107   5.485   7.188  0.4880 -1.0926 -1.6688
   76SLPC   H8Y 6897   6.196   5.347   7.256  0.3989  1.7743  1.4994
   76SLPC   C39 6898   6.053   5.416   7.395  0.8406  0.2443  0.2717
   76SLPC   H9X 6899   6.036   5.320   7.450  0.5128 -0.1007 -0.4231
   76SLPC   H9Y 6900   5.952   5.463   7.400  0.3533 -0.5590 -1.2398
   76SLPC  C310 6901   6.138   5.511   7.483 -0.3485 -0.0488  0.3928
   76SLPC  H10X 6902   6.139   5.611   7.433 -0.2719 -0.5103 -0.5541
   76SLPC  H10Y 6903   6.243   5.473   7.483 -0.5931 -0.7314  0.7426
   76SLPC  C311 6904   6.080   5.519   7.622 -0.2116 -0.3056 -0.1605
   76SLPC  H11X 6905   5.970   5.510   7.607 -0.0947  1.0363 -2.1519
   76SLPC  H11Y 6906   6.117   5.614   7.667 -0.8652  0.3556 -0.9969
   76SLPC  C312 6907   6.129   5.411   7.724 -0.4760 -0.1742  0.1615
   76SLPC  H12X 6908   6.236   5.390   7.704 -0.8453 -0.2667 -1.9837
   76SLPC  H12Y 6909   6.067   5.323   7.694 -0.5569  0.0134 -0.2327
   76SLPC  C313 6910   6.097   5.457   7.864 -0.4760 -0.3775 -1.0840
   76SLPC  H13X 6911   5.988   5.473   7.877 -0.9212 -0.4304 -4.1085
   76SLPC  H13Y 6912   6.153   5.551   7.879 -1.2990 -0.2551  1.9728
   76SLPC  C314 6913   6.158   5.356   7.968  0.2087 -0.4187  0.1715
   76SLPC  H14X 6914   6.268   5.354   7.954  0.0327  1.3219 -2.0510
   76SLPC  H14Y 6915   6.129   5.252   7.945 -0.4096 -0.0771 -0.6142
   76SLPC  C315 6916   6.149   5.407   8.120  0.7238 -0.2410  0.7309
   76SLPC  H15X 6917   6.043   5.426   8.148  1.1867  2.3702  0.9574
   76SLPC  H15Y 6918   6.208   5.501   8.106 -0.6933  0.3357 -2.0261
   76SLPC  C316 6919   6.212   5.316   8.225  0.0741 -0.1848 -0.6794
   76SLPC  H16X 6920   6.205   5.356   8.329 -1.0045 -3.6661  0.7443
   76SLPC  H16Y 6921   6.317   5.304   8.192  0.9742 -1.3385  2.2468
   76SLPC  C317 6922   6.150   5.173   8.225 -0.1317 -0.0551 -0.0077
   76SLPC  H17X 6923   6.191   5.125   8.134 -0.6515  2.3746 -1.6406
   76SLPC  H17Y 6924   6.039   5.176   8.218 -0.2708 -2.3165  0.6697
   76SLPC  C318 6925   6.192   5.097   8.354  0.3329  0.0917  0.7399
   76SLPC  H18X 6926   6.160   4.991   8.344 -1.1208  0.5870 -0.1271
   76SLPC  H18Y 6927   6.136   5.144   8.438 -0.8035  2.3716 -1.1775
   76SLPC  H18Z 6928   6.302   5.096   8.370  0.5933 -0.5261 -0.8883
   77SLPC     N 6929   0.324   0.426   6.218 -0.4458  0.1673 -0.0712
   77SLPC   C13 6930   0.233   0.311   6.224 -0.8014  0.2993  0.3812
   77SLPC  H13A 6931   0.257   0.250   6.310 -1.9422 -0.2296  0.3509
   77SLPC  H13B 6932   0.127   0.333   6.225 -1.0266 -0.7127  0.8770
   77SLPC  H13C 6933   0.256   0.249   6.139 -0.9205  0.4885  0.2107
   77SLPC   C14 6934   0.261   0.508   6.111  0.0785 -0.4682  0.3655
   77SLPC  H14A 6935   0.318   0.600   6.101 -0.1410 -0.2571  1.0004
   77SLPC  H14B 6936   0.259   0.448   6.022 -1.1273 -1.0518  0.7672
   77SLPC  H14C 6937   0.160   0.533   6.143 -0.3997  1.2668 -2.1640
   77SLPC   C15 6938   0.469   0.392   6.183  0.5112  0.3785 -0.4435
   77SLPC  H15A 6939   0.527   0.483   6.181 -1.6187  1.8009 -0.7193
   77SLPC  H15B 6940   0.515   0.330   6.258 -1.6198 -0.7135  0.0463
   77SLPC  H15C 6941   0.476   0.343   6.087 -1.1281  0.4803 -0.6518
   77SLPC   C12 6942   0.325   0.505   6.343 -0.0981  0.2723 -0.3048
   77SLPC  H12A 6943   0.223   0.530   6.368 -0.2922 -0.7810  0.0185
   77SLPC  H12B 6944   0.374   0.600   6.328 -0.7946  0.6707 -0.0937
   77SLPC   C11 6945   0.383   0.438   6.468 -0.6520 -0.3717  0.1123
   77SLPC  H11A 6946   0.370   0.509   6.552 -1.8566 -0.8191  0.3301
   77SLPC  H11B 6947   0.491   0.419   6.452 -0.7167 -0.4863 -0.2069
   77SLPC     P 6948   0.374   0.191   6.580 -0.1482 -0.0864 -0.3655
   77SLPC   O13 6949   0.309   0.068   6.519 -0.2556 -0.5878 -0.1507
   77SLPC   O14 6950   0.522   0.188   6.588 -0.3610 -0.6533 -0.2474
   77SLPC   O12 6951   0.316   0.319   6.509  0.0448  0.6236 -0.7820
   77SLPC   O11 6952   0.326   0.214   6.727  0.6753  0.0915  0.1516
   77SLPC    C1 6953   0.225   0.312   6.760 -0.2927 -0.6927  0.5317
   77SLPC    HA 6954   0.246   0.416   6.730 -2.0733  0.5789  3.2663
   77SLPC    HB 6955   0.134   0.297   6.698  0.0834  0.2747 -0.2725
   77SLPC    C2 6956   0.194   0.316   6.909 -0.0009  0.2016 -0.2563
   77SLPC    HS 6957   0.160   0.418   6.938 -4.8949 -1.7881  2.2142
   77SLPC   O21 6958   0.297   0.275   6.997  0.7567  0.3575 -0.9266
   77SLPC   C21 6959   0.417   0.332   6.989 -0.6977  0.0685  0.1094
   77SLPC   O22 6960   0.440   0.441   6.941  0.1273 -0.2765  1.0327
   77SLPC   C22 6961   0.512   0.229   7.043  0.1579  0.2987 -0.1084
   77SLPC   H2R 6962   0.478   0.126   7.021  0.3804 -0.0147  0.9301
   77SLPC   H2S 6963   0.615   0.253   7.008 -0.4235  0.8474 -1.4951
   77SLPC    C3 6964   0.068   0.226   6.921  0.1306  0.0247 -0.8275
   77SLPC    HX 6965   0.087   0.126   6.877  0.2615  0.1890 -1.1503
   77SLPC    HY 6966  -0.017   0.272   6.866 -1.6100 -1.3126  0.5910
   77SLPC   O31 6967   0.035   0.210   7.062 -0.0147  0.4154 -0.5921
   77SLPC   C31 6968   0.101   0.116   7.129 -0.2306 -0.6086  0.3155
   77SLPC   O32 6969   0.151   0.017   7.081 -0.3588  0.5986 -0.1124
   77SLPC   C32 6970   0.101   0.157   7.281 -0.1690 -0.3030 -0.1945
   77SLPC   H2X 6971  -0.008   0.167   7.303 -0.8737 -1.3187 -2.8413
   77SLPC   H2Y 6972   0.149   0.255   7.301 -2.5178  0.6970  0.9885
   77SLPC   C23 6973   0.507   0.234   7.202 -0.2885  0.0972  0.9760
   77SLPC   H3R 6974   0.578   0.160   7.246  1.7975  2.5722  2.0468
   77SLPC   H3S 6975   0.403   0.210   7.234 -1.5821  3.6799 -0.1506
   77SLPC   C24 6976   0.560   0.373   7.246  0.2547 -1.0939 -0.6839
   77SLPC   H4R 6977   0.491   0.453   7.210 -0.9108 -1.8281 -0.1321
   77SLPC   H4S 6978   0.663   0.401   7.215 -0.0831  2.4266  0.9359
   77SLPC   C25 6979   0.558   0.383   7.401  0.0055  0.3307 -0.5635
   77SLPC   H5R 6980   0.462   0.333   7.427  1.8595 -3.1803  0.0938
   77SLPC   H5S 6981   0.553   0.488   7.437  1.3685  0.9533 -2.0949
   77SLPC   C26 6982   0.682   0.314   7.466 -0.1010  0.5364 -0.7725
   77SLPC   H6R 6983   0.775   0.341   7.412  1.0902 -0.8408  0.5239
   77SLPC   H6S 6984   0.661   0.205   7.473 -0.4330  0.4868 -2.1229
   77SLPC   C27 6985   0.706   0.359   7.615  1.0170 -0.4033  0.1437
   77SLPC   H7R 6986   0.693   0.470   7.622 -1.1461 -0.5032 -1.3400
   77SLPC   H7S 6987   0.813   0.331   7.626  1.6051  2.0727  1.6508
   77SLPC   C28 6988   0.612   0.295   7.723  0.1844 -0.6098  0.1946
   77SLPC   H8R 6989   0.636   0.187   7.716 -0.5714 -0.7832  0.0990
   77SLPC   H8S 6990   0.505   0.311   7.696  0.4256 -0.3692 -0.6596
   77SLPC   C29 6991   0.641   0.346   7.862 -0.2130  0.6539  0.1259
   77SLPC   H9R 6992   0.583   0.433   7.897  0.1657  0.3610  1.5347
   77SLPC  C210 6993   0.719   0.288   7.951 -0.6427  0.4659  0.3127
   77SLPC  H10R 6994   0.729   0.324   8.055  0.5216 -0.4478  0.5289
   77SLPC  C211 6995   0.785   0.152   7.937 -0.1325 -0.6320  0.0411
   77SLPC  H11R 6996   0.895   0.154   7.953 -0.2915  1.7413  1.4314
   77SLPC  H11S 6997   0.773   0.113   7.834 -1.9780  2.7720 -1.1835
   77SLPC  C212 6998   0.720   0.047   8.023 -0.7759  0.3999  0.2300
   77SLPC  H12R 6999   0.624   0.020   7.976  1.2023 -1.7608 -2.9387
   77SLPC  C213 7000   0.782  -0.014   8.128 -0.2023 -0.2095 -0.0809
   77SLPC  H13R 7001   0.736  -0.096   8.184 -0.3255 -0.6311 -0.7841
   77SLPC  C214 7002   0.916   0.025   8.184  0.7571 -0.4921 -0.6371
   77SLPC  H14R 7003   0.975   0.101   8.129 -0.9835  1.5015  0.1276
   77SLPC  H14S 7004   0.976  -0.068   8.197  0.3690 -1.1151 -2.9022
   77SLPC  C215 7005   0.886   0.092   8.323  0.8828 -0.5415  0.4472
   77SLPC  H15R 7006   0.980   0.119   8.376  0.5022 -0.3475  1.0270
   77SLPC  H15S 7007   0.829   0.020   8.384 -2.0807  0.5777 -0.8126
   77SLPC  C216 7008   0.796   0.223   8.316 -0.7029  0.4613  0.0044
   77SLPC  H16R 7009   0.699   0.190   8.274  1.0203 -4.5011 -0.7371
   77SLPC  H16S 7010   0.840   0.298   8.248 -1.7132  2.4486  1.4304
   77SLPC  C217 7011   0.773   0.298   8.451  0.0385 -0.1294 -0.3361
   77SLPC  H17R 7012   0.876   0.310   8.491 -0.8420  1.0466  1.7766
   77SLPC  H17S 7013   0.711   0.234   8.518 -0.8831 -1.1920 -2.1261
   77SLPC  C218 7014   0.700   0.431   8.426 -0.4491 -0.1473 -0.0766
   77SLPC  H18R 7015   0.626   0.425   8.344 -1.2970  1.1263  0.5594
   77SLPC  H18S 7016   0.774   0.508   8.395  1.4910 -1.6251  0.6185
   77SLPC  H18T 7017   0.648   0.470   8.516  0.2142  2.2022 -0.6393
   77SLPC   C33 7018   0.167   0.060   7.374  0.0624 -0.9827 -0.7584
   77SLPC   H3X 7019   0.278   0.062   7.381 -0.0075 -1.7547  0.9683
   77SLPC   H3Y 7020   0.138  -0.045   7.355  1.5041 -1.0532 -2.9856
   77SLPC   C34 7021   0.126   0.090   7.523  0.3020 -0.7620  0.1193
   77SLPC   H4X 7022   0.023   0.051   7.541  0.4879 -1.3482 -0.0898
   77SLPC   H4Y 7023   0.108   0.198   7.545 -1.7762 -1.0358  0.0095
   77SLPC   C35 7024   0.222   0.035   7.628  0.1673 -0.6107 -0.6426
   77SLPC   H5X 7025   0.326   0.057   7.595  0.8968 -0.9590  1.2949
   77SLPC   H5Y 7026   0.224  -0.076   7.625 -0.1169 -0.6248 -0.2929
   77SLPC   C36 7027   0.184   0.104   7.763  0.4999 -0.1616  0.1334
   77SLPC   H6X 7028   0.080   0.079   7.791 -0.0581 -0.6032 -2.1201
   77SLPC   H6Y 7029   0.178   0.214   7.745 -1.5178 -0.0781  1.0680
   77SLPC   C37 7030   0.288   0.078   7.866  0.4650  0.8024 -0.7846
   77SLPC   H7X 7031   0.385   0.107   7.819  0.1810  1.5957 -0.8957
   77SLPC   H7Y 7032   0.306  -0.027   7.895 -0.2724  0.2152 -2.3316
   77SLPC   C38 7033   0.266   0.158   7.997  0.1092  0.0691  0.3981
   77SLPC   H8X 7034   0.173   0.131   8.051  0.3526  0.8933  1.2535
   77SLPC   H8Y 7035   0.262   0.268   7.981  0.8595 -0.0278 -0.5971
   77SLPC   C39 7036   0.388   0.134   8.095  0.3020  0.4511  1.2105
   77SLPC   H9X 7037   0.467   0.209   8.070  1.3218 -0.4295  1.7093
   77SLPC   H9Y 7038   0.422   0.029   8.086  1.6479  1.0169 -1.6791
   77SLPC  C310 7039   0.372   0.169   8.239  0.2382  0.0419 -0.6466
   77SLPC  H10X 7040   0.336   0.272   8.261  2.7351  0.7066  0.7255
   77SLPC  H10Y 7041   0.476   0.169   8.277 -0.2124 -0.0353  0.6635
   77SLPC  C311 7042   0.300   0.052   8.324  0.4637  0.5068  0.8179
   77SLPC  H11X 7043   0.351  -0.045   8.311 -0.5799  0.1780 -1.2371
   77SLPC  H11Y 7044   0.195   0.050   8.288  1.0246  3.0071 -1.2942
   77SLPC  C312 7045   0.298   0.078   8.470  0.3952 -0.4829 -0.0846
   77SLPC  H12X 7046   0.221   0.157   8.487  1.6981  1.1990 -1.5323
   77SLPC  H12Y 7047   0.391   0.126   8.507  0.3857 -1.6897  1.5803
   77SLPC  C313 7048   0.252  -0.043   8.546 -0.1761  0.1395 -0.2902
   77SLPC  H13X 7049   0.164  -0.072   8.485  0.9734  0.1848 -2.0647
   77SLPC  H13Y 7050   0.209  -0.010   8.642  2.0884  2.0636  0.1630
   77SLPC  C314 7051   0.355  -0.153   8.579  0.3229 -0.3999  0.3184
   77SLPC  H14X 7052   0.452  -0.108   8.607 -0.5878  0.5967  2.0606
   77SLPC  H14Y 7053   0.381  -0.225   8.498  2.4874  1.8252 -1.0750
   77SLPC  C315 7054   0.309  -0.234   8.696 -0.1622  0.2570 -0.1737
   77SLPC  H15X 7055   0.292  -0.180   8.791 -0.4358  0.7775 -0.5103
   77SLPC  H15Y 7056   0.399  -0.293   8.723  2.6085  3.2829 -2.0133
   77SLPC  C316 7057   0.179  -0.304   8.666  0.6694  0.8237 -0.3349
   77SLPC  H16X 7058   0.198  -0.365   8.575  0.6935  0.9036 -0.3847
   77SLPC  H16Y 7059   0.091  -0.239   8.644 -1.7459 -2.3891 -1.0294
   77SLPC  C317 7060   0.133  -0.411   8.769  0.0401 -0.3681  0.3965
   77SLPC  H17X 7061   0.124  -0.361   8.868  0.3078  0.8732 -0.2002
   77SLPC  H17Y 7062   0.209  -0.491   8.781 -0.1426 -0.3035  2.3962
   77SLPC  C318 7063   0.016  -0.494   8.730 -0.3858 -0.0473  0.3272
   77SLPC  H18X 7064   0.036  -0.566   8.648 -2.0516  0.9465 -1.0175
   77SLPC  H18Y 7065  -0.071  -0.437   8.691 -0.6441 -0.7649 -0.1600
   77SLPC  H18Z 7066  -0.026  -0.545   8.819 -0.2882 -0.1736  0.3012
   78SLPC     N 7067   2.575   5.211   6.226  0.0921 -0.0166  0.1601
   78SLPC   C13 7068   2.605   5.200   6.370  0.4317  0.0232  0.5551
   78SLPC  H13A 7069   2.520   5.158   6.421  0.2107 -0.0758  0.1083
   78SLPC  H13B 7070   2.693   5.139   6.385  0.4926 -1.1949 -3.5572
   78SLPC  H13C 7071   2.617   5.301   6.406  0.6410  1.0011 -2.0406
   78SLPC   C14 7072   2.450   5.284   6.194  0.0445 -0.5663  0.0172
   78SLPC  H14A 7073   2.359   5.258   6.246 -0.4761  3.0904  1.2206
   78SLPC  H14B 7074   2.472   5.388   6.210 -0.5992 -0.5016  0.5105
   78SLPC  H14C 7075   2.425   5.289   6.089 -0.6376 -1.2035  0.1451
   78SLPC   C15 7076   2.542   5.068   6.175 -0.6407 -0.0963  0.1081
   78SLPC  H15A 7077   2.626   4.999   6.177 -0.4159  0.1445 -0.6744
   78SLPC  H15B 7078   2.464   5.027   6.237  0.0557  0.2155  1.2181
   78SLPC  H15C 7079   2.499   5.077   6.077 -1.4488 -0.8392  0.3839
   78SLPC   C12 7080   2.700   5.265   6.150 -0.2413  0.1799 -0.0952
   78SLPC  H12A 7081   2.675   5.274   6.045  2.2501  0.9599 -0.6738
   78SLPC  H12B 7082   2.779   5.195   6.171 -0.0700  0.9068  1.9517
   78SLPC   C11 7083   2.760   5.405   6.185  0.1466 -0.7521  0.9984
   78SLPC  H11A 7084   2.769   5.404   6.296  1.5530 -0.5714  0.8960
   78SLPC  H11B 7085   2.689   5.489   6.169 -1.1085 -1.8904  0.3672
   78SLPC     P 7086   3.019   5.381   6.146  0.0235  0.2914 -0.1871
   78SLPC   O13 7087   3.024   5.239   6.176  0.3156 -0.1632 -0.4362
   78SLPC   O14 7088   3.119   5.421   6.040  0.1426  0.1808 -0.2831
   78SLPC   O12 7089   2.871   5.418   6.101  0.2940 -0.1884  0.5314
   78SLPC   O11 7090   3.032   5.458   6.286  0.4790 -0.0141 -0.0952
   78SLPC    C1 7091   3.060   5.597   6.287  0.1956  0.1780  0.1619
   78SLPC    HA 7092   3.161   5.628   6.254  0.6975 -2.8445 -1.5087
   78SLPC    HB 7093   2.997   5.653   6.214  0.2615  0.2741  0.1792
   78SLPC    C2 7094   3.034   5.642   6.433  0.5993  0.3716  0.2624
   78SLPC    HS 7095   3.033   5.753   6.428  0.1308  0.3531 -0.1308
   78SLPC   O21 7096   3.139   5.597   6.516  0.3753 -0.8889  0.3841
   78SLPC   C21 7097   3.233   5.678   6.553 -0.1406 -0.0407 -0.7002
   78SLPC   O22 7098   3.256   5.790   6.511 -0.0682  0.1995  0.6511
   78SLPC   C22 7099   3.318   5.605   6.657 -0.1710 -0.0848  0.5933
   78SLPC   H2R 7100   3.350   5.513   6.604  3.1617  1.3548 -0.1785
   78SLPC   H2S 7101   3.408   5.666   6.678 -0.9370  2.4816 -2.6100
   78SLPC    C3 7102   2.900   5.588   6.500 -0.0273 -0.6875 -0.0372
   78SLPC    HX 7103   2.914   5.480   6.518  0.9282 -0.2629  2.0023
   78SLPC    HY 7104   2.822   5.607   6.422  0.5719 -0.9686 -0.7111
   78SLPC   O31 7105   2.883   5.653   6.629 -0.2772 -0.0973  0.1461
   78SLPC   C31 7106   2.771   5.630   6.688  0.7611 -0.5308  0.5356
   78SLPC   O32 7107   2.688   5.547   6.651  0.4661 -0.0528 -0.1025
   78SLPC   C32 7108   2.756   5.730   6.802 -0.1137 -0.3644 -0.0900
   78SLPC   H2X 7109   2.706   5.825   6.773  0.5170  0.2225  0.7113
   78SLPC   H2Y 7110   2.859   5.765   6.826 -0.5910  1.4953 -0.5799
   78SLPC   C23 7111   3.233   5.565   6.784 -0.1564  0.0181  0.4254
   78SLPC   H3R 7112   3.300   5.495   6.840  1.4768  0.5358 -0.8071
   78SLPC   H3S 7113   3.145   5.504   6.753  0.2271  0.3433 -1.3619
   78SLPC   C24 7114   3.192   5.685   6.870  0.6044 -0.0549  0.2757
   78SLPC   H4R 7115   3.118   5.734   6.803  1.1831  0.0574 -0.2937
   78SLPC   H4S 7116   3.271   5.758   6.894 -0.4950  0.5905  2.1451
   78SLPC   C25 7117   3.140   5.652   7.013  0.0698  0.0889  0.9585
   78SLPC   H5R 7118   3.187   5.557   7.045 -2.1121 -1.4000 -0.0145
   78SLPC   H5S 7119   3.033   5.624   7.003 -0.1007  0.9595  0.1276
   78SLPC   C26 7120   3.162   5.776   7.106  0.5326  0.5932  0.1298
   78SLPC   H6R 7121   3.264   5.817   7.091  1.3595 -0.8521  1.3987
   78SLPC   H6S 7122   3.143   5.750   7.212 -0.8014 -0.1289 -0.2715
   78SLPC   C27 7123   3.056   5.883   7.087  0.5781  0.4029 -0.4921
   78SLPC   H7R 7124   2.952   5.846   7.075  0.4379 -0.1903  2.0147
   78SLPC   H7S 7125   3.084   5.941   6.997  2.6516 -1.3117 -1.0481
   78SLPC   C28 7126   3.054   5.986   7.202 -0.1449 -0.3391 -0.0957
   78SLPC   H8R 7127   3.016   5.940   7.296  1.5122  0.0310  0.7894
   78SLPC   H8S 7128   2.972   6.053   7.166  0.6255  2.1615  2.4506
   78SLPC   C29 7129   3.182   6.055   7.233 -0.3902 -0.1350  0.8962
   78SLPC   H9R 7130   3.223   6.110   7.147 -0.6858 -2.1640 -0.6396
   78SLPC  C210 7131   3.265   6.040   7.340 -0.0700 -0.0842  0.3217
   78SLPC  H10R 7132   3.357   6.101   7.347 -0.3919  0.6466 -1.4095
   78SLPC  C211 7133   3.239   5.969   7.468 -0.1502 -0.0519  0.0710
   78SLPC  H11R 7134   3.153   5.898   7.468  1.1544 -1.7103  0.8396
   78SLPC  H11S 7135   3.203   6.045   7.540 -1.5870 -1.3285  0.7593
   78SLPC  C212 7136   3.370   5.893   7.504 -0.2166 -0.5483  1.0091
   78SLPC  H12R 7137   3.422   5.840   7.422 -0.9635 -0.8596  0.7221
   78SLPC  C213 7138   3.415   5.870   7.622 -0.5239 -0.1121 -0.4361
   78SLPC  H13R 7139   3.502   5.804   7.630 -0.8642 -0.6564 -1.1909
   78SLPC  C214 7140   3.353   5.928   7.746  0.0088  0.1648 -0.0708
   78SLPC  H14R 7141   3.245   5.905   7.758 -0.1965  0.4703 -1.2948
   78SLPC  H14S 7142   3.364   6.038   7.746 -0.1804  0.1840 -0.2227
   78SLPC  C215 7143   3.435   5.884   7.872  0.0235  0.3676  0.1130
   78SLPC  H15R 7144   3.540   5.920   7.874 -0.1718  1.1884 -2.0780
   78SLPC  H15S 7145   3.445   5.774   7.875  4.0577  0.5856  0.5927
   78SLPC  C216 7146   3.377   5.927   8.014  0.1875  0.3008  0.2764
   78SLPC  H16R 7147   3.275   5.883   8.020  0.9383 -1.5436  0.1758
   78SLPC  H16S 7148   3.371   6.038   8.014 -0.8837  0.2729 -0.8136
   78SLPC  C217 7149   3.467   5.871   8.116  0.2650 -0.2025 -0.0286
   78SLPC  H17R 7150   3.561   5.930   8.112  0.5694 -0.6859 -3.8229
   78SLPC  H17S 7151   3.492   5.766   8.090  0.4401  0.4138 -2.6495
   78SLPC  C218 7152   3.406   5.904   8.252 -0.1610  0.1887  0.7108
   78SLPC  H18R 7153   3.455   5.863   8.342 -0.8911  0.8400  1.4249
   78SLPC  H18S 7154   3.306   5.856   8.244 -0.9079  1.8633 -0.6505
   78SLPC  H18T 7155   3.390   6.012   8.272  3.0587  0.5070  2.1561
   78SLPC   C33 7156   2.696   5.679   6.934 -0.0688 -0.0860 -0.3350
   78SLPC   H3X 7157   2.785   5.629   6.978 -0.2654 -0.5380 -0.4403
   78SLPC   H3Y 7158   2.619   5.601   6.914 -0.4829  0.0654  0.6388
   78SLPC   C34 7159   2.646   5.803   7.010 -0.0480  0.3070  0.3349
   78SLPC   H4X 7160   2.548   5.828   6.964 -0.2041  0.3488  0.6829
   78SLPC   H4Y 7161   2.713   5.891   6.996 -0.1270 -0.0469 -2.9133
   78SLPC   C35 7162   2.622   5.776   7.156  0.1570  0.1662 -0.9127
   78SLPC   H5X 7163   2.720   5.797   7.204 -0.5714 -0.1865  0.7893
   78SLPC   H5Y 7164   2.602   5.670   7.179  3.0338 -0.3466 -0.3593
   78SLPC   C36 7165   2.526   5.876   7.222 -0.7913  0.1752 -0.0686
   78SLPC   H6X 7166   2.429   5.861   7.171 -2.3383  0.7610  2.5311
   78SLPC   H6Y 7167   2.566   5.979   7.209  2.0907 -0.6626  1.3152
   78SLPC   C37 7168   2.501   5.865   7.368  0.1216 -0.1283 -0.8376
   78SLPC   H7X 7169   2.470   5.765   7.403 -0.5459  1.0466  2.2714
   78SLPC   H7Y 7170   2.406   5.918   7.391  0.3773  0.3498 -0.8725
   78SLPC   C38 7171   2.623   5.916   7.454 -0.0505  0.3062 -0.0912
   78SLPC   H8X 7172   2.642   6.020   7.422  1.0185 -0.5394 -2.4849
   78SLPC   H8Y 7173   2.719   5.860   7.452 -0.0564  0.0246  3.2490
   78SLPC   C39 7174   2.598   5.907   7.608 -0.0228 -0.1308 -0.1533
   78SLPC   H9X 7175   2.637   5.809   7.642  2.2921  1.1649  1.2196
   78SLPC   H9Y 7176   2.493   5.936   7.626 -0.1610 -0.0030 -1.0978
   78SLPC  C310 7177   2.694   6.011   7.676 -0.0447 -0.4162  0.1521
   78SLPC  H10X 7178   2.661   6.113   7.648 -0.1059  0.0987  1.9496
   78SLPC  H10Y 7179   2.797   5.992   7.639 -0.5449 -0.5297 -1.2646
   78SLPC  C311 7180   2.697   5.985   7.833 -0.2881 -0.5229  0.1980
   78SLPC  H11X 7181   2.737   5.883   7.853  0.6860 -0.1095  0.4337
   78SLPC  H11Y 7182   2.594   5.999   7.871 -0.1357  0.3794  0.3117
   78SLPC  C312 7183   2.808   6.076   7.898 -0.0950 -0.3303  0.9571
   78SLPC  H12X 7184   2.801   6.172   7.842 -0.4763 -0.5339  0.6570
   78SLPC  H12Y 7185   2.911   6.052   7.863  0.1550  1.6822  0.1782
   78SLPC  C313 7186   2.799   6.099   8.045 -0.0028  1.0279 -0.5720
   78SLPC  H13X 7187   2.839   6.015   8.106  2.1888  2.0117 -0.5670
   78SLPC  H13Y 7188   2.691   6.110   8.068  0.1397  1.4327 -0.0940
   78SLPC  C314 7189   2.859   6.232   8.085  0.4063 -0.4604  0.2654
   78SLPC  H14X 7190   2.819   6.252   8.187 -1.1652 -0.2085 -0.3597
   78SLPC  H14Y 7191   2.813   6.308   8.018 -0.2765 -0.5660  0.5995
   78SLPC  C315 7192   3.013   6.227   8.092  0.5827 -0.6283 -0.7991
   78SLPC  H15X 7193   3.066   6.214   7.995 -0.4860 -1.4795 -1.3040
   78SLPC  H15Y 7194   3.034   6.133   8.147 -2.1877 -1.6821 -1.3438
   78SLPC  C316 7195   3.081   6.351   8.169  0.0346  0.2183 -0.3682
   78SLPC  H16X 7196   3.191   6.336   8.165  0.2353  1.8338 -2.3559
   78SLPC  H16Y 7197   3.042   6.350   8.273  1.8236  0.7708  0.3494
   78SLPC  C317 7198   3.033   6.493   8.125  0.6149  0.6883 -0.2722
   78SLPC  H17X 7199   2.923   6.503   8.140  0.3759  1.3778 -2.2515
   78SLPC  H17Y 7200   3.063   6.497   8.019 -0.5630 -0.7494 -0.6988
   78SLPC  C318 7201   3.109   6.610   8.193 -0.6536 -0.1205 -0.3198
   78SLPC  H18X 7202   3.070   6.640   8.292 -0.9481  1.9651 -1.0228
   78SLPC  H18Y 7203   3.104   6.697   8.123 -1.3084  0.8832  0.9481
   78SLPC  H18Z 7204   3.217   6.584   8.195 -0.7542 -0.5777 -0.6160
   79SLPC     N 7205   0.724   2.011   5.999 -0.0184 -0.2356  0.0499
   79SLPC   C13 7206   0.692   1.873   6.038  0.3746 -0.0222 -0.6545
   79SLPC  H13A 7207   0.657   1.879   6.140  1.4254  0.0735 -0.2863
   79SLPC  H13B 7208   0.629   1.838   5.958 -1.3708  2.4408 -0.4419
   79SLPC  H13C 7209   0.788   1.823   6.037  0.6889  0.5473 -2.1668
   79SLPC   C14 7210   0.761   2.024   5.852 -0.3312  0.3378 -0.4352
   79SLPC  H14A 7211   0.858   1.979   5.842 -0.6002 -0.2333 -0.5014
   79SLPC  H14B 7212   0.685   1.975   5.793 -2.0876  0.2757  1.7348
   79SLPC  H14C 7213   0.762   2.130   5.832  0.0249  0.0537 -2.0721
   79SLPC   C15 7214   0.835   2.054   6.085  0.3783 -0.3159  0.7470
   79SLPC  H15A 7215   0.814   2.146   6.137  2.6769  0.2808  0.7241
   79SLPC  H15B 7216   0.841   1.984   6.168  0.9549 -0.7950  0.3122
   79SLPC  H15C 7217   0.929   2.047   6.031 -0.3548 -0.1025 -0.6006
   79SLPC   C12 7218   0.606   2.103   6.022 -0.3389  0.2249 -0.1177
   79SLPC  H12A 7219   0.566   2.089   6.122  0.0697 -0.9509 -0.1020
   79SLPC  H12B 7220   0.523   2.076   5.959  0.3438  0.4922 -1.1567
   79SLPC   C11 7221   0.624   2.256   6.014  0.0482 -0.4615 -0.0017
   79SLPC  H11A 7222   0.534   2.312   5.982  0.1449  3.2044  4.9158
   79SLPC  H11B 7223   0.708   2.274   5.943  2.1827 -0.9537  2.2600
   79SLPC     P 7224   0.568   2.352   6.248  0.5249 -0.3268 -0.3366
   79SLPC   O13 7225   0.510   2.479   6.201 -0.1443  0.2026  0.4718
   79SLPC   O14 7226   0.473   2.246   6.289 -0.5465  0.2572 -0.3075
   79SLPC   O12 7227   0.677   2.301   6.140 -0.5397  0.2011 -0.0056
   79SLPC   O11 7228   0.662   2.382   6.367 -0.5125 -0.0354 -0.3935
   79SLPC    C1 7229   0.751   2.283   6.422 -0.1811 -0.5073 -0.2367
   79SLPC    HA 7230   0.721   2.185   6.379 -2.4329  0.4369 -0.9668
   79SLPC    HB 7231   0.855   2.318   6.403  0.1303 -0.7115  1.0134
   79SLPC    C2 7232   0.737   2.286   6.573  0.8757  0.5999 -0.9114
   79SLPC    HS 7233   0.789   2.211   6.636  0.2721  0.2379 -0.8365
   79SLPC   O21 7234   0.594   2.276   6.613 -0.1573  0.2719 -0.3759
   79SLPC   C21 7235   0.535   2.167   6.585 -0.2223 -0.1601  0.5319
   79SLPC   O22 7236   0.589   2.067   6.544 -0.4117 -0.1842  0.6496
   79SLPC   C22 7237   0.394   2.179   6.637 -0.6468 -0.0467  0.1344
   79SLPC   H2R 7238   0.364   2.286   6.645 -3.0802 -0.5992 -0.8800
   79SLPC   H2S 7239   0.331   2.146   6.552  0.5689  0.3812 -0.9777
   79SLPC    C3 7240   0.802   2.427   6.623  0.0633  0.0108 -0.2394
   79SLPC    HX 7241   0.741   2.499   6.564  0.0427 -2.8424 -4.1689
   79SLPC    HY 7242   0.906   2.424   6.584  0.4273  0.7835  0.6390
   79SLPC   O31 7243   0.808   2.453   6.759  0.1957 -0.1354  0.4751
   79SLPC   C31 7244   0.695   2.503   6.815  0.5432 -0.0848 -0.8591
   79SLPC   O32 7245   0.592   2.524   6.758  0.5519  0.2210 -0.4038
   79SLPC   C32 7246   0.713   2.523   6.965 -0.2009  0.0781  0.3458
   79SLPC   H2X 7247   0.771   2.617   6.973 -0.7704  0.3033  2.1041
   79SLPC   H2Y 7248   0.784   2.445   6.999  2.1008  0.2835 -3.3989
   79SLPC   C23 7249   0.359   2.098   6.762  0.2302 -0.2816  0.4607
   79SLPC   H3R 7250   0.376   1.989   6.748  1.3237 -0.0264 -0.3227
   79SLPC   H3S 7251   0.249   2.111   6.768 -0.3384 -3.5689 -0.8362
   79SLPC   C24 7252   0.422   2.147   6.891  0.4904  0.3164  0.5087
   79SLPC   H4R 7253   0.407   2.256   6.907  0.5381  0.3489  0.3273
   79SLPC   H4S 7254   0.524   2.106   6.906  0.0415 -0.7911  0.5822
   79SLPC   C25 7255   0.354   2.077   7.017  0.2334  0.0024  0.7411
   79SLPC   H5R 7256   0.388   1.971   7.017  0.6763  0.1405  0.1566
   79SLPC   H5S 7257   0.246   2.077   6.989  0.3023 -2.8231  0.2170
   79SLPC   C26 7258   0.391   2.126   7.154  0.0346 -0.4023  1.3301
   79SLPC   H6R 7259   0.359   2.232   7.160 -0.9686 -0.6792  0.9757
   79SLPC   H6S 7260   0.499   2.112   7.174  0.3411  0.0633  0.0745
   79SLPC   C27 7261   0.312   2.059   7.269 -0.1340  0.8887  0.4426
   79SLPC   H7R 7262   0.349   1.955   7.276 -0.5355  0.5812 -1.3323
   79SLPC   H7S 7263   0.202   2.056   7.250 -0.0601 -0.6582  0.1659
   79SLPC   C28 7264   0.345   2.124   7.409 -0.2330 -0.1160 -0.4302
   79SLPC   H8R 7265   0.271   2.087   7.483 -0.7486 -0.5209 -1.1367
   79SLPC   H8S 7266   0.321   2.232   7.402  2.8133  0.8686  2.0353
   79SLPC   C29 7267   0.484   2.130   7.470 -0.0729 -0.5835 -0.0028
   79SLPC   H9R 7268   0.563   2.186   7.416  1.3549 -0.6422  1.9419
   79SLPC  C210 7269   0.506   2.092   7.596 -1.2248  0.7293  0.3849
   79SLPC  H10R 7270   0.610   2.116   7.621  0.5822 -2.3289 -3.1459
   79SLPC  C211 7271   0.422   2.028   7.699  0.2667  0.7075  0.2870
   79SLPC  H11R 7272   0.352   1.962   7.643  0.5412  1.2077 -0.6629
   79SLPC  H11S 7273   0.362   2.096   7.763 -2.1322 -1.1628  0.1677
   79SLPC  C212 7274   0.507   1.935   7.782  0.2228  0.3079 -0.5368
   79SLPC  H12R 7275   0.513   1.829   7.753  1.3035  0.0478  0.5328
   79SLPC  C213 7276   0.580   1.968   7.884 -0.4013 -1.1605  0.6245
   79SLPC  H13R 7277   0.638   1.892   7.937 -0.9497 -1.6297  0.5662
   79SLPC  C214 7278   0.583   2.111   7.951 -0.1637  0.7361 -0.1976
   79SLPC  H14R 7279   0.487   2.166   7.942 -0.7103 -0.2865 -0.7245
   79SLPC  H14S 7280   0.665   2.176   7.913 -0.2311 -0.1448 -1.9653
   79SLPC  C215 7281   0.600   2.090   8.106 -0.2908  0.0633  0.2731
   79SLPC  H15R 7282   0.696   2.039   8.125  0.0491  0.9488  0.9690
   79SLPC  H15S 7283   0.518   2.022   8.137  0.8240 -1.1247  0.6895
   79SLPC  C216 7284   0.602   2.218   8.186 -0.1211 -0.9442 -0.7456
   79SLPC  H16R 7285   0.502   2.261   8.162 -0.1267 -1.3903 -1.5604
   79SLPC  H16S 7286   0.683   2.287   8.153 -0.0229  0.1058  1.5196
   79SLPC  C217 7287   0.611   2.177   8.337 -0.5222 -0.9908 -0.9341
   79SLPC  H17R 7288   0.701   2.114   8.355 -0.1208 -0.2119 -0.1157
   79SLPC  H17S 7289   0.525   2.112   8.362 -1.2001  0.0818 -0.3789
   79SLPC  C218 7290   0.603   2.310   8.420 -0.6708  0.3452  0.0696
   79SLPC  H18R 7291   0.681   2.377   8.377 -1.7699  0.7617 -1.3333
   79SLPC  H18S 7292   0.631   2.290   8.526  0.2806  1.0754 -0.0321
   79SLPC  H18T 7293   0.505   2.363   8.420 -0.8279  0.1614 -2.1908
   79SLPC   C33 7294   0.586   2.527   7.054  0.2731  0.4148  0.6562
   79SLPC   H3X 7295   0.525   2.439   7.026 -0.8057  0.9171  1.3704
   79SLPC   H3Y 7296   0.527   2.620   7.037 -0.5395 -0.2805 -0.4676
   79SLPC   C34 7297   0.626   2.503   7.201 -0.6105 -0.4474 -0.0216
   79SLPC   H4X 7298   0.716   2.563   7.228 -1.2275  1.1372 -1.3142
   79SLPC   H4Y 7299   0.658   2.397   7.213  1.1525  0.1687  1.1331
   79SLPC   C35 7300   0.508   2.543   7.286 -0.1128 -0.1815 -0.1690
   79SLPC   H5X 7301   0.421   2.484   7.250 -1.7511  1.0318  1.5919
   79SLPC   H5Y 7302   0.489   2.651   7.272 -1.3728 -0.2096  1.0125
   79SLPC   C36 7303   0.528   2.517   7.441 -0.1286 -0.1037  0.3030
   79SLPC   H6X 7304   0.594   2.591   7.491  0.4745 -1.1406  1.1036
   79SLPC   H6Y 7305   0.560   2.411   7.449 -0.1287 -0.1136  0.1680
   79SLPC   C37 7306   0.407   2.513   7.537  0.0090  0.2306  0.2223
   79SLPC   H7X 7307   0.340   2.431   7.503 -0.3856  0.3560  0.6809
   79SLPC   H7Y 7308   0.350   2.608   7.538 -0.4129  0.0678  3.6452
   79SLPC   C38 7309   0.448   2.493   7.684 -0.0249 -0.0706 -0.4147
   79SLPC   H8X 7310   0.485   2.585   7.734  0.5607 -0.5252  0.0061
   79SLPC   H8Y 7311   0.531   2.420   7.691 -0.8887 -1.2124 -1.6420
   79SLPC   C39 7312   0.333   2.441   7.762 -0.3470  0.0025  0.9706
   79SLPC   H9X 7313   0.317   2.336   7.728 -2.5621  0.3037  0.9618
   79SLPC   H9Y 7314   0.238   2.497   7.753  0.1921  0.6880 -1.0158
   79SLPC  C310 7315   0.369   2.440   7.912  0.2917 -0.4126 -0.2288
   79SLPC  H10X 7316   0.474   2.408   7.928 -0.0031 -0.1993  2.4956
   79SLPC  H10Y 7317   0.310   2.364   7.967 -1.7531  2.5666  1.9946
   79SLPC  C311 7318   0.336   2.567   7.983 -0.1272 -0.2158 -0.3042
   79SLPC  H11X 7319   0.225   2.561   7.974 -0.2828 -0.5368  1.5490
   79SLPC  H11Y 7320   0.373   2.663   7.941  0.6941 -0.3175  0.1571
   79SLPC  C312 7321   0.372   2.563   8.137  0.2562 -0.1753 -0.1027
   79SLPC  H12X 7322   0.483   2.567   8.135  0.2457 -0.0520 -0.5159
   79SLPC  H12Y 7323   0.343   2.467   8.184  1.7376 -1.2415 -1.2684
   79SLPC  C313 7324   0.309   2.679   8.214  0.6590 -0.0913 -0.1735
   79SLPC  H13X 7325   0.199   2.676   8.232  1.0162 -0.5027  2.2468
   79SLPC  H13Y 7326   0.314   2.772   8.154 -1.1559 -0.0697 -0.3612
   79SLPC  C314 7327   0.353   2.692   8.359  0.7258 -0.3124 -0.3484
   79SLPC  H14X 7328   0.461   2.718   8.359  1.0724 -1.6393  0.7431
   79SLPC  H14Y 7329   0.365   2.604   8.425 -0.4300  0.2043  0.5886
   79SLPC  C315 7330   0.260   2.800   8.425 -0.4546 -0.6014  0.4133
   79SLPC  H15X 7331   0.153   2.771   8.426 -1.2703  1.6595 -3.3610
   79SLPC  H15Y 7332   0.263   2.897   8.372 -0.1409 -1.7690 -1.8359
   79SLPC  C316 7333   0.293   2.814   8.577  0.4426  0.0348 -0.2504
   79SLPC  H16X 7334   0.383   2.879   8.585  0.8952 -0.5355 -0.5874
   79SLPC  H16Y 7335   0.314   2.714   8.620  3.3090  0.5622 -0.2448
   79SLPC  C317 7336   0.177   2.873   8.649  0.5617 -0.2739 -0.7329
   79SLPC  H17X 7337   0.186   2.858   8.759  0.3744  0.3860 -0.6222
   79SLPC  H17Y 7338   0.084   2.826   8.612 -0.6226  0.9039  0.6466
   79SLPC  C318 7339   0.166   3.026   8.623  0.1789 -0.2454 -0.1719
   79SLPC  H18X 7340   0.244   3.084   8.677 -1.3456  1.2491  0.5349
   79SLPC  H18Y 7341   0.071   3.064   8.667 -0.7686 -0.7919 -1.7033
   79SLPC  H18Z 7342   0.175   3.053   8.516  1.1492  0.6668  0.1204
   80SLPC     N 7343   1.535   6.320   6.204  0.1317 -0.1042  0.2959
   80SLPC   C13 7344   1.505   6.239   6.077  0.5656 -0.6041 -0.1091
   80SLPC  H13A 7345   1.432   6.162   6.097  1.2105 -0.9800  0.9072
   80SLPC  H13B 7346   1.451   6.302   6.009 -0.6420 -0.8858  0.5636
   80SLPC  H13C 7347   1.591   6.199   6.025  2.9940  1.2598  2.1798
   80SLPC   C14 7348   1.621   6.435   6.177 -0.0676 -0.5215  0.6854
   80SLPC  H14A 7349   1.719   6.411   6.139 -1.1875 -0.7937 -2.3739
   80SLPC  H14B 7350   1.585   6.491   6.092 -0.0260 -0.4058  0.7427
   80SLPC  H14C 7351   1.628   6.502   6.262 -1.4894  2.8856 -1.6561
   80SLPC   C15 7352   1.599   6.227   6.298 -0.3267  0.2546 -0.1165
   80SLPC  H15A 7353   1.628   6.280   6.388  0.5719  0.0248 -0.2631
   80SLPC  H15B 7354   1.525   6.157   6.334 -1.3127  1.4210  0.1931
   80SLPC  H15C 7355   1.677   6.166   6.255 -0.8022  1.1045 -2.2838
   80SLPC   C12 7356   1.400   6.364   6.260  0.2770 -0.3603 -0.0154
   80SLPC  H12A 7357   1.367   6.439   6.189  1.5637 -1.8107 -2.2564
   80SLPC  H12B 7358   1.420   6.414   6.354 -3.0800  0.0653  0.5970
   80SLPC   C11 7359   1.288   6.266   6.275 -0.2693  0.1228  0.6845
   80SLPC  H11A 7360   1.198   6.302   6.329 -0.1252 -0.3353  1.2449
   80SLPC  H11B 7361   1.331   6.190   6.344 -0.7292  0.0943  0.9394
   80SLPC     P 7362   1.151   6.085   6.146 -0.2434  0.7102  0.1856
   80SLPC   O13 7363   1.026   6.140   6.083  0.2590  0.5739 -0.0669
   80SLPC   O14 7364   1.205   5.965   6.087 -0.2975 -0.6642  1.0708
   80SLPC   O12 7365   1.257   6.213   6.149 -0.7568 -0.2233  0.6229
   80SLPC   O11 7366   1.116   6.055   6.293 -0.2135 -0.7719  0.5109
   80SLPC    C1 7367   1.190   5.958   6.371  0.3856  0.1590  0.4036
   80SLPC    HA 7368   1.149   5.856   6.357 -0.0243  0.2069  1.1798
   80SLPC    HB 7369   1.299   5.963   6.352  0.1571 -1.1283 -1.4822
   80SLPC    C2 7370   1.177   5.987   6.527 -0.5718  0.1808  0.9400
   80SLPC    HS 7371   1.070   5.999   6.552 -0.2979  1.0874  1.7202
   80SLPC   O21 7372   1.260   6.101   6.565  0.0730  0.2764  0.3438
   80SLPC   C21 7373   1.188   6.188   6.632 -0.1378 -0.6848  0.4738
   80SLPC   O22 7374   1.076   6.178   6.672  0.1064  0.2329  0.3799
   80SLPC   C22 7375   1.269   6.318   6.649  0.2153 -0.1958  0.3080
   80SLPC   H2R 7376   1.284   6.372   6.553  1.7169  1.3389  1.3337
   80SLPC   H2S 7377   1.193   6.372   6.709 -1.9530 -1.0774 -1.5330
   80SLPC    C3 7378   1.216   5.857   6.614  0.6898  0.2819 -0.0619
   80SLPC    HX 7379   1.318   5.824   6.586 -0.0242 -0.0382 -2.5313
   80SLPC    HY 7380   1.154   5.769   6.587  0.3788  1.1584 -2.4075
   80SLPC   O31 7381   1.218   5.877   6.757  0.3233  0.1326  0.6058
   80SLPC   C31 7382   1.105   5.864   6.823  0.2197 -0.0454  0.1802
   80SLPC   O32 7383   1.000   5.833   6.771  0.3276 -0.6562 -0.5909
   80SLPC   C32 7384   1.134   5.888   6.975  0.3167  0.2307 -0.3278
   80SLPC   H2X 7385   1.176   5.991   6.973  1.6981 -0.2652  0.8008
   80SLPC   H2Y 7386   1.225   5.832   7.005  1.1887  3.1829  3.2581
   80SLPC   C23 7387   1.394   6.297   6.730 -0.0931 -0.2953  0.3237
   80SLPC   H3R 7388   1.438   6.393   6.764  0.7569 -0.4285 -0.3605
   80SLPC   H3S 7389   1.461   6.244   6.659 -2.2781 -0.7216 -1.5395
   80SLPC   C24 7390   1.384   6.226   6.867  0.1916  1.0052 -0.1355
   80SLPC   H4R 7391   1.486   6.215   6.910  0.5826  0.0874 -1.2370
   80SLPC   H4S 7392   1.358   6.120   6.851  2.6011  0.2774  0.3069
   80SLPC   C25 7393   1.285   6.277   6.968 -0.1107 -0.5908  0.2403
   80SLPC   H5R 7394   1.185   6.242   6.936  0.2812 -0.5084 -1.1329
   80SLPC   H5S 7395   1.283   6.388   6.965  0.0044 -0.6059 -0.7356
   80SLPC   C26 7396   1.324   6.230   7.109  0.4685 -0.4384 -0.2148
   80SLPC   H6R 7397   1.434   6.236   7.129  0.3197  0.1696  0.4553
   80SLPC   H6S 7398   1.306   6.121   7.096  0.1892 -0.2954 -1.0907
   80SLPC   C27 7399   1.230   6.286   7.217  0.2302  0.0190 -0.2451
   80SLPC   H7R 7400   1.128   6.243   7.213  0.0286  0.5829 -2.1766
   80SLPC   H7S 7401   1.222   6.394   7.191 -4.3185  0.0536  0.4797
   80SLPC   C28 7402   1.295   6.267   7.357  0.2749 -0.4078  0.4434
   80SLPC   H8R 7403   1.396   6.309   7.340 -0.7803  1.7807 -0.7474
   80SLPC   H8S 7404   1.316   6.159   7.377  0.4621 -0.9694 -2.4437
   80SLPC   C29 7405   1.233   6.330   7.479  0.3597 -0.0786  0.4339
   80SLPC   H9R 7406   1.159   6.409   7.463 -0.5048 -1.3538 -2.4051
   80SLPC  C210 7407   1.283   6.313   7.601 -1.2478  0.0843 -0.2235
   80SLPC  H10R 7408   1.241   6.375   7.681  1.9836  1.8279  0.3227
   80SLPC  C211 7409   1.397   6.222   7.654  0.2515 -0.3881 -0.9701
   80SLPC  H11R 7410   1.398   6.127   7.597  0.6567 -0.9961  0.0229
   80SLPC  H11S 7411   1.368   6.187   7.756 -1.1245 -1.6377 -1.7500
   80SLPC  C212 7412   1.534   6.282   7.642  0.4048  0.4739 -0.2987
   80SLPC  H12R 7413   1.549   6.371   7.579 -0.7892  1.3815  0.6539
   80SLPC  C213 7414   1.644   6.235   7.693  0.3903  0.7157  0.0506
   80SLPC  H13R 7415   1.734   6.298   7.684  0.6008  0.2560 -1.4041
   80SLPC  C214 7416   1.665   6.108   7.767  0.1880 -0.4321  0.7051
   80SLPC  H14R 7417   1.770   6.071   7.763  0.1515 -0.9991  3.3463
   80SLPC  H14S 7418   1.595   6.023   7.749  0.0010  0.1721 -1.8455
   80SLPC  C215 7419   1.647   6.120   7.921  0.2547 -0.5375  0.2786
   80SLPC  H15R 7420   1.662   6.025   7.977  0.9401 -0.8900 -0.4878
   80SLPC  H15S 7421   1.542   6.149   7.942 -0.4826 -1.5459 -1.7494
   80SLPC  C216 7422   1.732   6.228   7.987  0.2749 -0.4069 -0.6708
   80SLPC  H16R 7423   1.772   6.303   7.915 -1.5221  0.2157 -1.0864
   80SLPC  H16S 7424   1.828   6.186   8.024  0.7706  0.7320 -0.6057
   80SLPC  C217 7425   1.668   6.299   8.103  0.0202 -0.5039 -0.1584
   80SLPC  H17R 7426   1.637   6.225   8.180  1.1399 -1.5442 -0.6739
   80SLPC  H17S 7427   1.572   6.345   8.070 -0.1394 -2.1859 -2.2813
   80SLPC  C218 7428   1.761   6.405   8.171  0.6490  0.9036  0.1507
   80SLPC  H18R 7429   1.831   6.358   8.244 -0.3239 -0.4136  0.2740
   80SLPC  H18S 7430   1.690   6.474   8.220  0.0051  0.5385 -0.2574
   80SLPC  H18T 7431   1.830   6.450   8.095  0.6618 -1.0651 -1.0726
   80SLPC   C33 7432   1.005   5.884   7.062 -0.3334 -0.5432  0.0098
   80SLPC   H3X 7433   0.949   5.789   7.056  0.2526 -0.9278  0.5243
   80SLPC   H3Y 7434   0.941   5.964   7.019 -0.7733  0.0324  1.6574
   80SLPC   C34 7435   1.028   5.924   7.204  1.0572  1.0506  0.3290
   80SLPC   H4X 7436   1.093   6.013   7.216 -0.2895  2.4089 -1.7657
   80SLPC   H4Y 7437   1.084   5.842   7.253  1.4797 -1.2855 -3.6319
   80SLPC   C35 7438   0.904   5.943   7.284  0.4249  0.0685  0.5037
   80SLPC   H5X 7439   0.856   5.843   7.270 -0.3319  0.2257  1.8527
   80SLPC   H5Y 7440   0.831   6.018   7.246  1.2343  1.2365  1.2121
   80SLPC   C36 7441   0.930   5.974   7.431  0.0641  0.0497 -0.3804
   80SLPC   H6X 7442   0.836   5.994   7.487 -1.3840 -0.8800 -2.3763
   80SLPC   H6Y 7443   0.984   6.071   7.436  0.7973 -0.3218 -0.8463
   80SLPC   C37 7444   1.006   5.861   7.499  0.1033  0.1342  0.0198
   80SLPC   H7X 7445   1.112   5.845   7.470 -0.5431 -2.5185 -1.1932
   80SLPC   H7Y 7446   0.964   5.761   7.474 -0.4010  0.6811 -1.4393
   80SLPC   C38 7447   1.004   5.874   7.650  0.3229  0.3270 -0.2261
   80SLPC   H8X 7448   1.029   5.982   7.663  0.7904  0.0358  1.5395
   80SLPC   H8Y 7449   1.086   5.809   7.687 -0.1390 -0.3424 -0.3657
   80SLPC   C39 7450   0.869   5.846   7.724 -0.8066  0.8316 -0.2109
   80SLPC   H9X 7451   0.809   5.763   7.680  2.5786 -3.5801  2.6522
   80SLPC   H9Y 7452   0.801   5.934   7.724  0.3015  1.7167  0.2532
   80SLPC  C310 7453   0.904   5.809   7.872 -0.1561  0.7315  0.3448
   80SLPC  H10X 7454   0.893   5.902   7.933 -0.4441 -0.6407  2.5113
   80SLPC  H10Y 7455   1.006   5.766   7.878 -0.0749  0.9480  0.5566
   80SLPC  C311 7456   0.821   5.704   7.936  0.0271 -0.1914  0.5970
   80SLPC  H11X 7457   0.841   5.603   7.894  0.7397 -0.1735  0.8794
   80SLPC  H11Y 7458   0.716   5.734   7.916  0.2394  1.0544  1.2840
   80SLPC  C312 7459   0.844   5.703   8.084 -0.0943 -0.1160 -0.1884
   80SLPC  H12X 7460   0.766   5.635   8.123 -0.2954  1.2632  1.9691
   80SLPC  H12Y 7461   0.809   5.799   8.129 -1.1352 -0.5465 -0.0476
   80SLPC  C313 7462   0.982   5.641   8.129 -0.1517 -0.2242 -0.2864
   80SLPC  H13X 7463   1.062   5.715   8.110 -2.4006  2.8607  1.2923
   80SLPC  H13Y 7464   0.996   5.544   8.077  0.1954 -0.5794  0.4665
   80SLPC  C314 7465   1.003   5.606   8.277  0.6933  0.2744 -0.0990
   80SLPC  H14X 7466   0.938   5.519   8.302  1.4037 -0.1283  0.3671
   80SLPC  H14Y 7467   0.967   5.687   8.343  0.4125  0.7540 -0.8298
   80SLPC  C315 7468   1.153   5.559   8.301  0.2873  0.1706 -0.1505
   80SLPC  H15X 7469   1.184   5.558   8.408  0.3393 -1.4565 -0.1470
   80SLPC  H15Y 7470   1.228   5.619   8.247 -0.6337  1.1620 -0.3533
   80SLPC  C316 7471   1.157   5.408   8.255 -0.3017  0.1997  0.4690
   80SLPC  H16X 7472   1.130   5.393   8.148  0.9698 -0.4484  0.2282
   80SLPC  H16Y 7473   1.077   5.353   8.309  1.4690  0.3746  3.4842
   80SLPC  C317 7474   1.282   5.344   8.302  0.2919 -0.3344 -0.2522
   80SLPC  H17X 7475   1.287   5.240   8.265 -0.2490 -0.4982  0.1244
   80SLPC  H17Y 7476   1.270   5.343   8.413 -0.7518  1.4139 -0.3086
   80SLPC  C318 7477   1.406   5.426   8.263 -0.5157 -0.6654 -0.4434
   80SLPC  H18X 7478   1.398   5.478   8.165  1.8240  1.4196  0.3541
   80SLPC  H18Y 7479   1.502   5.370   8.270 -0.5943 -0.8793 -0.9934
   80SLPC  H18Z 7480   1.434   5.514   8.326  1.1373 -0.9231 -0.7528
   81SAPS     N 7481   1.618   0.657  11.059  0.0480  0.3897 -0.3450
   81SAPS   HN1 7482   1.551   0.711  11.002 -0.0143 -0.1073 -0.7537
   81SAPS   HN2 7483   1.663   0.585  10.999  0.8714  1.9645 -1.6912
   81SAPS   HN3 7484   1.572   0.613  11.142 -4.2752 -0.4919 -2.9179
   81SAPS   C12 7485   1.733   0.750  11.095  0.3151 -0.3911 -0.1920
   81SAPS  H12A 7486   1.755   0.809  11.008  1.0257 -0.3375  0.0195
   81SAPS   C13 7487   1.687   0.854  11.206  0.3667  0.3491  0.2360
   81SAPS  O13A 7488   1.569   0.843  11.245  0.6099  0.2227 -0.3911
   81SAPS  O13B 7489   1.770   0.940  11.244  0.3821 -0.5567  0.0371
   81SAPS   C11 7490   1.864   0.668  11.136  0.3400  0.3891 -1.0539
   81SAPS  H11A 7491   1.847   0.637  11.242 -2.0655  0.9934 -1.1830
   81SAPS  H11B 7492   1.943   0.746  11.136  0.9872 -0.2490  0.2138
   81SAPS     P 7493   2.028   0.510  11.032 -0.4005 -0.1452 -0.4803
   81SAPS   O13 7494   2.127   0.599  11.105 -0.5368  0.0184  0.3576
   81SAPS   O14 7495   2.031   0.367  11.061  0.2463  0.1524 -0.0247
   81SAPS   O12 7496   1.889   0.564  11.054 -0.9013  0.3064 -0.5692
   81SAPS   O11 7497   2.061   0.531  10.879 -0.1275  0.6338 -0.1274
   81SAPS    C1 7498   1.958   0.513  10.782  0.0847 -0.7234 -0.5631
   81SAPS    HA 7499   1.935   0.406  10.765  0.6460 -0.6651 -1.8358
   81SAPS    HB 7500   1.865   0.570  10.801  2.2385  4.1773 -2.8653
   81SAPS    C2 7501   1.998   0.554  10.641 -0.6174 -0.2099 -0.0080
   81SAPS    HS 7502   1.918   0.544  10.565  0.4992  1.9234 -1.5712
   81SAPS   O21 7503   2.105   0.468  10.601 -0.5840  0.2258  0.3493
   81SAPS   C21 7504   2.147   0.443  10.484 -0.1639  0.9412  1.3670
   81SAPS   O22 7505   2.095   0.477  10.379 -0.0767 -0.6990 -0.5972
   81SAPS   C22 7506   2.265   0.348  10.477 -0.6515  0.2125 -0.4390
   81SAPS   H2R 7507   2.343   0.409  10.528 -1.8643  1.0804  0.4204
   81SAPS   H2S 7508   2.232   0.252  10.523 -0.5761  0.2682 -0.2676
   81SAPS    C3 7509   2.034   0.709  10.623  0.1187  0.3124 -0.6061
   81SAPS    HX 7510   2.103   0.730  10.707 -0.2489 -0.5740 -0.0638
   81SAPS    HY 7511   1.936   0.752  10.652  1.2413  1.1520  2.3948
   81SAPS   O31 7512   2.097   0.751  10.500  0.2450  0.4274 -0.0403
   81SAPS   C31 7513   2.005   0.762  10.409  0.1055  0.1030  0.1801
   81SAPS   O32 7514   1.884   0.747  10.417 -0.8363  0.3524 -0.0202
   81SAPS   C32 7515   2.077   0.804  10.281 -0.1877 -0.3689  0.7893
   81SAPS   H2X 7516   2.135   0.720  10.238 -1.2268 -0.6201 -0.1832
   81SAPS   H2Y 7517   2.146   0.884  10.314 -0.1640 -0.7067  1.5860
   81SAPS   C23 7518   2.304   0.323  10.328 -0.4525  0.3190 -0.1189
   81SAPS   H3R 7519   2.331   0.422  10.287 -0.1943  0.2900 -0.0200
   81SAPS   H3S 7520   2.219   0.292  10.263  0.4140 -0.3900 -0.9665
   81SAPS   C24 7521   2.417   0.223  10.305 -0.1364  0.1153  0.1977
   81SAPS   H4R 7522   2.433   0.209  10.196  0.7537 -0.7713  0.4308
   81SAPS   H4S 7523   2.385   0.131  10.357  1.7602 -0.3915  0.5568
   81SAPS   C25 7524   2.545   0.270  10.369 -0.1131  0.2577 -0.1474
   81SAPS   H5R 7525   2.570   0.223  10.465  1.2527  0.1080 -0.5520
   81SAPS   C26 7526   2.624   0.363  10.328 -0.7450  0.2236  0.7813
   81SAPS   H6R 7527   2.718   0.381  10.383  0.1928  2.0337 -1.2789
   81SAPS   C27 7528   2.612   0.434  10.190  0.3917 -0.1013 -0.2063
   81SAPS   H7R 7529   2.553   0.372  10.119  0.5722 -0.0766 -0.3789
   81SAPS   H7S 7530   2.716   0.443  10.152  1.6817 -1.1065  2.8031
   81SAPS   C28 7531   2.541   0.569  10.204  0.1292  0.4920  0.7031
   81SAPS   H8R 7532   2.527   0.602  10.308  1.4928 -0.8563  1.3664
   81SAPS   C29 7533   2.489   0.640  10.103 -0.1025  0.7373 -0.1274
   81SAPS   H9R 7534   2.441   0.735  10.131  1.0549  0.9870  1.1120
   81SAPS  C210 7535   2.498   0.602   9.960  0.0054 -0.5761 -0.7556
   81SAPS  H10R 7536   2.593   0.553   9.930 -0.2124 -0.9414 -0.8519
   81SAPS  H10S 7537   2.503   0.690   9.893 -4.1071 -0.5292 -1.2749
   81SAPS  C211 7538   2.373   0.526   9.928  0.6296 -0.3003  0.5551
   81SAPS  H11R 7539   2.347   0.451  10.004 -0.1175  0.2952  0.9048
   81SAPS  C212 7540   2.301   0.528   9.812 -0.7057 -0.1265  0.1589
   81SAPS  H12R 7541   2.210   0.469   9.799 -2.3310  2.3037 -0.2123
   81SAPS  C213 7542   2.338   0.615   9.691 -0.0323 -0.1256  0.1058
   81SAPS  H13R 7543   2.446   0.629   9.674 -0.0122 -0.4134 -0.0188
   81SAPS  H13S 7544   2.309   0.719   9.718 -1.5515  0.1464 -2.2314
   81SAPS  C214 7545   2.262   0.582   9.564 -0.1034  0.7563  0.4784
   81SAPS  H14R 7546   2.154   0.560   9.571 -0.5582  2.0888 -1.4229
   81SAPS  C215 7547   2.316   0.582   9.440 -0.4235  1.2219 -0.0976
   81SAPS  H15R 7548   2.254   0.551   9.354 -0.1109  0.8992 -0.2069
   81SAPS  C216 7549   2.453   0.619   9.395 -0.3668 -0.0764 -0.2673
   81SAPS  H16R 7550   2.498   0.525   9.358 -0.3448 -0.8059  1.5190
   81SAPS  H16S 7551   2.518   0.650   9.480  0.2017 -2.2562  0.1499
   81SAPS  C217 7552   2.462   0.728   9.289 -0.1796 -0.5184  0.5224
   81SAPS  H17R 7553   2.554   0.787   9.311  0.6145 -2.4106  2.7859
   81SAPS  H17S 7554   2.368   0.788   9.296  0.5711  1.0405 -1.6795
   81SAPS  C218 7555   2.487   0.680   9.143  0.3639  0.3634  0.2512
   81SAPS  H18R 7556   2.411   0.603   9.120 -0.6144  0.8648  1.6827
   81SAPS  H18S 7557   2.579   0.619   9.153 -0.4700 -1.0313 -0.3172
   81SAPS  C219 7558   2.510   0.794   9.040 -0.0747  0.2919  0.5676
   81SAPS  H19R 7559   2.583   0.753   8.967 -1.0596 -1.1268  0.3377
   81SAPS  H19S 7560   2.557   0.883   9.086 -1.3109  1.4528 -0.3266
   81SAPS  C220 7561   2.380   0.839   8.969 -0.6995  0.1973  0.2160
   81SAPS  H20R 7562   2.408   0.930   8.912  1.3923  0.2234  1.2244
   81SAPS  H20S 7563   2.304   0.862   9.047 -0.6127 -3.0045  1.3702
   81SAPS  H20T 7564   2.342   0.765   8.896  0.1220  0.3347 -0.3592
   81SAPS   C33 7565   1.984   0.852  10.164  0.1920 -0.0994 -0.2349
   81SAPS   H3X 7566   2.067   0.889  10.100  0.2389  0.1851 -0.0134
   81SAPS   H3Y 7567   1.909   0.927  10.196  1.4176  0.5467  1.2607
   81SAPS   C34 7568   1.911   0.738  10.086 -0.5334  0.2225 -0.2757
   81SAPS   H4X 7569   1.831   0.786  10.025 -0.6474  0.6934  0.2349
   81SAPS   H4Y 7570   1.870   0.655  10.147 -0.7332  0.4979 -0.0295
   81SAPS   C35 7571   1.995   0.668   9.973 -0.6746  0.5760 -0.5363
   81SAPS   H5X 7572   2.064   0.611  10.039  1.4003  1.1286 -2.1290
   81SAPS   H5Y 7573   2.052   0.744   9.915 -0.2512  0.5149 -0.2096
   81SAPS   C36 7574   1.906   0.576   9.891  0.2094 -0.5641 -0.0559
   81SAPS   H6X 7575   1.834   0.527   9.960  0.1099  1.1420  1.0872
   81SAPS   H6Y 7576   1.967   0.494   9.848  0.0205 -0.8359  0.1904
   81SAPS   C37 7577   1.823   0.640   9.777  0.2783 -0.2536 -0.0301
   81SAPS   H7X 7578   1.886   0.696   9.706  0.2969  0.9214  0.8956
   81SAPS   H7Y 7579   1.748   0.712   9.817 -1.1907  0.6464 -3.9349
   81SAPS   C38 7580   1.721   0.540   9.711 -0.3082 -0.3000 -0.2614
   81SAPS   H8X 7581   1.676   0.487   9.797 -0.7257 -0.1224 -0.3692
   81SAPS   H8Y 7582   1.775   0.470   9.644  0.9268  0.9603 -0.6247
   81SAPS   C39 7583   1.624   0.598   9.607  0.0180  0.0655 -0.3252
   81SAPS   H9X 7584   1.674   0.659   9.529  1.6186  0.5002  0.9973
   81SAPS   H9Y 7585   1.565   0.677   9.659  1.9034  0.9222  0.6344
   81SAPS  C310 7586   1.523   0.493   9.560  1.0927  1.1834 -0.4296
   81SAPS  H10X 7587   1.438   0.470   9.627  0.2791 -1.8069 -2.2747
   81SAPS  H10Y 7588   1.578   0.398   9.539 -1.2436 -0.7728  1.7209
   81SAPS  C311 7589   1.459   0.531   9.423  0.0283 -0.5976  0.3302
   81SAPS  H11X 7590   1.526   0.599   9.367 -1.1042  0.5337  0.2909
   81SAPS  H11Y 7591   1.371   0.598   9.439  0.6150  0.1750  0.3697
   81SAPS  C312 7592   1.408   0.417   9.341  0.0275  0.5591  0.0992
   81SAPS  H12X 7593   1.320   0.381   9.398  0.7939  1.1863  1.7431
   81SAPS  H12Y 7594   1.478   0.331   9.337 -1.0856 -0.3517 -3.6362
   81SAPS  C313 7595   1.363   0.448   9.191 -0.1188 -0.3047 -0.4144
   81SAPS  H13X 7596   1.460   0.478   9.146  1.2114  1.7748  3.3246
   81SAPS  H13Y 7597   1.303   0.541   9.196 -0.3367 -0.4780  0.4367
   81SAPS  C314 7598   1.289   0.347   9.099  0.5406 -0.4668 -0.0691
   81SAPS  H14X 7599   1.264   0.382   8.997 -1.8094 -0.2864  0.5273
   81SAPS  H14Y 7600   1.199   0.310   9.152  0.6948 -1.3495 -0.3996
   81SAPS  C315 7601   1.376   0.222   9.076 -0.1070 -0.2734 -0.9120
   81SAPS  H15X 7602   1.403   0.179   9.176 -2.1610  0.1757 -0.1105
   81SAPS  H15Y 7603   1.473   0.246   9.027  0.3220 -1.3239 -0.6179
   81SAPS  C316 7604   1.301   0.123   8.996 -0.1944 -0.0354  0.1239
   81SAPS  H16X 7605   1.200   0.117   9.042 -1.1319 -0.4429 -1.8670
   81SAPS  H16Y 7606   1.357   0.027   9.003  2.1767  1.3254  0.9354
   81SAPS  C317 7607   1.303   0.176   8.859 -0.7478 -0.3085  0.0860
   81SAPS  H17X 7608   1.408   0.191   8.828  0.0452 -5.5333 -0.6838
   81SAPS  H17Y 7609   1.257   0.274   8.832  1.9846  0.3513 -2.7517
   81SAPS  C318 7610   1.245   0.078   8.755 -0.2105  0.8305  0.1106
   81SAPS  H18X 7611   1.140   0.055   8.785  0.2737 -3.0226 -0.5929
   81SAPS  H18Y 7612   1.297  -0.020   8.768 -0.2067  0.6606 -1.0897
   81SAPS  H18Z 7613   1.262   0.104   8.649 -1.9063 -1.8621 -0.9502
   82SAPS     N 7614   1.224   6.421  10.674  0.6603 -0.1756 -0.5059
   82SAPS   HN1 7615   1.198   6.476  10.758 -2.2240 -2.2724  0.1017
   82SAPS   HN2 7616   1.328   6.418  10.678  0.6153 -0.8177  2.1646
   82SAPS   HN3 7617   1.185   6.469  10.591  0.2384 -0.0199 -0.2230
   82SAPS   C12 7618   1.167   6.291  10.692  0.1073 -0.2400 -0.2586
   82SAPS  H12A 7619   1.229   6.219  10.642  0.7238 -0.5785  0.9475
   82SAPS   C13 7620   1.163   6.230  10.837 -0.6122 -0.1773 -0.1526
   82SAPS  O13A 7621   1.201   6.304  10.933 -0.0669 -0.1922 -0.0838
   82SAPS  O13B 7622   1.117   6.117  10.855  0.3586 -0.4120 -0.0147
   82SAPS   C11 7623   1.029   6.305  10.631  0.9653 -0.6231  0.0701
   82SAPS  H11A 7624   0.983   6.204  10.626  2.6549 -1.4411  0.1695
   82SAPS  H11B 7625   1.041   6.332  10.523 -3.7034  2.7425  0.1001
   82SAPS     P 7626   0.884   6.535  10.679  0.1916 -0.1439 -0.0288
   82SAPS   O13 7627   0.758   6.555  10.756  0.3091  0.4256  0.5482
   82SAPS   O14 7628   0.984   6.640  10.684 -0.2254 -0.2198  0.9303
   82SAPS   O12 7629   0.951   6.391  10.705  0.6598 -0.1375 -0.6546
   82SAPS   O11 7630   0.850   6.506  10.534 -0.2712  0.2532 -0.6525
   82SAPS    C1 7631   0.908   6.580  10.420 -0.3384  0.8475 -0.0017
   82SAPS    HA 7632   1.019   6.592  10.429 -0.3787  1.5155 -0.3345
   82SAPS    HB 7633   0.887   6.528  10.325  0.6433 -2.3998  1.4338
   82SAPS    C2 7634   0.844   6.727  10.414 -0.0101  0.5793  0.0180
   82SAPS    HS 7635   0.890   6.776  10.502  2.5215 -2.5309  0.6266
   82SAPS   O21 7636   0.702   6.709  10.422  0.1517 -0.3139  0.4835
   82SAPS   C21 7637   0.636   6.821  10.451 -0.2795  0.0843  0.0352
   82SAPS   O22 7638   0.690   6.924  10.489 -0.1096 -0.0044  0.1918
   82SAPS   C22 7639   0.486   6.784  10.439  0.0906  0.5372 -0.4736
   82SAPS   H2R 7640   0.433   6.840  10.520 -2.2927 -1.2147 -0.7197
   82SAPS   H2S 7641   0.450   6.819  10.340  2.7053 -0.3708 -1.8276
   82SAPS    C3 7642   0.889   6.802  10.278  0.0704 -0.2613  0.2373
   82SAPS    HX 7643   0.999   6.790  10.277 -0.0583 -1.6476 -0.7793
   82SAPS    HY 7644   0.851   6.906  10.275  0.0004 -0.2270  1.5531
   82SAPS   O31 7645   0.841   6.726  10.166  0.1705  0.4690 -0.1836
   82SAPS   C31 7646   0.726   6.767  10.107  0.9353  0.2291 -1.6676
   82SAPS   O32 7647   0.665   6.871  10.128  0.6707  0.2873  0.7461
   82SAPS   C32 7648   0.680   6.670  10.001  0.9500 -0.2970  0.0829
   82SAPS   H2X 7649   0.649   6.575  10.050  0.7956 -0.2193  0.1376
   82SAPS   H2Y 7650   0.751   6.654   9.917 -0.6054  1.0058 -1.5367
   82SAPS   C23 7651   0.465   6.631  10.468  0.1317 -0.3903  0.4898
   82SAPS   H3R 7652   0.363   6.619  10.512 -0.2657  0.8044 -0.0600
   82SAPS   H3S 7653   0.527   6.582  10.546 -0.4667 -3.3134 -0.7436
   82SAPS   C24 7654   0.452   6.550  10.334 -0.5479  0.7731  0.2833
   82SAPS   H4R 7655   0.418   6.448  10.359 -0.7939  1.0596  1.1535
   82SAPS   H4S 7656   0.554   6.550  10.289 -0.5144  1.1467  0.3549
   82SAPS   C25 7657   0.363   6.603  10.224 -0.7315  0.0963 -0.2405
   82SAPS   H5R 7658   0.384   6.708  10.199  0.0098  0.0434  0.1455
   82SAPS   C26 7659   0.280   6.532  10.144 -0.3695  0.1927  0.7102
   82SAPS   H6R 7660   0.219   6.590  10.073  0.2122 -0.4108 -0.3116
   82SAPS   C27 7661   0.254   6.382  10.135 -0.4463  0.0164  0.0805
   82SAPS   H7R 7662   0.250   6.329  10.233 -1.9580  2.2309  1.3070
   82SAPS   H7S 7663   0.335   6.333  10.077  0.1012  0.0290  0.8328
   82SAPS   C28 7664   0.123   6.349  10.078  0.5326 -0.1428  0.0382
   82SAPS   H8R 7665   0.038   6.392  10.133  0.6995  2.5272 -1.5981
   82SAPS   C29 7666   0.103   6.271   9.972 -0.3316 -0.0700  0.3948
   82SAPS   H9R 7667  -0.001   6.274   9.935  0.4734 -0.4807 -2.0958
   82SAPS  C210 7668   0.208   6.204   9.880  0.1498 -0.4467 -0.0288
   82SAPS  H10R 7669   0.202   6.100   9.919  3.1226 -0.8107 -0.2997
   82SAPS  H10S 7670   0.308   6.238   9.916 -0.1030 -0.6960  0.9423
   82SAPS  C211 7671   0.192   6.216   9.732  0.2408  0.2163  0.1344
   82SAPS  H11R 7672   0.116   6.287   9.694  0.1984 -0.9821 -2.2305
   82SAPS  C212 7673   0.262   6.149   9.642  0.5185  0.4826  0.2074
   82SAPS  H12R 7674   0.240   6.164   9.535 -0.3065 -0.6721  0.1929
   82SAPS  C213 7675   0.376   6.048   9.669  0.3611  0.3593 -0.1946
   82SAPS  H13R 7676   0.334   5.947   9.651 -3.9639  1.5080  2.1516
   82SAPS  H13S 7677   0.397   6.058   9.777 -0.9354  3.6581 -0.1317
   82SAPS  C214 7678   0.493   6.052   9.581  0.0620 -0.5926  0.4762
   82SAPS  H14R 7679   0.498   6.136   9.510  2.5516 -1.2360 -0.1932
   82SAPS  C215 7680   0.592   5.963   9.585  0.1328 -0.9787  0.4367
   82SAPS  H15R 7681   0.674   5.979   9.513 -0.1223  4.4315  0.9141
   82SAPS  C216 7682   0.599   5.842   9.674 -0.0065 -0.5825 -0.1176
   82SAPS  H16R 7683   0.656   5.763   9.621 -2.4917 -1.8353 -1.0556
   82SAPS  H16S 7684   0.505   5.783   9.681 -0.4980  0.2524  0.3749
   82SAPS  C217 7685   0.644   5.857   9.820  0.2352 -0.2025 -0.3930
   82SAPS  H17R 7686   0.565   5.905   9.882 -0.0186 -1.8169  0.5871
   82SAPS  H17S 7687   0.729   5.929   9.823  1.8663 -2.0694  0.1842
   82SAPS  C218 7688   0.694   5.737   9.909  0.3535 -0.4874 -0.0235
   82SAPS  H18R 7689   0.744   5.772  10.002  0.1262 -2.2246  0.7969
   82SAPS  H18S 7690   0.778   5.687   9.855 -1.5404  0.8424 -4.7421
   82SAPS  C219 7691   0.582   5.632   9.925 -0.4442  0.2171  0.7671
   82SAPS  H19R 7692   0.553   5.592   9.825 -2.1231  0.6911  1.0388
   82SAPS  H19S 7693   0.485   5.677   9.955 -1.4896 -1.4603  0.0569
   82SAPS  C220 7694   0.623   5.523  10.016  0.1735  0.0402 -0.4083
   82SAPS  H20R 7695   0.703   5.455   9.979 -1.4932 -1.8792 -0.6728
   82SAPS  H20S 7696   0.529   5.465  10.031 -1.4669  2.9023  1.4109
   82SAPS  H20T 7697   0.647   5.561  10.118  1.7709  2.2067 -1.5126
   82SAPS   C33 7698   0.559   6.720   9.923  0.1230  0.8851 -0.3204
   82SAPS   H3X 7699   0.586   6.812   9.868  0.2152  0.3714 -1.1502
   82SAPS   H3Y 7700   0.477   6.748   9.992  0.8687 -0.1349  1.0187
   82SAPS   C34 7701   0.519   6.615   9.826 -0.1541 -0.8615  0.7661
   82SAPS   H4X 7702   0.512   6.523   9.887 -1.8313  0.0285  1.9938
   82SAPS   H4Y 7703   0.604   6.595   9.757  0.3073  0.5750  0.8898
   82SAPS   C35 7704   0.393   6.644   9.738  0.5726  0.0064  0.0236
   82SAPS   H5X 7705   0.413   6.731   9.671  0.6903  0.0337  0.0942
   82SAPS   H5Y 7706   0.310   6.680   9.803  1.7390  0.8815  1.0786
   82SAPS   C36 7707   0.350   6.523   9.650  0.4144  0.6359 -1.0688
   82SAPS   H6X 7708   0.264   6.480   9.706  2.4424 -0.5748  1.3726
   82SAPS   H6Y 7709   0.433   6.450   9.645  1.0039  1.3562 -2.3108
   82SAPS   C37 7710   0.306   6.550   9.514  0.2843 -0.2748 -0.0845
   82SAPS   H7X 7711   0.224   6.624   9.507  1.0843  0.5897 -0.5563
   82SAPS   H7Y 7712   0.270   6.455   9.467  1.4660 -1.0802  0.5650
   82SAPS   C38 7713   0.420   6.597   9.428 -0.4385 -0.0854 -0.3859
   82SAPS   H8X 7714   0.512   6.535   9.436 -2.0520 -2.7205 -0.7097
   82SAPS   H8Y 7715   0.442   6.701   9.460  1.1059  0.0867 -1.8446
   82SAPS   C39 7716   0.395   6.599   9.277 -0.8757 -0.4508 -0.0955
   82SAPS   H9X 7717   0.308   6.661   9.247 -0.0756  0.6133 -0.3069
   82SAPS   H9Y 7718   0.372   6.500   9.232 -0.9866 -0.8738  0.8587
   82SAPS  C310 7719   0.518   6.659   9.207 -0.9722 -0.0009 -0.5595
   82SAPS  H10X 7720   0.616   6.618   9.239 -0.5763  0.7797 -0.7720
   82SAPS  H10Y 7721   0.527   6.768   9.229 -1.6914  0.2174 -1.3105
   82SAPS  C311 7722   0.511   6.636   9.052 -0.3565  0.7572  0.4669
   82SAPS  H11X 7723   0.444   6.710   9.002 -0.5273  0.3969  0.1626
   82SAPS  H11Y 7724   0.467   6.538   9.027  0.8484  0.3552 -0.1701
   82SAPS  C312 7725   0.638   6.651   8.975 -0.1944 -0.1427  0.1653
   82SAPS  H12X 7726   0.725   6.593   9.014  1.0198  0.3881 -1.6721
   82SAPS  H12Y 7727   0.674   6.755   8.986 -0.9470  0.4382 -2.3543
   82SAPS  C313 7728   0.629   6.632   8.824 -0.2570  0.1313  0.7153
   82SAPS  H13X 7729   0.546   6.701   8.797 -0.9019  0.2213  2.7421
   82SAPS  H13Y 7730   0.583   6.532   8.813  0.6676 -0.1373 -1.0085
   82SAPS  C314 7731   0.756   6.653   8.741 -0.8444 -0.2503  0.1397
   82SAPS  H14X 7732   0.801   6.751   8.769 -0.2983 -0.9184  1.7164
   82SAPS  H14Y 7733   0.726   6.657   8.634 -3.0063 -0.7434  0.6865
   82SAPS  C315 7734   0.858   6.543   8.768  0.0379 -0.0075 -0.0363
   82SAPS  H15X 7735   0.813   6.442   8.767 -1.6222  0.6668  1.3532
   82SAPS  H15Y 7736   0.898   6.552   8.871 -0.6522 -0.9727  0.3277
   82SAPS  C316 7737   0.980   6.540   8.668  0.3399 -0.3668 -0.2840
   82SAPS  H16X 7738   1.069   6.497   8.719 -0.2065  0.0164  1.0400
   82SAPS  H16Y 7739   1.006   6.645   8.643  1.3372 -0.8063 -1.1665
   82SAPS  C317 7740   0.957   6.463   8.537 -0.1802 -0.2418 -0.2320
   82SAPS  H17X 7741   0.870   6.520   8.497  1.2378  1.4716 -1.0006
   82SAPS  H17Y 7742   0.936   6.355   8.550 -3.0430  0.2436 -0.1354
   82SAPS  C318 7743   1.073   6.490   8.435  0.1300  0.0832  0.0028
   82SAPS  H18X 7744   1.062   6.422   8.348 -0.1019 -0.7113  0.6365
   82SAPS  H18Y 7745   1.169   6.477   8.490  0.9770  0.7991 -1.2512
   82SAPS  H18Z 7746   1.078   6.594   8.396 -0.2883  0.7967  1.7671
   83SAPS     N 7747   3.154   0.937  11.134  0.0254 -0.5112 -0.3542
   83SAPS   HN1 7748   3.127   0.844  11.094 -1.7048 -0.6798  1.0710
   83SAPS   HN2 7749   3.110   1.010  11.074  1.1155  0.2524 -0.2394
   83SAPS   HN3 7750   3.256   0.955  11.129 -0.4230  2.1403 -3.2059
   83SAPS   C12 7751   3.101   0.950  11.273  0.7430 -0.3904 -0.2296
   83SAPS  H12A 7752   3.092   0.851  11.317  0.2433 -0.1108  0.3158
   83SAPS   C13 7753   3.187   1.022  11.368 -0.5444 -0.6768  0.0942
   83SAPS  O13A 7754   3.305   1.043  11.321  0.1218  0.3111  0.0226
   83SAPS  O13B 7755   3.153   1.037  11.490  0.0109  0.5968  0.2999
   83SAPS   C11 7756   2.959   1.019  11.267  0.0032 -0.2330 -0.1940
   83SAPS  H11A 7757   2.976   1.128  11.252  0.0167 -0.2803 -0.5190
   83SAPS  H11B 7758   2.910   0.997  11.364  2.8177 -0.6378  1.2357
   83SAPS     P 7759   2.716   0.981  11.158  0.2221  0.3049 -0.3625
   83SAPS   O13 7760   2.662   0.958  11.291  0.7693  0.1742 -0.4562
   83SAPS   O14 7761   2.681   1.109  11.096  0.2128 -0.4178  0.3175
   83SAPS   O12 7762   2.871   0.959  11.164  0.3980 -0.3523 -0.2804
   83SAPS   O11 7763   2.672   0.863  11.061  0.6587  0.3765  0.1876
   83SAPS    C1 7764   2.762   0.805  10.963 -0.3275  0.1442  0.1029
   83SAPS    HA 7765   2.864   0.796  11.006 -0.1115  2.4454  0.1901
   83SAPS    HB 7766   2.728   0.700  10.950  0.1957 -0.0964  0.6398
   83SAPS    C2 7767   2.765   0.874  10.818 -0.0648  0.4422  0.0307
   83SAPS    HS 7768   2.794   0.977  10.848  1.8726 -0.8975  3.3186
   83SAPS   O21 7769   2.625   0.857  10.776  0.1448 -0.4200  0.5575
   83SAPS   C21 7770   2.582   0.956  10.702  0.6538 -0.3899 -0.0866
   83SAPS   O22 7771   2.640   1.063  10.693  0.1199 -0.3549  0.3944
   83SAPS   C22 7772   2.438   0.930  10.649  0.3999  0.6013 -0.1219
   83SAPS   H2R 7773   2.455   0.841  10.584  1.5559  2.3171 -2.2863
   83SAPS   H2S 7774   2.371   0.903  10.733  3.7192  0.1980  2.6182
   83SAPS    C3 7775   2.872   0.812  10.713 -0.2467  0.1347 -0.0846
   83SAPS    HX 7776   2.832   0.711  10.689 -1.1546  0.5266 -0.2765
   83SAPS    HY 7777   2.967   0.815  10.770 -1.6697  0.4279  2.4303
   83SAPS   O31 7778   2.893   0.900  10.595  0.2500 -0.1810  0.7105
   83SAPS   C31 7779   2.810   0.892  10.495  0.2802  0.2737  0.7964
   83SAPS   O32 7780   2.730   0.798  10.474 -0.4722  0.6129 -0.2317
   83SAPS   C32 7781   2.810   1.031  10.423  0.5872  0.6717  0.9972
   83SAPS   H2X 7782   2.916   1.063  10.411  0.4429  0.7781 -0.1475
   83SAPS   H2Y 7783   2.758   1.100  10.492 -0.1463  1.9718 -0.7853
   83SAPS   C23 7784   2.369   1.042  10.562  0.1117  0.1137  0.2198
   83SAPS   H3R 7785   2.371   1.134  10.625 -0.6883  0.2876  0.0019
   83SAPS   H3S 7786   2.263   1.013  10.549 -0.0075  0.2125  0.9256
   83SAPS   C24 7787   2.444   1.084  10.435 -0.0121  0.2626 -0.4031
   83SAPS   H4R 7788   2.448   0.997  10.367  1.2139  1.2357 -1.6372
   83SAPS   H4S 7789   2.546   1.119  10.462 -0.5695  0.9161  0.9458
   83SAPS   C25 7790   2.382   1.203  10.373  0.4281  0.0004  0.2539
   83SAPS   H5R 7791   2.350   1.280  10.445  2.0434  1.9941 -1.0431
   83SAPS   C26 7792   2.356   1.210  10.241 -0.3006  0.2066  0.7746
   83SAPS   H6R 7793   2.300   1.298  10.205 -0.7505  0.1822  1.4155
   83SAPS   C27 7794   2.406   1.123  10.124  0.4556 -0.4967 -0.2373
   83SAPS   H7R 7795   2.418   1.025  10.176  0.7017 -1.0006 -1.2319
   83SAPS   H7S 7796   2.503   1.167  10.093  0.9555 -0.9637  0.6253
   83SAPS   C28 7797   2.301   1.123  10.016 -0.2680  0.0991  0.5791
   83SAPS   H8R 7798   2.204   1.079  10.046 -0.5754  0.8026  0.6256
   83SAPS   C29 7799   2.307   1.174   9.891  0.4004  0.8869  0.1592
   83SAPS   H9R 7800   2.215   1.188   9.831  0.8638 -1.0110 -1.0716
   83SAPS  C210 7801   2.423   1.237   9.822 -0.1576  0.4810 -0.2484
   83SAPS  H10R 7802   2.479   1.163   9.762  0.9065  1.3556 -0.3696
   83SAPS  H10S 7803   2.496   1.274   9.897 -1.9918  0.6457  1.5388
   83SAPS  C211 7804   2.390   1.352   9.728  0.9616  1.1450 -0.0336
   83SAPS  H11R 7805   2.324   1.432   9.764 -0.5077  0.0361 -0.1703
   83SAPS  C212 7806   2.420   1.355   9.591  0.3669 -0.1080 -1.0728
   83SAPS  H12R 7807   2.374   1.436   9.533 -0.8977  0.0707  0.1283
   83SAPS  C213 7808   2.508   1.260   9.517  0.4690 -1.3186 -0.5583
   83SAPS  H13R 7809   2.591   1.236   9.587 -0.2729  1.7692  1.5958
   83SAPS  H13S 7810   2.565   1.325   9.447  1.6135  0.6581  2.0555
   83SAPS  C214 7811   2.442   1.143   9.458  0.4028  0.3469 -0.1585
   83SAPS  H14R 7812   2.390   1.073   9.525  0.9965  1.3713  1.4407
   83SAPS  C215 7813   2.460   1.108   9.332 -0.2569  0.1898  0.1260
   83SAPS  H15R 7814   2.388   1.035   9.292 -2.5130  1.4575  1.6540
   83SAPS  C216 7815   2.533   1.191   9.225 -0.1832 -0.4769  0.5163
   83SAPS  H16R 7816   2.574   1.131   9.141  0.5388 -1.0036  1.2317
   83SAPS  H16S 7817   2.627   1.232   9.268 -0.0442 -0.6999  0.4252
   83SAPS  C217 7818   2.459   1.324   9.157 -0.3731 -0.8394  0.1826
   83SAPS  H17R 7819   2.529   1.379   9.091 -1.1027 -0.6630 -0.4543
   83SAPS  H17S 7820   2.438   1.407   9.228  0.9327 -1.4522  1.3400
   83SAPS  C218 7821   2.328   1.285   9.088 -0.6852 -1.5164  0.3446
   83SAPS  H18R 7822   2.274   1.381   9.072  0.3069 -0.5189  2.5364
   83SAPS  H18S 7823   2.268   1.210   9.144  0.2912 -2.0083  0.7505
   83SAPS  C219 7824   2.353   1.222   8.951 -0.3293 -0.3005 -0.1625
   83SAPS  H19R 7825   2.428   1.141   8.948 -0.6399 -0.7875  2.7245
   83SAPS  H19S 7826   2.406   1.301   8.894  2.3762  1.4166  4.1854
   83SAPS  C220 7827   2.225   1.183   8.888  0.6929 -0.0562 -0.0838
   83SAPS  H20R 7828   2.151   1.137   8.957 -0.4337  0.2498 -1.0681
   83SAPS  H20S 7829   2.237   1.124   8.795 -2.6507  3.2734 -2.9585
   83SAPS  H20T 7830   2.181   1.275   8.844  1.4046 -0.0383 -0.7810
   83SAPS   C33 7831   2.750   1.032  10.273 -0.6779 -0.0194  0.2095
   83SAPS   H3X 7832   2.744   1.140  10.248  1.5294 -0.0482 -0.6599
   83SAPS   H3Y 7833   2.646   0.995  10.266 -0.8005  0.2627  0.4850
   83SAPS   C34 7834   2.841   0.962  10.175  0.2662  0.0461  0.2786
   83SAPS   H4X 7835   2.822   0.853  10.173 -0.1393  0.1012 -2.9922
   83SAPS   H4Y 7836   2.948   0.979  10.197  0.6856 -0.6952 -1.0800
   83SAPS   C35 7837   2.810   0.994  10.028 -0.0480  0.2665 -0.1829
   83SAPS   H5X 7838   2.904   0.977   9.971  0.4552 -0.1099  0.7319
   83SAPS   H5Y 7839   2.796   1.104  10.022 -0.5952  0.1955 -0.2403
   83SAPS   C36 7840   2.698   0.922   9.962  0.1278  0.3923  0.8272
   83SAPS   H6X 7841   2.598   0.934  10.010  0.3577 -0.2855  1.4888
   83SAPS   H6Y 7842   2.711   0.812   9.972  0.1069  0.4473  1.4914
   83SAPS   C37 7843   2.688   0.955   9.812  0.1830  0.1146 -0.7442
   83SAPS   H7X 7844   2.719   1.061   9.795  0.0526  0.0476 -1.4363
   83SAPS   H7Y 7845   2.588   0.951   9.765  0.7831  1.0276 -2.1712
   83SAPS   C38 7846   2.766   0.864   9.713 -0.5067 -0.9000 -0.2557
   83SAPS   H8X 7847   2.725   0.761   9.706 -2.4900 -0.0927 -1.3797
   83SAPS   H8Y 7848   2.868   0.861   9.756 -0.2452 -1.1051 -0.8813
   83SAPS   C39 7849   2.765   0.935   9.575  0.1052  0.6147  0.8561
   83SAPS   H9X 7850   2.824   1.028   9.587  2.6991 -0.8127 -0.0565
   83SAPS   H9Y 7851   2.663   0.964   9.540  0.0726 -0.1008  0.3410
   83SAPS  C310 7852   2.837   0.860   9.465 -0.0298  0.4462 -0.0620
   83SAPS  H10X 7853   2.795   0.758   9.447 -0.5507  0.7768 -0.8009
   83SAPS  H10Y 7854   2.944   0.847   9.490 -0.0763 -0.6785 -0.3802
   83SAPS  C311 7855   2.834   0.935   9.326  0.2453  0.0310 -0.3823
   83SAPS  H11X 7856   2.895   1.028   9.333  4.4898 -2.5390  0.3508
   83SAPS  H11Y 7857   2.728   0.957   9.301  0.6047 -0.0565 -2.0804
   83SAPS  C312 7858   2.897   0.857   9.208  0.3214 -0.7299 -0.6289
   83SAPS  H12X 7859   2.901   0.925   9.119  0.9299 -1.3587 -1.0952
   83SAPS  H12Y 7860   2.820   0.784   9.176  0.7768 -3.2349  3.3415
   83SAPS  C313 7861   3.032   0.788   9.231 -0.7668 -0.5563  0.4163
   83SAPS  H13X 7862   3.021   0.714   9.312  1.3716  2.2213  3.4823
   83SAPS  H13Y 7863   3.096   0.864   9.280 -1.5981 -0.5593  1.5315
   83SAPS  C314 7864   3.109   0.732   9.106  0.5097  0.1621  0.2753
   83SAPS  H14X 7865   3.119   0.817   9.034 -1.2416  0.3420  0.2020
   83SAPS  H14Y 7866   3.048   0.652   9.059 -0.6468  0.2484  1.5645
   83SAPS  C315 7867   3.247   0.673   9.137 -0.4824 -1.0449  0.0928
   83SAPS  H15X 7868   3.279   0.615   9.048  0.5121  0.9404 -0.9336
   83SAPS  H15Y 7869   3.244   0.614   9.230 -3.9007 -0.7483  0.3047
   83SAPS  C316 7870   3.344   0.785   9.158 -0.2946  0.2838 -0.1635
   83SAPS  H16X 7871   3.330   0.834   9.257  1.3659 -2.4018  1.5135
   83SAPS  H16Y 7872   3.333   0.860   9.077  1.8513 -1.2020 -1.9145
   83SAPS  C317 7873   3.484   0.727   9.157  0.8870  0.2208 -0.2105
   83SAPS  H17X 7874   3.497   0.683   9.056  0.1264  0.2396 -0.3160
   83SAPS  H17Y 7875   3.468   0.646   9.233 -1.8117  0.8575 -0.0109
   83SAPS  C318 7876   3.585   0.829   9.186 -0.0750  0.1735  0.4550
   83SAPS  H18X 7877   3.560   0.924   9.135 -1.1563  0.0571  0.7302
   83SAPS  H18Y 7878   3.692   0.803   9.174 -0.6402 -1.7587 -0.8890
   83SAPS  H18Z 7879   3.580   0.853   9.295 -0.2333  1.1893  0.2242
   84SAPS     N 7880   4.840   3.164  11.043  0.1739  0.0794 -0.4536
   84SAPS   HN1 7881   4.861   3.203  11.138  1.6196  0.4064 -0.8819
   84SAPS   HN2 7882   4.927   3.136  10.994 -0.7631 -0.0231 -2.1137
   84SAPS   HN3 7883   4.792   3.234  10.983  0.3033  0.1117 -0.5195
   84SAPS   C12 7884   4.760   3.036  11.046 -0.1400 -0.0361 -0.3918
   84SAPS  H12A 7885   4.744   3.012  10.942  1.3542  1.1661 -0.9451
   84SAPS   C13 7886   4.827   2.918  11.119  0.0424 -0.3913  0.1540
   84SAPS  O13A 7887   4.936   2.937  11.184 -0.0567  0.0535  0.2315
   84SAPS  O13B 7888   4.792   2.803  11.090  0.3050  0.5212  0.2744
   84SAPS   C11 7889   4.632   3.051  11.136  0.3099  0.6475  0.5970
   84SAPS  H11A 7890   4.654   3.093  11.236  0.5436 -0.6383  1.1042
   84SAPS  H11B 7891   4.584   2.954  11.161 -0.1809  1.1182  1.5216
   84SAPS     P 7892   4.407   3.100  10.999 -0.0032  0.0305 -0.7630
   84SAPS   O13 7893   4.312   3.043  11.099  0.0794 -0.2128  0.1545
   84SAPS   O14 7894   4.355   3.218  10.931 -0.0421 -0.0437  0.4448
   84SAPS   O12 7895   4.541   3.144  11.068 -0.5252  0.6525 -0.4481
   84SAPS   O11 7896   4.451   2.995  10.894 -0.5996  0.5239  0.2718
   84SAPS    C1 7897   4.486   3.039  10.763  0.0356  0.6529  0.1199
   84SAPS    HA 7898   4.524   3.144  10.769 -0.0213  0.6483  0.6099
   84SAPS    HB 7899   4.567   2.977  10.719  1.0552  1.4484  0.7875
   84SAPS    C2 7900   4.365   3.033  10.671 -0.1110 -0.2586  0.1045
   84SAPS    HS 7901   4.291   3.103  10.715 -0.3818 -1.7056  2.0960
   84SAPS   O21 7902   4.316   2.899  10.661  0.0061 -0.0723 -0.2702
   84SAPS   C21 7903   4.191   2.898  10.637 -0.6203  0.8030 -0.3591
   84SAPS   O22 7904   4.107   2.993  10.637 -0.2383 -0.1608  0.0722
   84SAPS   C22 7905   4.153   2.763  10.586  0.0435 -0.4689 -0.0794
   84SAPS   H2R 7906   4.249   2.716  10.555 -0.4626 -1.1117 -0.7166
   84SAPS   H2S 7907   4.113   2.710  10.675 -0.3751  0.4545  0.2960
   84SAPS    C3 7908   4.405   3.080  10.520 -0.4416 -0.2722  0.2025
   84SAPS    HX 7909   4.457   3.178  10.518  0.0018 -0.4265  2.2603
   84SAPS    HY 7910   4.309   3.081  10.465  0.1012 -2.4443 -0.9087
   84SAPS   O31 7911   4.504   2.981  10.460  0.1216  0.1990  0.3624
   84SAPS   C31 7912   4.469   2.925  10.341  0.3104  0.6849 -0.2649
   84SAPS   O32 7913   4.367   2.950  10.286  0.1872 -0.3862 -0.2362
   84SAPS   C32 7914   4.580   2.824  10.297  0.2578 -0.3039 -0.3596
   84SAPS   H2X 7915   4.601   2.758  10.384  1.6068  1.3536  0.6203
   84SAPS   H2Y 7916   4.667   2.886  10.266  0.0737 -0.6176 -1.5823
   84SAPS   C23 7917   4.049   2.772  10.465 -0.2782  0.0233 -1.0731
   84SAPS   H3R 7918   4.073   2.846  10.385  2.7558 -0.1447 -0.4673
   84SAPS   H3S 7919   3.954   2.804  10.511 -0.3061  0.0633 -1.1572
   84SAPS   C24 7920   3.999   2.635  10.405  0.2387 -0.6938 -0.2421
   84SAPS   H4R 7921   3.911   2.659  10.341  0.0303 -0.5560  0.0921
   84SAPS   H4S 7922   3.954   2.582  10.491 -0.3606  0.7271  0.3665
   84SAPS   C25 7923   4.105   2.563  10.325 -0.4490 -0.4971 -0.1514
   84SAPS   H5R 7924   4.167   2.494  10.384 -0.9957 -1.1934 -0.3714
   84SAPS   C26 7925   4.137   2.567  10.193 -0.0663  1.1050  0.0211
   84SAPS   H6R 7926   4.224   2.509  10.159  0.7264  1.8944  0.6594
   84SAPS   C27 7927   4.060   2.655  10.096  0.1230 -0.1383 -0.1321
   84SAPS   H7R 7928   3.983   2.714  10.151  0.3344 -0.6317  0.7130
   84SAPS   H7S 7929   4.009   2.605  10.011 -2.0068  1.3928  0.1477
   84SAPS   C28 7930   4.154   2.761  10.043 -0.1479 -0.7468  1.0485
   84SAPS   H8R 7931   4.203   2.821  10.121  1.6706 -1.1464  0.2638
   84SAPS   C29 7932   4.187   2.802   9.917  0.2796  0.3894  0.0216
   84SAPS   H9R 7933   4.264   2.879   9.913  1.1289 -0.3445  1.5440
   84SAPS  C210 7934   4.138   2.741   9.785  0.1377 -0.7413 -0.4715
   84SAPS  H10R 7935   4.080   2.817   9.728  1.7855 -0.2065 -1.4720
   84SAPS  H10S 7936   4.068   2.656   9.800  0.9416 -1.6135 -1.5391
   84SAPS  C211 7937   4.259   2.697   9.722 -0.4167  0.3578  0.5491
   84SAPS  H11R 7938   4.338   2.655   9.786 -0.1317  0.9534  0.5929
   84SAPS  C212 7939   4.294   2.724   9.595 -0.0675 -0.6969  0.1821
   84SAPS  H12R 7940   4.387   2.677   9.560  0.1360  0.0544 -0.3174
   84SAPS  C213 7941   4.221   2.806   9.484 -0.0842  0.2202  0.6409
   84SAPS  H13R 7942   4.280   2.809   9.390  0.7191  1.6199  1.1686
   84SAPS  H13S 7943   4.211   2.912   9.517 -0.8839  0.4883 -0.3750
   84SAPS  C214 7944   4.080   2.747   9.459  0.0723 -0.5163  0.0736
   84SAPS  H14R 7945   4.035   2.687   9.540 -3.1101  0.6850 -0.6641
   84SAPS  C215 7946   4.008   2.773   9.350 -0.0925  1.1598 -0.3280
   84SAPS  H15R 7947   3.912   2.719   9.338 -0.4619  1.5206  0.8961
   84SAPS  C216 7948   4.035   2.858   9.228 -0.5399  0.2631  0.1157
   84SAPS  H16R 7949   4.111   2.935   9.251 -0.0282  0.0545 -0.8443
   84SAPS  H16S 7950   3.940   2.909   9.201 -0.6574  0.4668  0.8885
   84SAPS  C217 7951   4.087   2.780   9.116 -0.3824  0.1504  0.6680
   84SAPS  H17R 7952   4.003   2.723   9.071 -0.6633  1.1242 -0.0890
   84SAPS  H17S 7953   4.164   2.709   9.153 -2.0210 -1.5545  0.9592
   84SAPS  C218 7954   4.141   2.869   9.002  0.1667  0.2240  0.0568
   84SAPS  H18R 7955   4.250   2.865   9.020  0.0746  0.5130  0.6887
   84SAPS  H18S 7956   4.099   2.966   9.035 -0.3120  0.1778 -0.4018
   84SAPS  C219 7957   4.099   2.833   8.863  0.7236 -0.0063 -1.0655
   84SAPS  H19R 7958   3.991   2.804   8.866  0.5981  0.3900  2.4519
   84SAPS  H19S 7959   4.155   2.746   8.823 -2.5845 -2.4073 -0.9306
   84SAPS  C220 7960   4.108   2.958   8.771  0.1044 -0.3683  0.2658
   84SAPS  H20R 7961   4.087   2.937   8.664  1.6492 -0.1948 -0.0922
   84SAPS  H20S 7962   4.207   3.009   8.771 -0.0892  0.0224 -1.1058
   84SAPS  H20T 7963   4.045   3.040   8.811  1.3028  1.3680 -1.2571
   84SAPS   C33 7964   4.537   2.757  10.158  0.1631 -0.1862 -0.1646
   84SAPS   H3X 7965   4.499   2.833  10.086 -1.5868 -1.8574 -1.0842
   84SAPS   H3Y 7966   4.443   2.701  10.177 -0.7259  1.7102  1.5598
   84SAPS   C34 7967   4.643   2.664  10.098  0.0192 -0.6313  0.4146
   84SAPS   H4X 7968   4.662   2.582  10.170 -1.7886 -0.3801  1.2451
   84SAPS   H4Y 7969   4.732   2.725  10.072  0.3790 -2.6006 -3.7822
   84SAPS   C35 7970   4.599   2.601   9.965  0.5207  0.0557 -0.2193
   84SAPS   H5X 7971   4.584   2.683   9.891 -2.2580 -0.0760  0.0779
   84SAPS   H5Y 7972   4.502   2.546   9.962  1.3305 -1.4314  0.1167
   84SAPS   C36 7973   4.715   2.516   9.907 -0.3547  0.0015 -0.5818
   84SAPS   H6X 7974   4.758   2.448   9.984 -0.5022 -0.8575 -1.2395
   84SAPS   H6Y 7975   4.800   2.580   9.876  0.9914 -0.8456  1.1553
   84SAPS   C37 7976   4.664   2.418   9.797  0.2655 -0.1008  0.2279
   84SAPS   H7X 7977   4.599   2.485   9.736  0.0656 -0.0968  0.4444
   84SAPS   H7Y 7978   4.595   2.340   9.836  0.3094  0.2585  1.0358
   84SAPS   C38 7979   4.784   2.349   9.732 -0.2409 -0.1514 -0.6587
   84SAPS   H8X 7980   4.767   2.239   9.728 -1.3768 -0.0828  1.1710
   84SAPS   H8Y 7981   4.877   2.371   9.787  0.8436  0.5343 -2.6669
   84SAPS   C39 7982   4.811   2.393   9.589  0.6304 -0.1240  0.5318
   84SAPS   H9X 7983   4.735   2.368   9.511  1.8032  0.9455 -1.0347
   84SAPS   H9Y 7984   4.901   2.337   9.554  2.5040  2.6907  0.5119
   84SAPS  C310 7985   4.831   2.536   9.569 -0.1276  0.5782  0.2153
   84SAPS  H10X 7986   4.919   2.577   9.625 -0.1528  1.3651 -0.3097
   84SAPS  H10Y 7987   4.739   2.587   9.605 -0.3855  0.4550 -0.2641
   84SAPS  C311 7988   4.829   2.582   9.415 -0.1776 -0.2176 -0.7752
   84SAPS  H11X 7989   4.728   2.561   9.373 -1.7236  3.3225  0.8181
   84SAPS  H11Y 7990   4.912   2.528   9.365  0.1572 -0.8610  0.4239
   84SAPS  C312 7991   4.843   2.732   9.398 -0.8704 -0.1113  0.3206
   84SAPS  H12X 7992   4.902   2.753   9.307  1.5271  1.8623  2.1874
   84SAPS  H12Y 7993   4.904   2.786   9.473 -0.5237 -0.8588  0.5962
   84SAPS  C313 7994   4.704   2.796   9.391  0.0668 -0.5655 -0.6337
   84SAPS  H13X 7995   4.713   2.906   9.401  1.0824 -0.6257 -0.7537
   84SAPS  H13Y 7996   4.635   2.765   9.472 -2.5080  1.7344 -1.7770
   84SAPS  C314 7997   4.635   2.765   9.256 -0.2451  0.3327 -1.0856
   84SAPS  H14X 7998   4.530   2.802   9.259 -0.9505 -1.5668 -0.7547
   84SAPS  H14Y 7999   4.617   2.656   9.246  0.7111 -0.2482  2.2073
   84SAPS  C315 8000   4.705   2.817   9.129 -0.5960  0.3805 -0.0438
   84SAPS  H15X 8001   4.810   2.780   9.129 -1.4079 -2.1329 -0.6738
   84SAPS  H15Y 8002   4.723   2.926   9.145 -0.3009  0.2444  0.5565
   84SAPS  C316 8003   4.625   2.797   9.005  0.0945  0.3452  0.2491
   84SAPS  H16X 8004   4.524   2.843   9.007 -0.5143 -0.8161 -1.6832
   84SAPS  H16Y 8005   4.614   2.689   8.981  2.3524  0.4646 -1.7778
   84SAPS  C317 8006   4.696   2.866   8.886 -0.2721  0.1546  0.8368
   84SAPS  H17X 8007   4.793   2.813   8.874 -1.0209 -1.1827  0.5014
   84SAPS  H17Y 8008   4.724   2.973   8.897 -0.3744  0.4446 -1.3768
   84SAPS  C318 8009   4.601   2.855   8.760  0.5162  0.2277  0.3628
   84SAPS  H18X 8010   4.492   2.854   8.781  0.9726 -1.1922  3.2194
   84SAPS  H18Y 8011   4.632   2.762   8.706  0.7252  1.0157 -0.9046
   84SAPS  H18Z 8012   4.619   2.948   8.703 -1.0592 -0.2974 -1.0849
   85SAPS     N 8013   1.687   3.066  11.180  0.0251 -0.0496  0.0034
   85SAPS   HN1 8014   1.702   3.064  11.283 -1.1180 -0.2527  0.1789
   85SAPS   HN2 8015   1.692   2.971  11.140 -0.6681  0.3290 -1.0420
   85SAPS   HN3 8016   1.755   3.129  11.132  0.0298  0.8861  1.1956
   85SAPS   C12 8017   1.547   3.116  11.173  0.3217  0.1914  0.1063
   85SAPS  H12A 8018   1.485   3.082  11.254 -0.5516 -0.6005 -0.8640
   85SAPS   C13 8019   1.549   3.272  11.169  0.7608 -0.7646 -0.3186
   85SAPS  O13A 8020   1.655   3.340  11.174  0.0504 -0.5100  0.0615
   85SAPS  O13B 8021   1.440   3.332  11.167  0.1305  0.6686  0.0378
   85SAPS   C11 8022   1.472   3.071  11.047  0.1244 -0.0369  0.8305
   85SAPS  H11A 8023   1.511   3.119  10.954  0.7715  0.8368  1.5379
   85SAPS  H11B 8024   1.369   3.112  11.046  0.2318  0.3799 -1.8935
   85SAPS     P 8025   1.359   2.868  10.932  0.0676 -0.1279  0.4750
   85SAPS   O13 8026   1.375   2.719  10.934 -0.5393  0.1383  0.1116
   85SAPS   O14 8027   1.227   2.916  10.976  0.2218  0.0579 -0.5507
   85SAPS   O12 8028   1.468   2.929  11.033 -0.0158 -0.2866  0.3378
   85SAPS   O11 8029   1.394   2.929  10.788 -0.3689  0.6147  0.2370
   85SAPS    C1 8030   1.538   2.921  10.747 -0.0155 -0.0218  0.0843
   85SAPS    HA 8031   1.606   2.923  10.835  2.4782 -0.1465 -1.7353
   85SAPS    HB 8032   1.564   2.824  10.699  1.2627  0.4870 -0.3105
   85SAPS    C2 8033   1.579   3.044  10.658  0.6137 -0.6379 -0.2715
   85SAPS    HS 8034   1.560   3.135  10.719 -0.8909 -2.0187  1.4501
   85SAPS   O21 8035   1.503   3.046  10.537  0.4971  0.6549  0.4292
   85SAPS   C21 8036   1.485   3.159  10.487  0.5873 -0.7249  0.0906
   85SAPS   O22 8037   1.496   3.270  10.543  0.5130  0.3283 -0.4018
   85SAPS   C22 8038   1.456   3.144  10.342  0.3406  0.5603 -0.0576
   85SAPS   H2R 8039   1.349   3.115  10.333  0.2400  0.7118  0.5934
   85SAPS   H2S 8040   1.466   3.248  10.303  0.6355  1.1067  1.4140
   85SAPS    C3 8041   1.732   3.040  10.621  0.2688 -0.4628  1.3224
   85SAPS    HX 8042   1.793   3.023  10.713 -0.2814 -0.6317  1.6570
   85SAPS    HY 8043   1.745   3.144  10.586  0.8344 -0.8829  0.2263
   85SAPS   O31 8044   1.773   2.961  10.510  0.2260  0.3112  0.1191
   85SAPS   C31 8045   1.848   2.864  10.535 -0.4192 -0.0345  0.1806
   85SAPS   O32 8046   1.870   2.810  10.639 -0.0347 -0.3067 -0.2507
   85SAPS   C32 8047   1.901   2.809  10.406 -0.4011  0.3107  0.0405
   85SAPS   H2X 8048   1.982   2.735  10.423 -2.7860 -2.9854 -1.7174
   85SAPS   H2Y 8049   1.942   2.901  10.361  1.2922  1.2111  3.1329
   85SAPS   C23 8050   1.551   3.065  10.248  0.1528 -0.4819 -0.4285
   85SAPS   H3R 8051   1.618   2.996  10.303  0.8423 -0.3680 -1.1082
   85SAPS   H3S 8052   1.607   3.150  10.204 -2.7295  0.8401 -1.8726
   85SAPS   C24 8053   1.473   2.987  10.141 -0.1017  0.1131  1.1000
   85SAPS   H4R 8054   1.553   2.950  10.074 -1.6254 -1.1863 -0.0854
   85SAPS   H4S 8055   1.418   3.070  10.093  0.6386  0.2067  0.3929
   85SAPS   C25 8056   1.385   2.876  10.184  0.6290 -0.2553 -0.7849
   85SAPS   H5R 8057   1.433   2.814  10.261 -1.6292 -1.6393 -0.4075
   85SAPS   C26 8058   1.256   2.860  10.140  0.2050 -0.0560 -0.2300
   85SAPS   H6R 8059   1.201   2.769  10.168 -1.4917  1.2552  0.9681
   85SAPS   C27 8060   1.182   2.946  10.040  0.9225  0.0286  0.2227
   85SAPS   H7R 8061   1.141   2.883   9.959 -2.5656  0.1096  1.7584
   85SAPS   H7S 8062   1.246   3.019   9.984  2.3333 -0.0852  1.6157
   85SAPS   C28 8063   1.059   2.997  10.102 -0.0428  0.2384 -0.9105
   85SAPS   H8R 8064   1.006   2.917  10.158  2.4375 -0.1565  1.0518
   85SAPS   C29 8065   1.022   3.128  10.110  0.0116  0.7363  0.5352
   85SAPS   H9R 8066   0.935   3.148  10.175  0.5051 -0.3970  1.5977
   85SAPS  C210 8067   1.090   3.248  10.055 -1.1431  0.4505 -0.0598
   85SAPS  H10R 8068   1.200   3.239  10.071 -0.9297  3.2951  0.8172
   85SAPS  H10S 8069   1.067   3.341  10.112  1.1020 -0.3498  2.3664
   85SAPS  C211 8070   1.064   3.267   9.905  0.0408  0.0563 -0.1694
   85SAPS  H11R 8071   1.046   3.174   9.848 -0.1646  0.6442 -1.0950
   85SAPS  C212 8072   1.080   3.378   9.831 -0.3950  0.6427 -0.5280
   85SAPS  H12R 8073   1.048   3.372   9.726 -2.8287 -2.2792  0.2275
   85SAPS  C213 8074   1.112   3.518   9.883 -1.0429  0.1102  0.1828
   85SAPS  H13R 8075   1.203   3.552   9.829 -0.6698  1.7342  1.7286
   85SAPS  H13S 8076   1.118   3.519   9.994 -0.1869 -1.7444  0.1809
   85SAPS  C214 8077   1.005   3.620   9.848  0.0463  0.3715  0.2238
   85SAPS  H14R 8078   0.933   3.617   9.931  0.6240 -3.9753  0.7740
   85SAPS  C215 8079   0.991   3.711   9.750 -0.0366 -0.2267  0.4796
   85SAPS  H15R 8080   0.898   3.770   9.743  0.1519 -0.1767 -4.3540
   85SAPS  C216 8081   1.087   3.726   9.628 -0.7139 -0.5220 -0.2214
   85SAPS  H16R 8082   1.182   3.673   9.652  0.0757  0.5705 -0.8739
   85SAPS  H16S 8083   1.105   3.835   9.630  0.4878 -0.6865 -1.2134
   85SAPS  C217 8084   1.033   3.689   9.492 -0.3358 -0.2477 -0.1341
   85SAPS  H17R 8085   1.103   3.729   9.414  0.8362  0.9160  1.4435
   85SAPS  H17S 8086   0.930   3.728   9.483 -0.0704  0.6724  0.6610
   85SAPS  C218 8087   1.016   3.541   9.471 -0.2026  0.3668  0.6814
   85SAPS  H18R 8088   0.953   3.485   9.544 -2.1508  0.3282 -0.9323
   85SAPS  H18S 8089   1.114   3.490   9.479 -1.7520 -2.7744  1.2028
   85SAPS  C219 8090   0.967   3.504   9.329  0.4704 -0.5730  0.4164
   85SAPS  H19R 8091   0.869   3.545   9.296  0.7031 -1.5451 -1.6308
   85SAPS  H19S 8092   0.955   3.396   9.351  0.2575 -0.3164  1.6303
   85SAPS  C220 8093   1.068   3.535   9.221 -0.0657 -0.3502 -0.3993
   85SAPS  H20R 8094   1.140   3.451   9.212 -1.2738 -1.4139 -0.2894
   85SAPS  H20S 8095   1.123   3.627   9.251  0.9128 -1.3219  0.8801
   85SAPS  H20T 8096   1.008   3.534   9.127 -1.9869  0.1239  0.7641
   85SAPS   C33 8097   1.801   2.734  10.311 -0.1019 -0.1803 -0.0405
   85SAPS   H3X 8098   1.710   2.798  10.310 -0.4414 -0.6597 -0.8118
   85SAPS   H3Y 8099   1.773   2.633  10.349 -0.5970 -0.4637 -1.1193
   85SAPS   C34 8100   1.851   2.722  10.173 -0.1577  0.3877  0.2388
   85SAPS   H4X 8101   1.899   2.819  10.146 -1.3266  0.8431 -0.2966
   85SAPS   H4Y 8102   1.769   2.710  10.100  0.3482 -2.1923  0.0251
   85SAPS   C35 8103   1.945   2.606  10.141  0.1462 -0.4453  0.0320
   85SAPS   H5X 8104   1.896   2.508  10.165  0.1230 -0.2081  1.0074
   85SAPS   H5Y 8105   2.035   2.628  10.202  0.5466 -0.6735 -0.4722
   85SAPS   C36 8106   1.989   2.612   9.998  1.1192  0.4133  0.0702
   85SAPS   H6X 8107   2.082   2.552  10.001  0.2103 -1.0139  1.1797
   85SAPS   H6Y 8108   2.012   2.713   9.958  0.9499 -0.2502 -1.8005
   85SAPS   C37 8109   1.886   2.545   9.902 -1.3498  0.1763 -0.8533
   85SAPS   H7X 8110   1.791   2.602   9.909 -0.5011  1.4019  1.6420
   85SAPS   H7Y 8111   1.853   2.447   9.942 -0.1197 -0.4040 -1.2073
   85SAPS   C38 8112   1.939   2.529   9.767  0.1022 -0.1006 -0.3850
   85SAPS   H8X 8113   2.029   2.463   9.764  0.2326  0.0990 -0.9959
   85SAPS   H8Y 8114   1.975   2.627   9.730  0.5289  0.5018  1.4818
   85SAPS   C39 8115   1.830   2.470   9.671 -0.0531  0.1683  0.1090
   85SAPS   H9X 8116   1.753   2.550   9.665  0.5022  0.6013 -2.7137
   85SAPS   H9Y 8117   1.790   2.377   9.717 -1.9552  0.2685 -1.2179
   85SAPS  C310 8118   1.893   2.457   9.530 -0.3660  0.0329  0.4065
   85SAPS  H10X 8119   1.987   2.398   9.538  0.0327  0.4034 -1.2262
   85SAPS  H10Y 8120   1.911   2.556   9.484 -1.0079  0.3176  0.7508
   85SAPS  C311 8121   1.789   2.394   9.436  0.2087 -0.6776  0.0762
   85SAPS  H11X 8122   1.687   2.437   9.448  0.9420  0.4671  2.9743
   85SAPS  H11Y 8123   1.783   2.287   9.467  0.0769 -0.2569  1.5860
   85SAPS  C312 8124   1.826   2.402   9.284 -0.4605  0.4171 -0.3966
   85SAPS  H12X 8125   1.933   2.374   9.274  0.4756  3.1712  0.8095
   85SAPS  H12Y 8126   1.818   2.512   9.268 -0.9531  0.4412 -0.0062
   85SAPS  C313 8127   1.728   2.335   9.190  0.6892  0.7464  0.1990
   85SAPS  H13X 8128   1.627   2.378   9.207  0.1990 -0.9905  2.0769
   85SAPS  H13Y 8129   1.707   2.226   9.196  0.5494  0.6719 -1.1589
   85SAPS  C314 8130   1.759   2.373   9.048 -0.4205  0.2037  0.0215
   85SAPS  H14X 8131   1.866   2.355   9.021 -1.2102 -0.5590 -3.0071
   85SAPS  H14Y 8132   1.725   2.478   9.037  1.7805  1.0199  0.4936
   85SAPS  C315 8133   1.684   2.280   8.954 -0.5198  0.2258  0.9400
   85SAPS  H15X 8134   1.578   2.266   8.984 -0.8323  0.1944 -0.1352
   85SAPS  H15Y 8135   1.727   2.179   8.967 -1.2184 -0.3202 -0.7503
   85SAPS  C316 8136   1.677   2.346   8.816  0.0137  0.1539  0.7265
   85SAPS  H16X 8137   1.776   2.395   8.802  0.3945 -0.9022 -0.4874
   85SAPS  H16Y 8138   1.607   2.432   8.804  1.4157  1.1798 -0.5165
   85SAPS  C317 8139   1.679   2.245   8.704  0.3797 -0.0618  0.1914
   85SAPS  H17X 8140   1.577   2.211   8.674  0.2103 -0.4311  1.1624
   85SAPS  H17Y 8141   1.733   2.161   8.751  1.2490  0.7516  0.6890
   85SAPS  C318 8142   1.753   2.297   8.577 -0.3426 -0.1082 -0.1613
   85SAPS  H18X 8143   1.844   2.346   8.616  0.5323 -0.7728 -1.3158
   85SAPS  H18Y 8144   1.695   2.355   8.501  1.1019 -0.5169 -1.6313
   85SAPS  H18Z 8145   1.784   2.207   8.520 -0.2893 -0.3646  0.2755
   86SAPS     N 8146   2.809   2.860  11.191  0.4374  0.0199  0.2069
   86SAPS   HN1 8147   2.793   2.813  11.100 -1.8727 -0.9913  1.0569
   86SAPS   HN2 8148   2.908   2.874  11.219  0.1202 -0.6232  1.7281
   86SAPS   HN3 8149   2.778   2.802  11.272  0.2528  0.8557  0.7517
   86SAPS   C12 8150   2.744   2.995  11.199  0.2461  0.7000  0.9689
   86SAPS  H12A 8151   2.638   2.975  11.194  0.7754 -2.4314 -3.1819
   86SAPS   C13 8152   2.778   3.059  11.324 -0.0769 -0.6176  0.1008
   86SAPS  O13A 8153   2.822   2.993  11.421 -0.2489  0.1202 -0.5009
   86SAPS  O13B 8154   2.749   3.183  11.335 -0.0467 -0.0376  0.6546
   86SAPS   C11 8155   2.788   3.083  11.074  0.3826 -0.6714 -1.1678
   86SAPS  H11A 8156   2.886   3.124  11.105 -1.5878  1.7512  2.5789
   86SAPS  H11B 8157   2.708   3.158  11.057  0.4446  0.4093  2.5392
   86SAPS     P 8158   2.824   3.089  10.822 -0.0635  0.0564  0.0045
   86SAPS   O13 8159   2.699   3.153  10.776 -0.1217  0.8678 -0.0483
   86SAPS   O14 8160   2.934   3.182  10.858 -0.4740 -0.1702  0.7207
   86SAPS   O12 8161   2.792   3.005  10.951  0.5862 -0.0065 -0.4575
   86SAPS   O11 8162   2.878   2.984  10.717  0.3630 -0.4515  0.9737
   86SAPS    C1 8163   3.002   2.920  10.723  0.3599  0.2059 -0.1824
   86SAPS    HA 8164   3.057   2.953  10.814 -2.8614  1.3116  1.5124
   86SAPS    HB 8165   2.990   2.810  10.726  0.1691  0.2164 -0.5206
   86SAPS    C2 8166   3.080   2.960  10.592  0.2218  0.4942  0.1286
   86SAPS    HS 8167   3.102   3.069  10.599  2.5036  0.1354 -0.6755
   86SAPS   O21 8168   3.001   2.898  10.482  0.3034 -0.4944 -0.0152
   86SAPS   C21 8169   2.957   2.998  10.403  0.5550  0.0542  0.1214
   86SAPS   O22 8170   3.012   3.109  10.400  0.1592  0.6452  0.3959
   86SAPS   C22 8171   2.827   2.959  10.342  0.1709  0.3488 -0.6505
   86SAPS   H2R 8172   2.795   2.854  10.364 -0.2683  0.7532  0.7422
   86SAPS   H2S 8173   2.740   3.018  10.380 -1.0961 -0.0363 -2.7968
   86SAPS    C3 8174   3.226   2.907  10.586  0.0062  0.0693  0.3278
   86SAPS    HX 8175   3.194   2.803  10.604 -0.9374  0.3808  0.5152
   86SAPS    HY 8176   3.285   2.948  10.670  1.6479 -1.5371  0.0258
   86SAPS   O31 8177   3.289   2.911  10.458 -0.2066  0.3688  0.0095
   86SAPS   C31 8178   3.360   3.023  10.429  0.2153  0.4895  0.0090
   86SAPS   O32 8179   3.374   3.117  10.505 -0.1584  0.2326 -0.4313
   86SAPS   C32 8180   3.427   3.013  10.294 -0.0440  0.7638 -0.8096
   86SAPS   H2X 8181   3.415   2.907  10.264  0.6443  0.2298  0.7145
   86SAPS   H2Y 8182   3.533   3.042  10.306  0.1729 -0.5112  0.6290
   86SAPS   C23 8183   2.835   2.976  10.194  0.0271  0.0573  0.4128
   86SAPS   H3R 8184   2.760   2.917  10.138  0.9122  0.5556 -1.3743
   86SAPS   H3S 8185   2.929   2.938  10.148  1.2610  0.9336  2.1031
   86SAPS   C24 8186   2.814   3.120  10.137  0.5490 -0.0007 -0.6787
   86SAPS   H4R 8187   2.869   3.129  10.041  1.3402  0.1200 -0.2246
   86SAPS   H4S 8188   2.860   3.188  10.212 -0.9891  0.4485 -0.1103
   86SAPS   C25 8189   2.674   3.166  10.132  0.2223 -0.2577  0.1280
   86SAPS   H5R 8190   2.643   3.223  10.221  0.8028  0.5170 -0.1583
   86SAPS   C26 8191   2.590   3.149  10.024 -0.3557  0.5286  0.3370
   86SAPS   H6R 8192   2.486   3.185  10.033 -0.4448 -0.2452  3.2276
   86SAPS   C27 8193   2.616   3.070   9.898 -0.0273 -0.5410  0.4127
   86SAPS   H7R 8194   2.523   3.034   9.850  0.9991  0.7071 -2.7579
   86SAPS   H7S 8195   2.681   2.984   9.923  0.5201 -0.9870 -2.2551
   86SAPS   C28 8196   2.697   3.147   9.797  0.1075 -0.1253  0.5010
   86SAPS   H8R 8197   2.759   3.224   9.846 -2.2483  3.6536 -1.9481
   86SAPS   C29 8198   2.705   3.137   9.664  0.0830  0.4813 -0.2143
   86SAPS   H9R 8199   2.773   3.204   9.610  4.5582 -4.4675 -1.6650
   86SAPS  C210 8200   2.626   3.047   9.573  1.0569  0.2814 -0.1530
   86SAPS  H10R 8201   2.518   3.059   9.594  0.6698 -1.2683 -1.1695
   86SAPS  H10S 8202   2.659   2.943   9.593  0.2374  0.5425  3.1018
   86SAPS  C211 8203   2.643   3.091   9.428 -0.3032  0.0646 -0.4356
   86SAPS  H11R 8204   2.634   3.199   9.408  2.7795  0.4784 -0.1677
   86SAPS  C212 8205   2.657   3.013   9.321 -0.1839 -0.2835 -0.0452
   86SAPS  H12R 8206   2.677   3.062   9.225  0.5613 -1.4636 -0.5185
   86SAPS  C213 8207   2.673   2.865   9.308 -0.5091 -0.6723 -0.0625
   86SAPS  H13R 8208   2.663   2.813   9.406 -1.3637  0.5479  0.5220
   86SAPS  H13S 8209   2.777   2.852   9.271 -0.6931  1.3664 -1.4624
   86SAPS  C214 8210   2.577   2.786   9.219 -1.0679  0.1555 -0.1897
   86SAPS  H14R 8211   2.489   2.754   9.276 -0.1018  0.3842  1.5023
   86SAPS  C215 8212   2.594   2.754   9.086 -0.2679  0.6020  0.2813
   86SAPS  H15R 8213   2.519   2.688   9.040  1.3261 -1.2957  0.2690
   86SAPS  C216 8214   2.699   2.816   8.992  0.0406  0.0451  0.0938
   86SAPS  H16R 8215   2.774   2.737   8.969  0.6672  0.6118  0.1638
   86SAPS  H16S 8216   2.757   2.898   9.040 -0.4771 -0.9908  2.6454
   86SAPS  C217 8217   2.638   2.858   8.852  0.4453 -0.0502 -0.3317
   86SAPS  H17R 8218   2.709   2.932   8.810  2.6044 -1.1695  1.1426
   86SAPS  H17S 8219   2.545   2.914   8.878 -0.2377 -0.0128 -2.6446
   86SAPS  C218 8220   2.625   2.740   8.763 -0.1244 -0.8362 -0.1405
   86SAPS  H18R 8221   2.569   2.663   8.820  0.1707 -0.0213  1.3057
   86SAPS  H18S 8222   2.725   2.694   8.744  0.1468 -1.2055  1.9307
   86SAPS  C219 8223   2.562   2.776   8.630  0.4182 -0.2319 -0.6632
   86SAPS  H19R 8224   2.634   2.843   8.577  0.6831 -0.8525 -1.1040
   86SAPS  H19S 8225   2.462   2.825   8.632 -0.1894 -1.4607 -0.2220
   86SAPS  C220 8226   2.562   2.651   8.543 -0.4137  0.3393  0.1275
   86SAPS  H20R 8227   2.503   2.570   8.592  0.2040 -0.4463 -0.4049
   86SAPS  H20S 8228   2.667   2.617   8.536 -0.4613  0.4397 -1.3874
   86SAPS  H20T 8229   2.527   2.660   8.438  1.4443  1.5752 -0.4403
   86SAPS   C33 8230   3.352   3.097  10.191  0.6395  0.1666 -0.8780
   86SAPS   H3X 8231   3.337   3.204  10.216  1.9889  0.1828 -0.0494
   86SAPS   H3Y 8232   3.248   3.063  10.174  0.7811 -0.7665  0.0128
   86SAPS   C34 8233   3.420   3.085  10.054  0.1147  0.5048  0.4703
   86SAPS   H4X 8234   3.356   3.007  10.008 -0.8110  0.4919  1.7325
   86SAPS   H4Y 8235   3.526   3.051  10.060 -0.4814 -1.9583 -1.3579
   86SAPS   C35 8236   3.415   3.215   9.981 -0.3420  0.5989  0.4332
   86SAPS   H5X 8237   3.477   3.218   9.888  0.5890 -0.3282  1.0027
   86SAPS   H5Y 8238   3.471   3.279  10.052  0.3821 -1.2390  1.6054
   86SAPS   C36 8239   3.275   3.273   9.947  0.0793  0.3685 -0.1677
   86SAPS   H6X 8240   3.284   3.377   9.908 -0.7503 -0.1938 -1.9840
   86SAPS   H6Y 8241   3.200   3.278  10.028 -0.1926  4.3890 -0.4872
   86SAPS   C37 8242   3.209   3.188   9.835  0.6520 -0.6428 -0.1324
   86SAPS   H7X 8243   3.099   3.203   9.827  0.9752  1.1934 -1.7762
   86SAPS   H7Y 8244   3.236   3.082   9.857  1.2951 -0.1699  1.5200
   86SAPS   C38 8245   3.256   3.235   9.701 -0.4845  0.7222 -0.3997
   86SAPS   H8X 8246   3.364   3.219   9.682 -0.7619 -0.2138 -1.2793
   86SAPS   H8Y 8247   3.241   3.344   9.689 -1.3011  0.6997  0.2783
   86SAPS   C39 8248   3.176   3.145   9.600 -1.1577  0.0185 -0.6846
   86SAPS   H9X 8249   3.069   3.149   9.631 -0.9913  0.6587 -0.1598
   86SAPS   H9Y 8250   3.219   3.044   9.614  0.3106  0.4999 -1.5817
   86SAPS  C310 8251   3.185   3.198   9.455  0.7167  0.2287  0.2966
   86SAPS  H10X 8252   3.290   3.212   9.421  0.7199  0.4182  0.3852
   86SAPS  H10Y 8253   3.136   3.298   9.454  0.2348  0.0369  2.0498
   86SAPS  C311 8254   3.111   3.107   9.359  0.6042 -0.1959  0.4545
   86SAPS  H11X 8255   3.003   3.087   9.375  0.6482  0.1533  1.2127
   86SAPS  H11Y 8256   3.153   3.004   9.371  0.2513 -0.2692  1.1114
   86SAPS  C312 8257   3.142   3.139   9.203  0.0921 -0.0116 -0.9398
   86SAPS  H12X 8258   3.252   3.151   9.207 -0.0772  1.8229 -1.0043
   86SAPS  H12Y 8259   3.103   3.235   9.164  1.5565  0.2299 -1.8804
   86SAPS  C313 8260   3.118   3.018   9.114 -0.4327  0.2698  0.1909
   86SAPS  H13X 8261   3.023   2.967   9.142  1.7012 -2.9958  2.1916
   86SAPS  H13Y 8262   3.199   2.942   9.124 -0.9529 -0.4574 -0.9548
   86SAPS  C314 8263   3.097   3.057   8.962  0.3562 -0.0819  0.0310
   86SAPS  H14X 8264   3.182   3.117   8.924 -0.2566 -0.0780 -1.3883
   86SAPS  H14Y 8265   3.009   3.124   8.962 -0.0264 -0.5791 -0.2820
   86SAPS  C315 8266   3.065   2.937   8.865 -0.1571 -0.2136  0.5270
   86SAPS  H15X 8267   2.976   2.878   8.894 -0.4091 -0.5969 -0.9842
   86SAPS  H15Y 8268   3.151   2.867   8.867  0.0195 -0.2227 -2.6785
   86SAPS  C316 8269   3.057   2.985   8.723 -0.0326  0.5407 -0.0621
   86SAPS  H16X 8270   3.156   3.005   8.677  0.2077  2.9357  1.3098
   86SAPS  H16Y 8271   3.001   3.081   8.724 -0.7651  0.1519  2.0856
   86SAPS  C317 8272   2.963   2.897   8.639  0.2171  0.2278  0.0341
   86SAPS  H17X 8273   2.955   2.925   8.532 -0.7542  0.2481  0.1089
   86SAPS  H17Y 8274   2.861   2.894   8.683  0.1413  1.8062  0.0301
   86SAPS  C318 8275   3.017   2.755   8.625  0.8394 -0.7069  1.2813
   86SAPS  H18X 8276   2.941   2.685   8.581 -0.0922  2.0668 -1.9486
   86SAPS  H18Y 8277   3.043   2.707   8.722  0.8047 -2.3851  0.5037
   86SAPS  H18Z 8278   3.114   2.744   8.573  0.3937 -2.6959  0.7845
   87SAPS     N 8279   3.084   3.867  11.009 -0.4134  0.2845 -0.4496
   87SAPS   HN1 8280   3.010   3.873  10.936  0.9384  0.4601 -1.8535
   87SAPS   HN2 8281   3.158   3.815  10.959 -0.9037 -0.8711 -0.0209
   87SAPS   HN3 8282   3.050   3.802  11.083 -2.3290  0.7585 -0.8443
   87SAPS   C12 8283   3.122   4.006  11.047 -0.0624  0.3968 -0.4707
   87SAPS  H12A 8284   3.087   4.077  10.973 -0.0023  1.3288  0.3752
   87SAPS   C13 8285   3.059   4.056  11.184 -0.0356  0.0273  0.1236
   87SAPS  O13A 8286   2.984   3.982  11.258 -0.8066 -0.0502 -0.0494
   87SAPS  O13B 8287   3.056   4.182  11.198 -0.1008  0.0748 -0.2451
   87SAPS   C11 8288   3.281   4.021  11.068 -0.5965  0.2989  0.2327
   87SAPS  H11A 8289   3.321   3.936  11.127 -0.2617  0.2686 -0.0383
   87SAPS  H11B 8290   3.298   4.117  11.121 -4.3840  1.1130  0.2721
   87SAPS     P 8291   3.454   4.116  10.889  0.0632 -0.0771  0.1713
   87SAPS   O13 8292   3.401   4.254  10.885 -0.1121 -0.3749  0.2476
   87SAPS   O14 8293   3.575   4.086  10.962 -0.4515  0.0174 -0.2599
   87SAPS   O12 8294   3.344   4.012  10.941 -0.1211 -0.3189 -0.3432
   87SAPS   O11 8295   3.494   4.067  10.744 -0.4726 -0.4228  0.0586
   87SAPS    C1 8296   3.478   3.935  10.699  0.0196 -0.2878 -0.2367
   87SAPS    HA 8297   3.579   3.904  10.666 -0.6783 -1.5961 -1.2339
   87SAPS    HB 8298   3.446   3.867  10.781 -0.6463  1.3625  0.9416
   87SAPS    C2 8299   3.368   3.920  10.589 -0.1853 -0.2886 -0.5520
   87SAPS    HS 8300   3.377   3.811  10.568  3.7061 -0.7508  2.3981
   87SAPS   O21 8301   3.407   3.993  10.475  0.0759  0.1170  0.1813
   87SAPS   C21 8302   3.509   3.939  10.407  0.4795 -0.2452  0.4505
   87SAPS   O22 8303   3.545   3.822  10.416  0.1538  0.2578 -0.0616
   87SAPS   C22 8304   3.571   4.048  10.319 -0.7461  0.0697 -0.6851
   87SAPS   H2R 8305   3.493   4.079  10.246 -1.7491  0.7575  0.6295
   87SAPS   H2S 8306   3.590   4.141  10.377  1.6499 -0.7740  0.0341
   87SAPS    C3 8307   3.233   3.969  10.656  0.5415 -0.2131 -0.1612
   87SAPS    HX 8308   3.250   4.077  10.676 -0.7200  0.1608 -0.9650
   87SAPS    HY 8309   3.232   3.901  10.743 -0.5803 -0.6711 -0.5088
   87SAPS   O31 8310   3.113   3.962  10.569 -0.5229  0.4463 -0.0959
   87SAPS   C31 8311   3.010   3.942  10.634 -0.0165  0.2061 -0.3102
   87SAPS   O32 8312   2.999   3.930  10.758  0.1719  0.6761  0.4018
   87SAPS   C32 8313   2.884   3.950  10.538  0.0450 -0.1721 -0.1176
   87SAPS   H2X 8314   2.810   4.026  10.570  1.7730  1.5530  0.0031
   87SAPS   H2Y 8315   2.839   3.850  10.555  1.4321 -1.2966 -2.5794
   87SAPS   C23 8316   3.695   3.998  10.253 -0.0255 -0.3149 -0.1784
   87SAPS   H3R 8317   3.684   3.888  10.237  1.9548 -0.5402 -0.2954
   87SAPS   H3S 8318   3.794   4.023  10.297  0.7749  0.0442 -2.0963
   87SAPS   C24 8319   3.707   4.050  10.107 -0.5298 -0.4597  0.3986
   87SAPS   H4R 8320   3.626   4.000  10.050  0.6316  0.3734 -2.1462
   87SAPS   H4S 8321   3.798   4.014  10.053 -0.5108  3.9426 -3.1257
   87SAPS   C25 8322   3.711   4.199  10.089  0.4876  0.8444 -0.3208
   87SAPS   H5R 8323   3.766   4.253  10.167 -0.7154  1.0338  0.4126
   87SAPS   C26 8324   3.670   4.274   9.982 -0.1392 -0.3563 -0.0634
   87SAPS   H6R 8325   3.687   4.382   9.987 -2.0603  0.0098 -0.9290
   87SAPS   C27 8326   3.601   4.245   9.854 -0.3705 -0.5887 -0.0847
   87SAPS   H7R 8327   3.568   4.139   9.858 -0.6821 -0.4592  1.1692
   87SAPS   H7S 8328   3.674   4.249   9.770 -0.1402  1.7763  0.1641
   87SAPS   C28 8329   3.491   4.333   9.811  0.2813 -0.3720 -0.5784
   87SAPS   H8R 8330   3.452   4.395   9.893  0.2825 -0.7379 -0.3014
   87SAPS   C29 8331   3.447   4.358   9.681  0.1521 -0.1359  0.5065
   87SAPS   H9R 8332   3.360   4.425   9.677 -0.3319 -0.5289  3.0548
   87SAPS  C210 8333   3.499   4.290   9.555  0.4450 -0.9740 -0.1066
   87SAPS  H10R 8334   3.598   4.242   9.571  0.9630 -0.4647 -1.6440
   87SAPS  H10S 8335   3.513   4.366   9.476 -1.8253  0.5337  0.8470
   87SAPS  C211 8336   3.394   4.191   9.511 -0.1524 -0.2325 -1.1727
   87SAPS  H11R 8337   3.309   4.169   9.577  0.2584  0.8010 -0.2733
   87SAPS  C212 8338   3.387   4.136   9.395 -0.4451  0.2163  0.5890
   87SAPS  H12R 8339   3.304   4.064   9.383 -2.6369  2.0703  3.3971
   87SAPS  C213 8340   3.478   4.163   9.275 -0.2775 -0.8543 -0.4144
   87SAPS  H13R 8341   3.586   4.141   9.289  0.3406  1.4002 -1.2292
   87SAPS  H13S 8342   3.470   4.273   9.259 -3.6750 -0.8074  0.7396
   87SAPS  C214 8343   3.434   4.093   9.151 -0.2144  0.6684 -0.3171
   87SAPS  H14R 8344   3.462   3.988   9.164 -0.5711  0.4492 -1.2634
   87SAPS  C215 8345   3.384   4.133   9.034 -0.2542 -0.5588 -0.1568
   87SAPS  H15R 8346   3.360   4.058   8.957 -0.5560 -1.8901  1.1832
   87SAPS  C216 8347   3.364   4.284   9.006 -0.2035  0.1870  0.0766
   87SAPS  H16R 8348   3.312   4.338   9.088 -1.7218 -1.1035  0.0292
   87SAPS  H16S 8349   3.315   4.299   8.907  2.1554  0.1660 -1.1765
   87SAPS  C217 8350   3.496   4.359   8.991  0.1603 -0.2935 -0.1159
   87SAPS  H17R 8351   3.572   4.338   9.069  2.0529  1.8452 -1.2484
   87SAPS  H17S 8352   3.475   4.468   8.995 -3.3830 -0.8137 -1.2740
   87SAPS  C218 8353   3.566   4.325   8.858 -0.8544 -0.3919 -0.2353
   87SAPS  H18R 8354   3.501   4.349   8.771 -1.0623  1.6084  0.4235
   87SAPS  H18S 8355   3.591   4.217   8.864  0.9528  0.0385  0.6201
   87SAPS  C219 8356   3.696   4.409   8.847  0.2500 -0.1674 -0.6628
   87SAPS  H19R 8357   3.773   4.367   8.914  1.5318 -0.5770 -2.3313
   87SAPS  H19S 8358   3.684   4.514   8.880  0.1160  0.4316 -2.5379
   87SAPS  C220 8359   3.758   4.402   8.711  0.2252 -0.2500 -0.0306
   87SAPS  H20R 8360   3.678   4.433   8.640 -0.6233  0.2813  1.1234
   87SAPS  H20S 8361   3.799   4.308   8.669  0.8824  0.7467 -1.7399
   87SAPS  H20T 8362   3.838   4.477   8.694  0.8868 -0.9553 -0.0597
   87SAPS   C33 8363   2.912   3.948  10.381  0.0900  0.3363 -0.0553
   87SAPS   H3X 8364   3.003   3.888  10.357  0.3189 -0.0767  1.7051
   87SAPS   H3Y 8365   2.935   4.053  10.353  2.2676 -0.2089 -0.5448
   87SAPS   C34 8366   2.788   3.902  10.305 -0.3058 -0.9834 -0.3047
   87SAPS   H4X 8367   2.705   3.977  10.313 -0.7372 -1.2840 -1.5810
   87SAPS   H4Y 8368   2.751   3.807  10.348 -2.0948  0.0580  0.5865
   87SAPS   C35 8369   2.824   3.904  10.151 -0.5869  0.0803  0.4628
   87SAPS   H5X 8370   2.912   3.842  10.122  0.0885  0.7675  0.9851
   87SAPS   H5Y 8371   2.861   4.003  10.117 -3.6269  1.8947  2.0538
   87SAPS   C36 8372   2.696   3.864  10.068 -0.5839  0.6481 -0.9807
   87SAPS   H6X 8373   2.604   3.916  10.101  1.2687  2.9063  1.0635
   87SAPS   H6Y 8374   2.685   3.756  10.090 -0.5728  0.6766 -0.8330
   87SAPS   C37 8375   2.720   3.884   9.916 -0.3852  0.1506 -0.6034
   87SAPS   H7X 8376   2.821   3.838   9.904 -0.3820 -1.4503  3.9310
   87SAPS   H7Y 8377   2.715   3.991   9.885 -1.7129  0.4338  0.4966
   87SAPS   C38 8378   2.609   3.826   9.833 -0.5634 -0.4556  0.1292
   87SAPS   H8X 8379   2.527   3.900   9.831  0.4595  0.7370  0.8978
   87SAPS   H8Y 8380   2.565   3.739   9.886 -2.4419  0.6892  0.5201
   87SAPS   C39 8381   2.642   3.784   9.689  0.4204 -0.4361 -0.1145
   87SAPS   H9X 8382   2.691   3.685   9.681 -1.1333 -1.1358 -1.6739
   87SAPS   H9Y 8383   2.708   3.860   9.643 -1.8685  0.7691 -1.6345
   87SAPS  C310 8384   2.520   3.759   9.610  0.1847 -0.3686  0.1601
   87SAPS  H10X 8385   2.445   3.840   9.619  1.5459  0.8265  1.1038
   87SAPS  H10Y 8386   2.460   3.674   9.651 -0.7160 -0.7389 -1.7983
   87SAPS  C311 8387   2.541   3.744   9.457 -0.5819 -0.6525  0.2282
   87SAPS  H11X 8388   2.618   3.668   9.434  2.5054  1.9512  1.2280
   87SAPS  H11Y 8389   2.572   3.847   9.428 -0.6989 -0.1915  1.6739
   87SAPS  C312 8390   2.409   3.720   9.382  0.1787 -0.3753  0.7373
   87SAPS  H12X 8391   2.325   3.787   9.413 -0.7687 -0.0414 -2.2330
   87SAPS  H12Y 8392   2.381   3.614   9.403 -0.3087 -0.9590 -2.4049
   87SAPS  C313 8393   2.428   3.726   9.225  0.3800 -0.1013  0.0982
   87SAPS  H13X 8394   2.337   3.677   9.183  0.8383 -0.1637 -0.8585
   87SAPS  H13Y 8395   2.516   3.669   9.186  1.3894  2.5463 -1.7628
   87SAPS  C314 8396   2.453   3.868   9.173 -0.1621  0.6180 -0.1522
   87SAPS  H14X 8397   2.491   3.925   9.260 -2.2099  0.6886  0.7523
   87SAPS  H14Y 8398   2.352   3.902   9.141 -0.3392  0.8428  0.6205
   87SAPS  C315 8399   2.541   3.868   9.042 -0.3394  1.0554 -0.2505
   87SAPS  H15X 8400   2.645   3.836   9.067 -0.0763  1.4687 -0.7712
   87SAPS  H15Y 8401   2.543   3.973   9.003 -1.0142  1.3810  0.5739
   87SAPS  C316 8402   2.487   3.775   8.937  0.2156  0.3520 -0.6634
   87SAPS  H16X 8403   2.387   3.820   8.918  0.7348  0.9230 -2.2050
   87SAPS  H16Y 8404   2.476   3.670   8.971  1.0155  0.4861  0.0602
   87SAPS  C317 8405   2.566   3.769   8.808  0.1378 -0.4082 -1.0716
   87SAPS  H17X 8406   2.671   3.736   8.824 -0.7606 -3.1053 -0.1992
   87SAPS  H17Y 8407   2.575   3.874   8.773 -1.4655 -0.6703 -2.3960
   87SAPS  C318 8408   2.498   3.686   8.700  0.0763  0.2899  0.4453
   87SAPS  H18X 8409   2.552   3.685   8.603 -1.3198 -0.0648 -0.3490
   87SAPS  H18Y 8410   2.393   3.711   8.674 -0.3639 -1.8074  0.0883
   87SAPS  H18Z 8411   2.502   3.585   8.744  0.0595 -0.1991 -0.6450
   88SAPS     N 8412   5.307   2.894  10.985 -0.6337  0.6281 -0.4575
   88SAPS   HN1 8413   5.366   2.977  11.004 -0.2131  0.2120  0.0850
   88SAPS   HN2 8414   5.245   2.872  11.065 -0.2026 -0.5448 -0.4319
   88SAPS   HN3 8415   5.365   2.810  10.964  0.1397  1.3931 -1.5044
   88SAPS   C12 8416   5.234   2.945  10.871  0.0316  0.2064  1.1604
   88SAPS  H12A 8417   5.175   2.866  10.827 -0.2295  0.1592  1.5934
   88SAPS   C13 8418   5.144   3.067  10.870 -0.1188 -0.9281 -0.3130
   88SAPS  O13A 8419   5.129   3.126  10.981 -0.0575  0.5968 -0.3542
   88SAPS  O13B 8420   5.087   3.115  10.766 -0.5171 -0.1064  0.3174
   88SAPS   C11 8421   5.350   2.985  10.777  0.1223  0.2647  0.3728
   88SAPS  H11A 8422   5.306   3.004  10.676 -0.6754  0.7113  0.7877
   88SAPS  H11B 8423   5.427   2.907  10.767  1.4511  1.5902 -0.1194
   88SAPS     P 8424   5.557   3.145  10.782  0.0544 -0.4166 -0.6047
   88SAPS   O13 8425   5.572   3.290  10.823 -0.4326 -0.4754  0.3094
   88SAPS   O14 8426   5.664   3.056  10.834  0.3425 -0.4689  0.1319
   88SAPS   O12 8427   5.419   3.098  10.823 -0.1754  0.1650  0.2087
   88SAPS   O11 8428   5.549   3.134  10.628  0.1061 -0.2551  0.1683
   88SAPS    C1 8429   5.632   3.225  10.548  0.0444  0.3377  0.4835
   88SAPS    HA 8430   5.572   3.313  10.518  2.4113  1.4449 -1.2797
   88SAPS    HB 8431   5.723   3.255  10.604  0.1633 -1.3605  1.2585
   88SAPS    C2 8432   5.683   3.161  10.418 -0.8329  0.4034 -0.5659
   88SAPS    HS 8433   5.761   3.227  10.374  1.9131 -0.9257  1.9462
   88SAPS   O21 8434   5.568   3.151  10.340  0.2641  0.4086  0.0797
   88SAPS   C21 8435   5.579   3.172  10.211  0.2470  0.3170  0.0225
   88SAPS   O22 8436   5.687   3.202  10.158  0.2401 -0.0399  0.2363
   88SAPS   C22 8437   5.440   3.148  10.147  0.2085  0.4320 -0.0365
   88SAPS   H2R 8438   5.419   3.047  10.188 -1.2764  0.0736 -1.5520
   88SAPS   H2S 8439   5.372   3.227  10.184  0.8960 -0.1469  2.6674
   88SAPS    C3 8440   5.759   3.022  10.444  0.3926 -0.1666  0.0064
   88SAPS    HX 8441   5.689   2.935  10.447  1.3623 -0.9567  0.2784
   88SAPS    HY 8442   5.816   3.045  10.536  1.6890  0.1770 -0.8562
   88SAPS   O31 8443   5.853   2.987  10.347  0.7419 -0.0573  0.3628
   88SAPS   C31 8444   5.977   3.050  10.352  0.8211  0.1718 -0.0901
   88SAPS   O32 8445   6.007   3.143  10.425 -0.2388 -0.6741 -0.1358
   88SAPS   C32 8446   6.067   2.982  10.255 -0.2689 -0.3526 -0.3331
   88SAPS   H2X 8447   6.042   3.021  10.154 -1.0434 -0.2846 -0.1197
   88SAPS   H2Y 8448   6.040   2.874  10.251  0.5517 -0.5495 -0.7231
   88SAPS   C23 8449   5.446   3.158   9.992  0.1090 -0.1160  0.0374
   88SAPS   H3R 8450   5.346   3.127   9.956  0.5876 -1.0790 -0.5080
   88SAPS   H3S 8451   5.527   3.099   9.943  1.9261  2.4710 -0.3091
   88SAPS   C24 8452   5.474   3.304   9.950  0.7374 -1.0496 -0.0554
   88SAPS   H4R 8453   5.576   3.333   9.983  0.8248 -1.3233 -0.0880
   88SAPS   H4S 8454   5.405   3.375  10.001  0.7465 -0.8969 -0.2534
   88SAPS   C25 8455   5.453   3.320   9.792 -0.4434 -0.1375  0.1693
   88SAPS   H5R 8456   5.353   3.291   9.756 -0.4220 -0.3369  0.2710
   88SAPS   C26 8457   5.544   3.341   9.698 -0.3496 -0.7251 -0.3093
   88SAPS   H6R 8458   5.510   3.354   9.594 -0.4789  2.2319  0.0292
   88SAPS   C27 8459   5.691   3.364   9.720  0.4169 -0.0826 -0.0484
   88SAPS   H7R 8460   5.739   3.315   9.633  0.1519 -2.4957  1.0822
   88SAPS   H7S 8461   5.729   3.320   9.814  1.5655 -0.2108 -0.5548
   88SAPS   C28 8462   5.701   3.515   9.739  1.0179  0.0971 -0.2043
   88SAPS   H8R 8463   5.685   3.551   9.842 -1.4737  0.4295 -0.6421
   88SAPS   C29 8464   5.724   3.605   9.647 -0.1130 -0.2678 -0.3222
   88SAPS   H9R 8465   5.732   3.712   9.671  2.6521 -0.9910  2.6657
   88SAPS  C210 8466   5.741   3.566   9.506 -0.1175  0.0143  0.3793
   88SAPS  H10R 8467   5.786   3.468   9.481  1.8441  0.8289  0.5378
   88SAPS  H10S 8468   5.817   3.637   9.466 -0.5585  0.4623  0.3289
   88SAPS  C211 8469   5.614   3.589   9.431 -0.1427  0.1237 -0.0111
   88SAPS  H11R 8470   5.521   3.595   9.489  0.2735  0.7508  0.6094
   88SAPS  C212 8471   5.617   3.601   9.300  0.6980 -0.4472  0.4577
   88SAPS  H12R 8472   5.525   3.608   9.241  1.2094 -2.3265 -0.6493
   88SAPS  C213 8473   5.734   3.586   9.204  0.3958 -0.7082  0.4022
   88SAPS  H13R 8474   5.726   3.499   9.136  0.4895 -1.0788  0.8582
   88SAPS  H13S 8475   5.831   3.566   9.255 -0.6564 -0.6264  2.5552
   88SAPS  C214 8476   5.761   3.714   9.119 -0.3525 -0.4306 -0.1363
   88SAPS  H14R 8477   5.750   3.805   9.181 -0.2884  0.6803 -1.7016
   88SAPS  C215 8478   5.801   3.734   8.998  0.0508 -0.1527  0.3183
   88SAPS  H15R 8479   5.806   3.836   8.956  1.6915  0.0690  0.9962
   88SAPS  C216 8480   5.830   3.616   8.907 -0.4857 -0.8430 -0.3429
   88SAPS  H16R 8481   5.737   3.579   8.859 -2.1986 -0.0770  2.1635
   88SAPS  H16S 8482   5.863   3.529   8.967 -1.1053  0.0900  1.4529
   88SAPS  C217 8483   5.938   3.644   8.802 -0.4170  0.2887  0.2501
   88SAPS  H17R 8484   6.035   3.665   8.853 -0.3919 -0.7665  0.6459
   88SAPS  H17S 8485   5.911   3.739   8.749  0.9106 -0.1954 -1.4035
   88SAPS  C218 8486   5.941   3.531   8.691  0.7580 -0.3547 -0.1798
   88SAPS  H18R 8487   5.841   3.514   8.647  0.5069 -1.1444  0.6561
   88SAPS  H18S 8488   5.966   3.432   8.735  0.7227 -0.4354 -0.3401
   88SAPS  C219 8489   6.030   3.582   8.581 -0.1237  0.4593  0.6389
   88SAPS  H19R 8490   6.120   3.625   8.630  1.7045 -0.5735 -1.5748
   88SAPS  H19S 8491   5.970   3.650   8.518 -0.7452  1.0201  1.8082
   88SAPS  C220 8492   6.096   3.479   8.497  0.2749 -0.5177  0.2226
   88SAPS  H20R 8493   6.159   3.524   8.417  0.3043  1.1421  1.1120
   88SAPS  H20S 8494   6.018   3.424   8.440  1.5320  0.5902 -2.7717
   88SAPS  H20T 8495   6.157   3.410   8.558  1.3956  2.9267  3.4118
   88SAPS   C33 8496   6.215   3.005  10.281 -0.2804  0.0112 -0.1682
   88SAPS   H3X 8497   6.235   2.962  10.382 -4.0421 -0.3736  0.5731
   88SAPS   H3Y 8498   6.247   3.109  10.301  1.5735 -0.4144 -0.7525
   88SAPS   C34 8499   6.315   2.949  10.175 -0.3223  0.6277  0.5101
   88SAPS   H4X 8500   6.305   2.838  10.167 -1.5138  0.8338 -1.6043
   88SAPS   H4Y 8501   6.417   2.965  10.216 -0.1773  1.4088 -0.1314
   88SAPS   C35 8502   6.288   3.004  10.024  0.0312  1.0147 -0.0550
   88SAPS   H5X 8503   6.307   3.113  10.017  1.7171  0.7821  0.3454
   88SAPS   H5Y 8504   6.184   2.974   9.999  0.6332 -1.8878  0.5158
   88SAPS   C36 8505   6.380   2.942   9.916 -0.2474 -0.4479 -0.0788
   88SAPS   H6X 8506   6.373   2.831   9.917 -0.5948 -0.4401  1.8196
   88SAPS   H6Y 8507   6.486   2.970   9.933  0.2065 -0.7168 -2.1850
   88SAPS   C37 8508   6.346   3.008   9.781  0.2313  0.5660 -1.1609
   88SAPS   H7X 8509   6.346   3.118   9.792 -3.0866  0.5271  0.1452
   88SAPS   H7Y 8510   6.245   2.972   9.752 -0.7486  0.6784  1.7875
   88SAPS   C38 8511   6.436   2.949   9.672 -0.8020  0.2644 -0.0752
   88SAPS   H8X 8512   6.480   2.848   9.690  2.3427  1.0493 -2.4163
   88SAPS   H8Y 8513   6.526   3.014   9.676  0.9272 -1.6797 -3.0331
   88SAPS   C39 8514   6.377   2.942   9.535  0.0542 -0.4142 -0.3972
   88SAPS   H9X 8515   6.310   3.030   9.533 -0.2620 -0.5796  1.1375
   88SAPS   H9Y 8516   6.322   2.845   9.534  0.9787 -0.9506  0.0233
   88SAPS  C310 8517   6.479   2.969   9.426  0.2073 -0.1618  0.2826
   88SAPS  H10X 8518   6.566   2.901   9.422  2.4685  2.5025  1.2622
   88SAPS  H10Y 8519   6.534   3.064   9.440  0.7085 -0.0197 -2.2089
   88SAPS  C311 8520   6.418   2.982   9.284  0.2475  0.0982  0.6345
   88SAPS  H11X 8521   6.486   3.048   9.224  0.5543 -1.2990 -0.6147
   88SAPS  H11Y 8522   6.324   3.040   9.296 -0.7058 -1.6864  2.3394
   88SAPS  C312 8523   6.395   2.848   9.213  0.4159 -0.0307  0.5471
   88SAPS  H12X 8524   6.315   2.789   9.264  0.6535 -2.8515 -2.0375
   88SAPS  H12Y 8525   6.482   2.780   9.225  0.9110  0.8206  1.9200
   88SAPS  C313 8526   6.353   2.870   9.066 -0.5287  0.2021  0.4839
   88SAPS  H13X 8527   6.448   2.897   9.016 -0.4388 -2.6296 -1.1231
   88SAPS  H13Y 8528   6.281   2.953   9.048  1.6067  1.5059 -3.0639
   88SAPS  C314 8529   6.321   2.730   9.008  0.1374  0.3021  0.8705
   88SAPS  H14X 8530   6.215   2.700   9.023  0.4856 -0.9898  0.8688
   88SAPS  H14Y 8531   6.374   2.654   9.069  0.0258 -0.4817  0.0120
   88SAPS  C315 8532   6.372   2.709   8.864  0.0893 -0.1539  0.0976
   88SAPS  H15X 8533   6.480   2.734   8.859 -0.3396  1.9654  0.5003
   88SAPS  H15Y 8534   6.323   2.786   8.800 -1.1710 -0.3495  0.7814
   88SAPS  C316 8535   6.353   2.568   8.801 -0.1749  0.0212  0.4763
   88SAPS  H16X 8536   6.404   2.497   8.870  0.6890 -0.2507 -0.4274
   88SAPS  H16Y 8537   6.417   2.566   8.710 -0.3347  0.6861  0.3398
   88SAPS  C317 8538   6.204   2.534   8.774  0.4701 -0.0260  0.2179
   88SAPS  H17X 8539   6.173   2.602   8.691  0.9156 -2.4921 -2.1269
   88SAPS  H17Y 8540   6.149   2.543   8.870  1.4978 -2.8553  1.1650
   88SAPS  C318 8541   6.194   2.387   8.726  0.5055 -0.6179  0.6212
   88SAPS  H18X 8542   6.247   2.381   8.628 -1.9814 -0.7866 -0.7865
   88SAPS  H18Y 8543   6.087   2.365   8.707  0.8489 -0.9863 -1.1633
   88SAPS  H18Z 8544   6.241   2.319   8.800  2.6980  0.6100  0.4386
   89SAPS     N 8545   4.870   5.998  10.637 -0.6543  0.0446 -0.6013
   89SAPS   HN1 8546   4.830   6.012  10.541 -2.2505 -1.4526 -0.1938
   89SAPS   HN2 8547   4.896   5.901  10.665  1.5008  0.8008  0.2928
   89SAPS   HN3 8548   4.801   6.041  10.701  1.5729  0.5617  1.5935
   89SAPS   C12 8549   4.993   6.076  10.668 -0.5843  0.2749 -0.5042
   89SAPS  H12A 8550   4.961   6.179  10.671 -2.0934 -0.1292  2.7409
   89SAPS   C13 8551   5.051   6.034  10.809 -0.0611 -0.1406  0.1560
   89SAPS  O13A 8552   4.982   5.966  10.885 -0.1111  0.1516 -0.5755
   89SAPS  O13B 8553   5.156   6.088  10.847 -0.1924 -0.7837 -0.3375
   89SAPS   C11 8554   5.109   6.042  10.565 -0.7235 -0.5024  0.3396
   89SAPS  H11A 8555   5.167   6.137  10.560 -2.4538  0.5386 -1.6985
   89SAPS  H11B 8556   5.067   6.033  10.462  1.0065  0.5388 -0.4929
   89SAPS     P 8557   5.336   5.923  10.544 -0.0501  0.6795  0.4499
   89SAPS   O13 8558   5.400   6.046  10.596  0.9513  0.9764 -0.5693
   89SAPS   O14 8559   5.398   5.795  10.581 -0.2663  0.3589 -0.4660
   89SAPS   O12 8560   5.183   5.922  10.587  0.5049  0.2357 -0.1064
   89SAPS   O11 8561   5.334   5.941  10.381  0.0260  0.3719 -0.7227
   89SAPS    C1 8562   5.283   5.838  10.296  0.1702  0.2305 -0.0175
   89SAPS    HA 8563   5.359   5.764  10.262 -0.2425 -0.1831 -0.0558
   89SAPS    HB 8564   5.206   5.775  10.347 -1.5943  1.2069 -1.3381
   89SAPS    C2 8565   5.232   5.894  10.162  0.3772  0.4516  0.1203
   89SAPS    HS 8566   5.200   5.809  10.099 -0.0567  0.0800  0.8316
   89SAPS   O21 8567   5.333   5.981  10.100 -0.4213  0.5467  0.2309
   89SAPS   C21 8568   5.454   5.934  10.059  0.0006  0.0984  0.3439
   89SAPS   O22 8569   5.488   5.816  10.055 -0.0853 -0.2630  0.4256
   89SAPS   C22 8570   5.536   6.053  10.001 -0.5047 -0.0534  0.4435
   89SAPS   H2R 8571   5.464   6.117   9.946  0.5457  0.1882 -0.6792
   89SAPS   H2S 8572   5.586   6.096  10.090 -1.4132 -0.1433  1.0112
   89SAPS    C3 8573   5.104   5.977  10.189  0.2478 -0.6754  0.4668
   89SAPS    HX 8574   5.137   6.067  10.246  4.1934 -0.8060 -1.2845
   89SAPS    HY 8575   5.049   5.930  10.273  0.2950 -0.7637  0.4480
   89SAPS   O31 8576   5.014   5.991  10.076 -0.6240 -0.6569 -0.2786
   89SAPS   C31 8577   4.955   6.109  10.068 -0.7529 -0.0714  0.4999
   89SAPS   O32 8578   4.968   6.199  10.149  0.1791 -0.0851  0.1885
   89SAPS   C32 8579   4.874   6.111   9.943 -1.2130  0.0646 -0.3924
   89SAPS   H2X 8580   4.799   6.193   9.952  0.2391  1.4160 -0.2160
   89SAPS   H2Y 8581   4.822   6.014   9.927 -1.1039  0.0266 -0.5188
   89SAPS   C23 8582   5.637   6.007   9.891 -0.6091  0.0710  0.2635
   89SAPS   H3R 8583   5.701   5.925   9.931 -1.8228 -2.8771 -3.3241
   89SAPS   H3S 8584   5.696   6.094   9.855 -2.8903  1.2786 -0.7519
   89SAPS   C24 8585   5.589   5.943   9.763  0.0208 -0.0058 -0.0452
   89SAPS   H4R 8586   5.550   5.838   9.767  0.1468 -0.1847 -2.3387
   89SAPS   H4S 8587   5.675   5.921   9.696 -1.0862 -0.7481 -1.2662
   89SAPS   C25 8588   5.508   6.044   9.686 -0.2916  0.4061  0.3336
   89SAPS   H5R 8589   5.541   6.148   9.671 -1.0462  0.4203 -1.4652
   89SAPS   C26 8590   5.398   6.012   9.612  0.1251 -0.3253  0.3602
   89SAPS   H6R 8591   5.347   6.086   9.548  0.8451 -1.5862 -1.7682
   89SAPS   C27 8592   5.343   5.874   9.601  0.0001  0.8494  0.7831
   89SAPS   H7R 8593   5.259   5.859   9.672 -1.0726  0.9254 -0.4187
   89SAPS   H7S 8594   5.411   5.790   9.623 -1.3057 -1.4837 -3.0263
   89SAPS   C28 8595   5.296   5.849   9.461 -0.2547 -0.1301  0.3097
   89SAPS   H8R 8596   5.199   5.896   9.441  0.4344  0.2558 -2.5030
   89SAPS   C29 8597   5.360   5.776   9.361 -0.0737  0.4789 -0.1716
   89SAPS   H9R 8598   5.302   5.767   9.268 -1.6880  2.2749  0.6034
   89SAPS  C210 8599   5.494   5.703   9.378 -0.5644  0.5355  0.0393
   89SAPS  H10R 8600   5.471   5.594   9.378 -1.9884  0.7907 -1.0930
   89SAPS  H10S 8601   5.546   5.730   9.472  1.6192  0.8918 -1.2198
   89SAPS  C211 8602   5.587   5.734   9.259  0.2436 -0.2663  0.0313
   89SAPS  H11R 8603   5.658   5.815   9.282  0.5117 -0.8968  1.5486
   89SAPS  C212 8604   5.580   5.693   9.132 -0.7106  0.6895 -0.2522
   89SAPS  H12R 8605   5.652   5.737   9.062 -0.4503  2.0054  0.8016
   89SAPS  C213 8606   5.482   5.587   9.080 -0.2176 -0.7034  0.0959
   89SAPS  H13R 8607   5.423   5.630   8.996  0.9707 -0.0124 -0.4147
   89SAPS  H13S 8608   5.417   5.550   9.162  0.5878  1.2789  1.7195
   89SAPS  C214 8609   5.564   5.471   9.028  0.6005 -0.3281 -0.7105
   89SAPS  H14R 8610   5.632   5.420   9.099 -0.5563 -1.1498 -0.1544
   89SAPS  C215 8611   5.568   5.430   8.903 -0.2040  0.3821  0.1849
   89SAPS  H15R 8612   5.620   5.335   8.884 -0.0802 -0.9960  5.6307
   89SAPS  C216 8613   5.501   5.480   8.779  0.0263 -0.1596  0.3776
   89SAPS  H16R 8614   5.445   5.574   8.795  0.0816 -0.2458  1.0941
   89SAPS  H16S 8615   5.424   5.406   8.749  1.6637 -1.0409 -1.9319
   89SAPS  C217 8616   5.608   5.512   8.663  0.1925 -0.5713  0.2664
   89SAPS  H17R 8617   5.714   5.500   8.694  0.1441 -1.0133  0.2565
   89SAPS  H17S 8618   5.606   5.620   8.634  0.5963 -0.0735  2.0094
   89SAPS  C218 8619   5.576   5.436   8.529  0.1611 -0.1963 -0.8362
   89SAPS  H18R 8620   5.480   5.477   8.492 -0.6118 -0.5087  0.7279
   89SAPS  H18S 8621   5.552   5.329   8.550  2.2276 -0.7551 -1.1035
   89SAPS  C219 8622   5.677   5.438   8.415 -0.4763  0.4344 -0.1836
   89SAPS  H19R 8623   5.711   5.540   8.389  1.6432 -0.3198 -0.5623
   89SAPS  H19S 8624   5.630   5.385   8.329  1.0358 -0.0865 -0.7325
   89SAPS  C220 8625   5.806   5.353   8.443  0.2606  0.4018  0.3332
   89SAPS  H20R 8626   5.864   5.414   8.516 -0.6746  2.0737 -0.2620
   89SAPS  H20S 8627   5.866   5.341   8.350 -1.4547  0.9194 -0.8974
   89SAPS  H20T 8628   5.789   5.249   8.476  2.5029 -0.3990 -0.7952
   89SAPS   C33 8629   4.965   6.134   9.822  0.2912  0.5883 -0.3136
   89SAPS   H3X 8630   5.049   6.061   9.814  0.6207  1.1931 -4.4555
   89SAPS   H3Y 8631   5.012   6.235   9.827  0.5620  0.6289 -2.6485
   89SAPS   C34 8632   4.895   6.116   9.688 -0.2516  0.3665 -0.0612
   89SAPS   H4X 8633   4.808   6.186   9.679 -1.9305 -1.8524 -2.7897
   89SAPS   H4Y 8634   4.852   6.014   9.680  1.5418 -0.4711  0.5869
   89SAPS   C35 8635   4.987   6.121   9.565 -0.0620  0.4053 -0.5847
   89SAPS   H5X 8636   5.059   6.040   9.585 -1.1152 -0.5730 -0.6423
   89SAPS   H5Y 8637   5.036   6.220   9.554 -2.6138  1.9611  0.9030
   89SAPS   C36 8638   4.904   6.084   9.437  0.2099  0.5141 -0.5762
   89SAPS   H6X 8639   4.842   6.172   9.412 -0.3886  0.9109  2.0365
   89SAPS   H6Y 8640   4.822   6.013   9.461 -0.6071  1.9954  1.2123
   89SAPS   C37 8641   4.973   6.040   9.306 -0.1004  0.0471  0.4281
   89SAPS   H7X 8642   4.892   6.016   9.234 -1.4488  3.2379  0.7005
   89SAPS   H7Y 8643   5.031   5.948   9.329 -1.6387 -0.6258  1.8102
   89SAPS   C38 8644   5.061   6.148   9.248 -0.0612 -0.1003  0.1542
   89SAPS   H8X 8645   5.130   6.191   9.323 -0.5841  1.1345 -0.0465
   89SAPS   H8Y 8646   4.992   6.235   9.242  1.4187  1.1663  0.8808
   89SAPS   C39 8647   5.118   6.128   9.102 -0.0623  0.0802  0.0421
   89SAPS   H9X 8648   5.143   6.223   9.050  1.8406 -0.4327 -0.0355
   89SAPS   H9Y 8649   5.041   6.076   9.040 -0.8437 -1.0186  1.8603
   89SAPS  C310 8650   5.253   6.059   9.107 -0.0371  0.4117 -0.4960
   89SAPS  H10X 8651   5.245   5.965   9.167 -1.0372  0.8458  0.0661
   89SAPS  H10Y 8652   5.328   6.125   9.155  1.9430 -1.4859 -0.7928
   89SAPS  C311 8653   5.309   6.032   8.964  0.3621 -1.5616 -0.4758
   89SAPS  H11X 8654   5.304   6.126   8.906 -1.0179 -1.5352 -0.3662
   89SAPS  H11Y 8655   5.236   5.961   8.918 -1.7050 -0.3031  0.7134
   89SAPS  C312 8656   5.452   6.000   8.958 -0.0214  0.2021 -0.3084
   89SAPS  H12X 8657   5.464   5.913   9.026 -2.4116  0.3815  0.4352
   89SAPS  H12Y 8658   5.505   6.091   8.991 -1.9899  1.1677  0.3741
   89SAPS  C313 8659   5.513   5.959   8.828  0.4549 -0.2282  0.2344
   89SAPS  H13X 8660   5.488   6.043   8.759  0.0456  0.0999  0.7668
   89SAPS  H13Y 8661   5.448   5.878   8.788  0.4829 -1.2968  2.1796
   89SAPS  C314 8662   5.663   5.931   8.825 -0.7020  0.0488 -0.0293
   89SAPS  H14X 8663   5.676   5.838   8.885  0.1427  0.1273 -0.0838
   89SAPS  H14Y 8664   5.722   6.012   8.873  1.6725 -1.7070  0.1819
   89SAPS  C315 8665   5.711   5.916   8.681 -0.7308  0.6575 -0.2124
   89SAPS  H15X 8666   5.722   6.014   8.631 -3.0203  2.6872  2.8689
   89SAPS  H15Y 8667   5.635   5.859   8.623  0.8115 -0.5617 -1.1233
   89SAPS  C316 8668   5.846   5.840   8.670  0.2236 -0.1581 -0.9316
   89SAPS  H16X 8669   5.820   5.746   8.722 -0.0832  0.0269 -0.7483
   89SAPS  H16Y 8670   5.916   5.895   8.737 -0.6913  0.1390 -0.2014
   89SAPS  C317 8671   5.888   5.818   8.530  0.5391 -0.1202  0.1597
   89SAPS  H17X 8672   5.914   5.911   8.475 -1.0209  0.2756  0.0580
   89SAPS  H17Y 8673   5.808   5.760   8.480  1.0030  0.2536 -1.0566
   89SAPS  C318 8674   6.013   5.731   8.536 -0.2075 -0.1063  0.1892
   89SAPS  H18X 8675   6.028   5.695   8.431 -0.4334  1.5468 -0.4375
   89SAPS  H18Y 8676   5.996   5.651   8.611 -0.1283 -0.9327 -0.6553
   89SAPS  H18Z 8677   6.099   5.789   8.574  1.2438 -2.3492  0.5281
   90SAPS     N 8678   0.195   6.131  10.991 -0.1520 -0.2160  0.6162
   90SAPS   HN1 8679   0.164   6.176  11.079 -1.1585  1.8887 -0.7362
   90SAPS   HN2 8680   0.296   6.146  10.970 -0.6815  0.6784 -1.5634
   90SAPS   HN3 8681   0.152   6.186  10.915  4.8708 -0.7035 -3.0988
   90SAPS   C12 8682   0.160   5.982  10.988 -0.3622  0.1252  0.4805
   90SAPS  H12A 8683   0.220   5.935  11.064 -0.0084 -0.7926 -0.3458
   90SAPS   C13 8684   0.006   5.967  11.017 -0.1055  0.4461  0.4263
   90SAPS  O13A 8685  -0.068   6.066  11.050  0.2093  0.1112 -0.1991
   90SAPS  O13B 8686  -0.038   5.849  11.012 -0.0791  0.0151  0.5839
   90SAPS   C11 8687   0.188   5.922  10.848 -0.5474 -0.5753  0.1559
   90SAPS  H11A 8688   0.133   5.981  10.771 -1.5367 -0.2062  1.1231
   90SAPS  H11B 8689   0.136   5.824  10.851  0.0086 -0.9280 -1.0524
   90SAPS     P 8690   0.402   5.911  10.688 -0.1671 -0.0902 -0.2652
   90SAPS   O13 8691   0.367   6.050  10.640 -0.1341 -0.4122 -0.3390
   90SAPS   O14 8692   0.545   5.879  10.696  0.4147 -0.5003 -0.5569
   90SAPS   O12 8693   0.329   5.912  10.832  0.3639 -0.0283 -0.0206
   90SAPS   O11 8694   0.319   5.799  10.606  0.8060 -0.7149 -0.7740
   90SAPS    C1 8695   0.378   5.705  10.517  0.2427  0.9397  0.4948
   90SAPS    HA 8696   0.488   5.690  10.523 -0.0350 -2.6601 -0.8243
   90SAPS    HB 8697   0.334   5.604  10.535  0.9281  0.0078 -2.5377
   90SAPS    C2 8698   0.356   5.737  10.372  0.3212  0.3232 -0.0740
   90SAPS    HS 8699   0.410   5.653  10.324  1.1249  0.6101  0.3023
   90SAPS   O21 8700   0.408   5.871  10.347  0.5910  0.6961 -0.6304
   90SAPS   C21 8701   0.544   5.883  10.334 -0.1882  0.1553  0.2759
   90SAPS   O22 8702   0.618   5.788  10.314 -0.2935  0.4744 -0.7368
   90SAPS   C22 8703   0.576   6.036  10.340 -0.1359 -0.0654  0.0160
   90SAPS   H2R 8704   0.484   6.073  10.390  1.1335 -1.4644  3.7499
   90SAPS   H2S 8705   0.670   6.059  10.394 -1.3450  0.6084  1.9424
   90SAPS    C3 8706   0.207   5.727  10.338 -0.5833  0.0059 -0.0200
   90SAPS    HX 8707   0.153   5.795  10.408  0.8396  2.0430 -0.8036
   90SAPS    HY 8708   0.175   5.624  10.363  0.1213 -0.2497 -0.1710
   90SAPS   O31 8709   0.166   5.775  10.202  0.2787  0.0356  0.0940
   90SAPS   C31 8710   0.045   5.726  10.154  0.0265  0.7793 -0.7940
   90SAPS   O32 8711  -0.015   5.633  10.212 -0.5336  0.2804 -0.2897
   90SAPS   C32 8712   0.013   5.821  10.040 -0.5991  0.0115  0.1655
   90SAPS   H2X 8713   0.080   5.806   9.953 -2.4947  3.4115 -2.1113
   90SAPS   H2Y 8714   0.012   5.929  10.065  1.4814 -0.0978  0.8482
   90SAPS   C23 8715   0.587   6.089  10.192  0.2931 -0.2796  0.4602
   90SAPS   H3R 8716   0.495   6.080  10.131 -0.3527 -1.7306  1.5925
   90SAPS   H3S 8717   0.669   6.036  10.138  1.2531  0.9495  0.6818
   90SAPS   C24 8718   0.630   6.238  10.170 -0.1925 -0.3470 -0.3498
   90SAPS   H4R 8719   0.539   6.289  10.208 -1.0071 -0.7972 -1.6455
   90SAPS   H4S 8720   0.629   6.253  10.060  2.6610  0.9813 -0.2711
   90SAPS   C25 8721   0.754   6.285  10.246 -0.2798 -0.5263  1.0862
   90SAPS   H5R 8722   0.746   6.305  10.354 -0.3884 -0.4917  1.0727
   90SAPS   C26 8723   0.871   6.319  10.187 -0.4372 -0.1139  0.4967
   90SAPS   H6R 8724   0.960   6.341  10.247  0.5982  1.5484 -1.5311
   90SAPS   C27 8725   0.896   6.298  10.035  0.2715  0.1664 -0.3960
   90SAPS   H7R 8726   0.802   6.255   9.994 -0.7078  0.2286  1.6448
   90SAPS   H7S 8727   0.988   6.240  10.011  1.0781  0.9975  0.6116
   90SAPS   C28 8728   0.912   6.437   9.978  0.0937  0.1361  0.0043
   90SAPS   H8R 8729   0.929   6.518  10.050 -1.1725 -0.0850  0.5827
   90SAPS   C29 8730   0.899   6.467   9.845  0.5805 -0.4907 -0.2376
   90SAPS   H9R 8731   0.898   6.572   9.812  0.5442 -0.0900  0.9979
   90SAPS  C210 8732   0.873   6.365   9.742  0.4716  0.2469 -0.2838
   90SAPS  H10R 8733   0.835   6.273   9.791  1.7827  1.1875  2.7024
   90SAPS  H10S 8734   0.974   6.338   9.707  1.2798  2.0924  0.4680
   90SAPS  C211 8735   0.776   6.406   9.634  0.4986  0.0244  0.2330
   90SAPS  H11R 8736   0.676   6.437   9.669  0.4072  0.7798 -0.6572
   90SAPS  C212 8737   0.807   6.423   9.507  0.0372  0.8523  0.2138
   90SAPS  H12R 8738   0.735   6.469   9.437  0.9932  3.2581  0.7199
   90SAPS  C213 8739   0.936   6.403   9.439 -0.1997  0.2006  0.3165
   90SAPS  H13R 8740   1.025   6.441   9.493  1.0158 -0.7824 -0.9016
   90SAPS  H13S 8741   0.932   6.463   9.346 -1.9087  2.0589  1.5188
   90SAPS  C214 8742   0.951   6.256   9.410 -0.2562 -0.8228  0.2550
   90SAPS  H14R 8743   0.893   6.185   9.470 -0.7510 -0.3662  0.3253
   90SAPS  C215 8744   1.041   6.221   9.312  0.1370  0.0110  0.7897
   90SAPS  H15R 8745   1.045   6.116   9.280 -0.6841 -0.7799  3.0415
   90SAPS  C216 8746   1.120   6.311   9.222 -0.0705  0.2210 -0.1417
   90SAPS  H16R 8747   1.224   6.320   9.258 -0.1405  0.6665 -0.0356
   90SAPS  H16S 8748   1.076   6.414   9.217 -2.0686 -0.6285 -1.7260
   90SAPS  C217 8749   1.111   6.273   9.075 -0.4276  0.3870 -0.2036
   90SAPS  H17R 8750   1.003   6.254   9.056 -0.5478  1.7194 -0.8935
   90SAPS  H17S 8751   1.168   6.183   9.044  0.8918  2.1984 -3.5350
   90SAPS  C218 8752   1.152   6.375   8.978  0.2164  0.0839  0.0559
   90SAPS  H18R 8753   1.100   6.466   9.015 -0.8571 -1.6103  3.1085
   90SAPS  H18S 8754   1.101   6.356   8.882  0.5572  0.8006 -0.2741
   90SAPS  C219 8755   1.303   6.392   8.950  0.5009 -0.1638  0.2157
   90SAPS  H19R 8756   1.344   6.289   8.950  0.9642  0.0184  0.4739
   90SAPS  H19S 8757   1.342   6.448   9.037  0.0879  0.5192 -0.0267
   90SAPS  C220 8758   1.341   6.459   8.819  0.3748  0.0084 -0.2503
   90SAPS  H20R 8759   1.289   6.417   8.730  0.9206  0.2357 -0.6821
   90SAPS  H20S 8760   1.450   6.469   8.804  0.2891 -0.3675 -1.2056
   90SAPS  H20T 8761   1.294   6.559   8.825  0.7520  0.5099 -3.6377
   90SAPS   C33 8762  -0.119   5.781   9.968 -0.0716 -0.4079 -0.3002
   90SAPS   H3X 8763  -0.196   5.780  10.048 -1.7810  2.9033 -1.7104
   90SAPS   H3Y 8764  -0.127   5.687   9.910 -0.0673  0.8095 -2.3525
   90SAPS   C34 8765  -0.165   5.900   9.883 -0.0330 -0.3452  0.1454
   90SAPS   H4X 8766  -0.147   5.996   9.935  0.5314  0.3618 -1.2810
   90SAPS   H4Y 8767  -0.274   5.883   9.873  0.5545 -4.3327 -1.3909
   90SAPS   C35 8768  -0.106   5.901   9.740  0.5015  0.0318  0.4499
   90SAPS   H5X 8769   0.000   5.871   9.751 -0.3024 -3.8226 -0.8991
   90SAPS   H5Y 8770  -0.113   6.008   9.708  0.6551 -0.0925 -0.0006
   90SAPS   C36 8771  -0.179   5.815   9.645 -0.7954  0.3108  0.1956
   90SAPS   H6X 8772  -0.280   5.856   9.626 -2.2988 -4.1862 -3.6516
   90SAPS   H6Y 8773  -0.187   5.709   9.678 -4.2541  0.3408 -0.1721
   90SAPS   C37 8774  -0.117   5.810   9.502 -0.3527  0.0540 -0.2711
   90SAPS   H7X 8775  -0.186   5.757   9.434 -0.9900  0.1245  0.3120
   90SAPS   H7Y 8776  -0.016   5.765   9.513 -1.8752 -3.0967  2.7853
   90SAPS   C38 8777  -0.100   5.958   9.443 -0.3114  0.5248 -0.0298
   90SAPS   H8X 8778  -0.035   6.022   9.506  2.2312  1.2389 -3.1326
   90SAPS   H8Y 8779  -0.206   5.993   9.439 -0.6926 -0.7308 -1.6282
   90SAPS   C39 8780  -0.042   5.952   9.303  0.3140  0.7347  0.4742
   90SAPS   H9X 8781  -0.123   5.898   9.249 -1.0671 -1.4299  4.3259
   90SAPS   H9Y 8782   0.053   5.895   9.300  0.7309  1.4299  0.2420
   90SAPS  C310 8783  -0.032   6.095   9.251 -0.3072 -0.0681 -0.7777
   90SAPS  H10X 8784   0.035   6.152   9.319 -0.5155  0.3486 -0.9131
   90SAPS  H10Y 8785  -0.129   6.149   9.258  0.8071  1.8254  2.8114
   90SAPS  C311 8786   0.021   6.122   9.111 -0.7051 -0.0181  0.2217
   90SAPS  H11X 8787   0.025   6.232   9.092 -0.7126 -0.1626 -0.6459
   90SAPS  H11Y 8788  -0.044   6.076   9.034  0.4161  1.3173 -1.6165
   90SAPS  C312 8789   0.167   6.069   9.087 -0.3453 -0.6721 -0.0330
   90SAPS  H12X 8790   0.192   6.072   8.979 -0.0291 -2.5136 -0.0389
   90SAPS  H12Y 8791   0.168   5.962   9.117  0.6175 -1.0401 -1.2974
   90SAPS  C313 8792   0.273   6.150   9.164  0.2388 -0.6935  0.6300
   90SAPS  H13X 8793   0.224   6.210   9.244 -2.0290  0.1879 -1.3003
   90SAPS  H13Y 8794   0.317   6.219   9.089 -2.4760  0.8050  0.3058
   90SAPS  C314 8795   0.377   6.055   9.228  0.2264 -0.0629  0.4153
   90SAPS  H14X 8796   0.371   5.954   9.183 -0.8182 -0.5197  1.5166
   90SAPS  H14Y 8797   0.353   6.050   9.337 -0.6871 -1.8545  0.1560
   90SAPS  C315 8798   0.521   6.103   9.213  0.4510 -0.7478  1.2774
   90SAPS  H15X 8799   0.572   6.035   9.285 -3.1425 -2.7131  2.1924
   90SAPS  H15Y 8800   0.536   6.205   9.253  2.6583 -1.0827  1.4715
   90SAPS  C316 8801   0.577   6.095   9.063 -0.3637 -0.2114 -0.2922
   90SAPS  H16X 8802   0.515   6.168   9.006  0.1675  1.1862  0.8625
   90SAPS  H16Y 8803   0.551   5.998   9.016  1.8599 -0.1292 -1.8738
   90SAPS  C317 8804   0.730   6.111   9.053  0.0940  0.1158 -0.3588
   90SAPS  H17X 8805   0.776   6.040   9.125  0.8830  0.7008 -0.2750
   90SAPS  H17Y 8806   0.756   6.209   9.099 -1.0184  0.3626 -0.2264
   90SAPS  C318 8807   0.779   6.109   8.909  0.8603 -0.1911 -0.4652
   90SAPS  H18X 8808   0.889   6.121   8.919  0.7948 -0.7179  1.2413
   90SAPS  H18Y 8809   0.724   6.177   8.841 -2.7679 -1.5572  0.8580
   90SAPS  H18Z 8810   0.755   6.006   8.875  0.6305  0.1393 -1.3094
   91SAPS     N 8811   5.592   2.827   6.199  0.3743 -0.5636 -0.2245
   91SAPS   HN1 8812   5.525   2.758   6.240  1.3365  0.0383  2.5517
   91SAPS   HN2 8813   5.687   2.807   6.236 -0.3555  0.1852  2.2420
   91SAPS   HN3 8814   5.559   2.919   6.234 -3.2852 -2.2524  1.3291
   91SAPS   C12 8815   5.587   2.817   6.052  0.2334  0.6302  0.5755
   91SAPS  H12A 8816   5.482   2.822   6.025  0.3485  1.9062  0.3275
   91SAPS   C13 8817   5.638   2.937   5.975  0.2922  0.5164 -1.0969
   91SAPS  O13A 8818   5.663   3.045   6.043 -0.1314 -0.1519  1.1488
   91SAPS  O13B 8819   5.594   2.952   5.855 -0.0562  0.0192 -0.4265
   91SAPS   C11 8820   5.653   2.679   6.021 -0.0656 -0.7740  0.3864
   91SAPS  H11A 8821   5.753   2.676   6.068  0.3910  0.2640 -0.4783
   91SAPS  H11B 8822   5.662   2.679   5.910  0.4100  1.1871  0.3971
   91SAPS     P 8823   5.589   2.421   6.052  0.6180 -0.1138  0.0200
   91SAPS   O13 8824   5.465   2.358   5.999  0.0937  0.1603  0.0513
   91SAPS   O14 8825   5.706   2.408   5.966  0.4457 -0.2674  0.2164
   91SAPS   O12 8826   5.560   2.581   6.069  0.0012  0.1365 -0.4717
   91SAPS   O11 8827   5.608   2.374   6.196 -0.5111 -0.3958  0.1621
   91SAPS    C1 8828   5.714   2.409   6.286 -0.0674 -0.2070 -0.7624
   91SAPS    HA 8829   5.812   2.400   6.234  0.2903 -1.6437  0.1066
   91SAPS    HB 8830   5.694   2.517   6.305  2.2338  0.5078 -2.0099
   91SAPS    C2 8831   5.700   2.357   6.433 -0.2183 -0.1335  0.7954
   91SAPS    HS 8832   5.706   2.246   6.436  1.2281 -0.0587  1.2433
   91SAPS   O21 8833   5.584   2.413   6.490  0.0173 -0.1587 -0.2386
   91SAPS   C21 8834   5.519   2.321   6.567 -0.3214 -0.1857 -0.3103
   91SAPS   O22 8835   5.550   2.208   6.583  0.0638  0.0594 -0.1175
   91SAPS   C22 8836   5.412   2.397   6.638  0.6497 -0.4963  0.4454
   91SAPS   H2R 8837   5.360   2.456   6.560 -2.3260 -2.3124  0.9369
   91SAPS   H2S 8838   5.342   2.322   6.679 -1.0015  0.2755 -0.8578
   91SAPS    C3 8839   5.821   2.408   6.515  0.4782  0.9235  0.0287
   91SAPS    HX 8840   5.813   2.519   6.515  1.7116  1.0408  1.6096
   91SAPS    HY 8841   5.909   2.376   6.455  1.5746  1.4149  1.3334
   91SAPS   O31 8842   5.817   2.371   6.647 -0.5051 -0.6745 -0.1523
   91SAPS   C31 8843   5.851   2.255   6.693  0.2951 -0.2229  0.9025
   91SAPS   O32 8844   5.849   2.156   6.623  0.5768 -0.3222 -0.1048
   91SAPS   C32 8845   5.859   2.265   6.848 -0.1266 -0.3876 -0.0881
   91SAPS   H2X 8846   5.960   2.296   6.884  0.3579 -2.4048  0.4078
   91SAPS   H2Y 8847   5.853   2.161   6.887  2.0384 -0.2136  0.8495
   91SAPS   C23 8848   5.463   2.500   6.742  0.2164  0.1751 -0.1387
   91SAPS   H3R 8849   5.558   2.552   6.717  1.8824 -2.4149  0.4526
   91SAPS   H3S 8850   5.492   2.442   6.832  0.3883 -0.2169 -0.4428
   91SAPS   C24 8851   5.366   2.613   6.767  0.1718  0.0939  0.4043
   91SAPS   H4R 8852   5.355   2.665   6.670  2.5422  1.6072  0.8689
   91SAPS   H4S 8853   5.425   2.678   6.835 -1.0963  0.3636  1.3006
   91SAPS   C25 8854   5.230   2.566   6.826 -0.8986 -0.2185 -0.0403
   91SAPS   H5R 8855   5.161   2.498   6.775 -1.9145  1.0008 -0.3345
   91SAPS   C26 8856   5.184   2.606   6.943 -0.2200  0.3916 -0.2902
   91SAPS   H6R 8857   5.088   2.573   6.984 -1.0662  0.2511 -2.2860
   91SAPS   C27 8858   5.261   2.678   7.051  0.3275  0.5743  0.6518
   91SAPS   H7R 8859   5.184   2.700   7.128  0.3186  0.7085  0.6055
   91SAPS   H7S 8860   5.296   2.777   7.012 -0.0165 -0.0944 -1.4647
   91SAPS   C28 8861   5.372   2.600   7.120 -0.0649  0.3156 -0.0296
   91SAPS   H8R 8862   5.411   2.515   7.063 -1.7829 -2.5051  2.7100
   91SAPS   C29 8863   5.427   2.627   7.243 -0.6658  1.0658  0.0849
   91SAPS   H9R 8864   5.497   2.557   7.291 -0.0071  0.7475 -1.2859
   91SAPS  C210 8865   5.388   2.730   7.344  0.2316  0.1015  0.4190
   91SAPS  H10R 8866   5.336   2.808   7.284 -1.4540 -0.3382  1.2573
   91SAPS  H10S 8867   5.481   2.767   7.392  0.2845 -1.0385  1.2438
   91SAPS  C211 8868   5.294   2.688   7.451  0.1419 -0.0533 -0.1152
   91SAPS  H11R 8869   5.188   2.696   7.422  0.2872  2.1294 -0.2634
   91SAPS  C212 8870   5.325   2.661   7.575 -0.2747 -0.4832  0.6682
   91SAPS  H12R 8871   5.242   2.644   7.645  0.1706  2.2168  2.0017
   91SAPS  C213 8872   5.466   2.658   7.625  0.7501  0.0593 -0.1503
   91SAPS  H13R 8873   5.529   2.606   7.549 -1.5168 -0.7879 -1.5486
   91SAPS  H13S 8874   5.463   2.582   7.706 -0.9743 -0.0888 -0.3136
   91SAPS  C214 8875   5.519   2.794   7.668  0.0427  0.1525  0.0863
   91SAPS  H14R 8876   5.563   2.857   7.590 -1.7386  0.7978 -0.4648
   91SAPS  C215 8877   5.509   2.860   7.784  0.4648  0.6039  0.5833
   91SAPS  H15R 8878   5.573   2.949   7.790 -1.0619  2.0532 -2.6743
   91SAPS  C216 8879   5.436   2.804   7.905 -0.3832  0.3315  0.8548
   91SAPS  H16R 8880   5.398   2.703   7.880  1.5548 -0.2781  0.1785
   91SAPS  H16S 8881   5.348   2.860   7.942  0.1400 -0.1553  2.9458
   91SAPS  C217 8882   5.532   2.804   8.024  0.6477 -0.4869 -0.0172
   91SAPS  H17R 8883   5.561   2.910   8.038  0.0532 -0.3635  0.3193
   91SAPS  H17S 8884   5.632   2.762   8.005  0.8655  0.2534 -0.5504
   91SAPS  C218 8885   5.462   2.751   8.152  0.2189  0.6060 -0.1442
   91SAPS  H18R 8886   5.408   2.654   8.137 -3.0877  2.3800 -0.6504
   91SAPS  H18S 8887   5.383   2.826   8.171 -0.8984 -0.2822 -1.1155
   91SAPS  C219 8888   5.553   2.740   8.276  0.0555 -0.6622  0.4401
   91SAPS  H19R 8889   5.600   2.838   8.298 -1.8415  0.2774  0.5678
   91SAPS  H19S 8890   5.630   2.668   8.243  0.3820 -0.3997  0.6250
   91SAPS  C220 8891   5.477   2.699   8.406 -0.4954  0.3465  0.2404
   91SAPS  H20R 8892   5.416   2.781   8.449 -0.1235  0.6221  0.2497
   91SAPS  H20S 8893   5.553   2.663   8.478  0.6009  0.1130 -0.9972
   91SAPS  H20T 8894   5.403   2.620   8.382  0.3341 -0.3220 -0.1309
   91SAPS   C33 8895   5.736   2.341   6.918 -0.1435 -0.7062  0.4833
   91SAPS   H3X 8896   5.643   2.309   6.866  0.8220 -2.5191 -0.2325
   91SAPS   H3Y 8897   5.744   2.450   6.900 -0.8659 -0.8707 -1.0311
   91SAPS   C34 8898   5.728   2.312   7.061 -0.3278  0.7734  0.3957
   91SAPS   H4X 8899   5.737   2.201   7.069 -0.7018  0.5891 -1.4182
   91SAPS   H4Y 8900   5.634   2.347   7.109 -1.0506 -2.1444  1.3407
   91SAPS   C35 8901   5.846   2.377   7.136  0.2879  0.7911  0.3856
   91SAPS   H5X 8902   5.853   2.486   7.113  4.4127  0.7395  0.6395
   91SAPS   H5Y 8903   5.944   2.344   7.096 -0.1938  0.9416 -0.9656
   91SAPS   C36 8904   5.845   2.355   7.291 -0.0551 -0.2361  0.0743
   91SAPS   H6X 8905   5.872   2.248   7.305  2.4397  0.2327 -0.7652
   91SAPS   H6Y 8906   5.740   2.381   7.319 -0.7721 -4.2912  1.8659
   91SAPS   C37 8907   5.952   2.445   7.361  0.0341  0.2127 -0.1789
   91SAPS   H7X 8908   5.926   2.552   7.347 -1.3480 -0.1691 -0.6739
   91SAPS   H7Y 8909   6.041   2.435   7.295 -0.3590  2.1468 -1.0587
   91SAPS   C38 8910   5.990   2.411   7.502 -0.2938 -0.2919  0.2050
   91SAPS   H8X 8911   6.093   2.443   7.528 -0.4883 -0.4376  1.2259
   91SAPS   H8Y 8912   6.013   2.302   7.504  1.1823 -0.0019 -0.1861
   91SAPS   C39 8913   5.884   2.439   7.609  0.1758 -0.8393 -0.4188
   91SAPS   H9X 8914   5.804   2.364   7.592 -0.3560 -0.4800  0.4239
   91SAPS   H9Y 8915   5.829   2.533   7.589  2.6385  0.9856  0.7889
   91SAPS  C310 8916   5.935   2.430   7.755  0.8704 -0.6410 -0.3949
   91SAPS  H10X 8917   5.979   2.528   7.785 -0.0113  0.5828 -2.7587
   91SAPS  H10Y 8918   6.012   2.352   7.770  1.1660 -0.3503 -0.4072
   91SAPS  C311 8919   5.818   2.418   7.862  0.0772 -0.0057  1.2991
   91SAPS  H11X 8920   5.773   2.319   7.839  1.4954 -0.0955 -1.5045
   91SAPS  H11Y 8921   5.743   2.500   7.865 -0.4524 -0.4809  1.1532
   91SAPS  C312 8922   5.879   2.416   7.999 -0.0683  0.4064  0.0995
   91SAPS  H12X 8923   5.951   2.501   8.006 -0.9975  1.0777  2.8403
   91SAPS  H12Y 8924   5.940   2.324   8.008 -1.1853 -0.3805 -0.2140
   91SAPS  C313 8925   5.786   2.423   8.124 -0.3993 -0.7309 -0.0588
   91SAPS  H13X 8926   5.717   2.510   8.114 -0.6257 -1.0082 -1.0300
   91SAPS  H13Y 8927   5.857   2.443   8.207  1.7363 -1.2555 -1.6520
   91SAPS  C314 8928   5.704   2.296   8.150 -0.4787 -0.4171 -0.3163
   91SAPS  H14X 8929   5.767   2.204   8.154 -2.3322 -1.7948 -1.1497
   91SAPS  H14Y 8930   5.640   2.282   8.060 -0.3632 -1.0403 -0.3076
   91SAPS  C315 8931   5.630   2.294   8.285  0.6430  0.1329 -0.6094
   91SAPS  H15X 8932   5.558   2.212   8.263  1.3266 -0.8059  0.5634
   91SAPS  H15Y 8933   5.561   2.382   8.285 -2.0193 -1.6831  3.2845
   91SAPS  C316 8934   5.718   2.290   8.405 -0.2058 -0.9621 -0.5682
   91SAPS  H16X 8935   5.772   2.381   8.441 -1.5698 -0.8293  1.2981
   91SAPS  H16Y 8936   5.795   2.214   8.380  0.0263 -0.0852 -2.7482
   91SAPS  C317 8937   5.642   2.227   8.528  0.2237 -0.0621  0.1738
   91SAPS  H17X 8938   5.715   2.188   8.602 -0.2601  0.5632  1.0032
   91SAPS  H17Y 8939   5.563   2.152   8.504 -1.1344  1.4378 -0.2393
   91SAPS  C318 8940   5.582   2.343   8.617 -0.1036  0.3039 -0.0479
   91SAPS  H18X 8941   5.627   2.441   8.591 -0.4985  0.5625  0.2265
   91SAPS  H18Y 8942   5.604   2.326   8.725  0.8144 -1.3309 -0.4562
   91SAPS  H18Z 8943   5.471   2.335   8.615  0.0072 -1.8979  0.0687
   92SAPS     N 8944   5.213   0.080   6.247 -0.0217  0.6202 -0.4963
   92SAPS   HN1 8945   5.146   0.039   6.179 -1.4046  0.3974  0.9585
   92SAPS   HN2 8946   5.311   0.058   6.220  0.1566  0.5274  0.2147
   92SAPS   HN3 8947   5.193   0.044   6.343 -0.1444 -0.4818 -0.9176
   92SAPS   C12 8948   5.194   0.227   6.268 -0.1068 -0.4732 -0.4837
   92SAPS  H12A 8949   5.284   0.271   6.308 -0.0449  0.0175 -1.1446
   92SAPS   C13 8950   5.156   0.310   6.138 -0.3228  0.3239 -0.1830
   92SAPS  O13A 8951   5.106   0.258   6.043  0.4300 -0.0405  0.0886
   92SAPS  O13B 8952   5.154   0.435   6.162  0.2690  0.1408 -0.5567
   92SAPS   C11 8953   5.077   0.239   6.366  0.3957 -0.6289  0.1183
   92SAPS  H11A 8954   4.982   0.189   6.337 -0.8971  0.7693  1.7661
   92SAPS  H11B 8955   5.043   0.344   6.380  0.0433 -0.9837  2.2643
   92SAPS     P 8956   5.190   0.250   6.602  0.2561 -0.1028 -0.1280
   92SAPS   O13 8957   5.328   0.293   6.566  0.5308  0.0193  0.6611
   92SAPS   O14 8958   5.102   0.363   6.635 -0.4763  0.0324  0.3173
   92SAPS   O12 8959   5.127   0.176   6.486  0.1741 -0.1177  0.4406
   92SAPS   O11 8960   5.192   0.145   6.715 -0.0209 -0.5022  0.3971
   92SAPS    C1 8961   5.093   0.048   6.736  0.2237 -0.2707 -0.0128
   92SAPS    HA 8962   5.011   0.057   6.661  1.4512 -0.9575 -1.4992
   92SAPS    HB 8963   5.142  -0.052   6.737 -1.7919 -1.3107 -0.0688
   92SAPS    C2 8964   5.019   0.054   6.867  0.4043 -0.1108 -1.2139
   92SAPS    HS 8965   4.987   0.159   6.882  1.1986  0.2338 -1.9061
   92SAPS   O21 8966   5.107   0.014   6.975 -0.2006 -0.9877 -0.0395
   92SAPS   C21 8967   5.196   0.103   7.007 -0.2566 -0.1634 -0.4559
   92SAPS   O22 8968   5.207   0.223   6.982 -0.3611  0.1365 -0.4151
   92SAPS   C22 8969   5.295   0.034   7.104  0.8752 -0.2428 -0.1815
   92SAPS   H2R 8970   5.242   0.007   7.198 -0.0903 -0.9626 -0.9079
   92SAPS   H2S 8971   5.331  -0.062   7.063  3.0697  0.3890  0.1298
   92SAPS    C3 8972   4.891  -0.040   6.870 -0.1825 -0.0186 -0.2427
   92SAPS    HX 8973   4.899  -0.130   6.807  0.8373  0.2812 -0.5564
   92SAPS    HY 8974   4.822   0.028   6.816  0.4147  0.4570 -0.4146
   92SAPS   O31 8975   4.845  -0.076   6.997  0.3917  0.0461 -0.3594
   92SAPS   C31 8976   4.794   0.013   7.075 -0.7845 -0.3745 -0.5538
   92SAPS   O32 8977   4.764   0.129   7.039 -0.0513  0.5998 -0.1902
   92SAPS   C32 8978   4.784  -0.044   7.222 -0.2408 -0.2183 -0.1373
   92SAPS   H2X 8979   4.868  -0.005   7.283 -0.0657  0.8816 -1.0414
   92SAPS   H2Y 8980   4.786  -0.155   7.217 -0.8110 -0.3254  1.5291
   92SAPS   C23 8981   5.412   0.126   7.132 -0.3157 -0.9876  0.7095
   92SAPS   H3R 8982   5.373   0.206   7.198  2.1495  0.3778  0.6036
   92SAPS   H3S 8983   5.444   0.161   7.031 -0.0060 -3.0569  0.0466
   92SAPS   C24 8984   5.536   0.063   7.193 -0.0094 -0.1252  1.0924
   92SAPS   H4R 8985   5.616   0.141   7.192 -1.4915  1.5026 -1.2321
   92SAPS   H4S 8986   5.570  -0.014   7.120 -5.1689 -0.3971 -1.4648
   92SAPS   C25 8987   5.510  -0.000   7.327  0.6696  0.2450  0.0393
   92SAPS   H5R 8988   5.435  -0.081   7.316 -0.8496  1.8557 -2.7108
   92SAPS   C26 8989   5.547   0.048   7.443  0.4414  0.3472 -1.1660
   92SAPS   H6R 8990   5.509   0.009   7.539 -0.1782  3.1192 -0.1673
   92SAPS   C27 8991   5.631   0.170   7.470  0.2999 -0.6365 -0.1321
   92SAPS   H7R 8992   5.581   0.228   7.551  1.7296 -0.4456  0.6380
   92SAPS   H7S 8993   5.633   0.238   7.382  1.3936  1.7644  1.6172
   92SAPS   C28 8994   5.772   0.142   7.509 -0.0498 -0.0668  0.9264
   92SAPS   H8R 8995   5.828   0.108   7.420 -1.1348  0.5359 -0.0046
   92SAPS   C29 8996   5.834   0.145   7.632  0.0419 -0.2844  0.1369
   92SAPS   H9R 8997   5.939   0.118   7.648  0.5347  2.5650  2.8661
   92SAPS  C210 8998   5.771   0.197   7.764  1.0033  0.6647  0.6744
   92SAPS  H10R 8999   5.691   0.269   7.735  0.3422 -0.7438 -1.1479
   92SAPS  H10S 9000   5.843   0.256   7.825 -0.9357  0.0920  3.7168
   92SAPS  C211 9001   5.698   0.086   7.841  0.1312 -0.1284  0.2667
   92SAPS  H11R 9002   5.634   0.024   7.777  0.3500  2.0117 -2.2128
   92SAPS  C212 9003   5.693   0.069   7.972 -0.0745  0.4702 -0.4725
   92SAPS  H12R 9004   5.633  -0.012   8.016  1.5406  0.1490  1.3022
   92SAPS  C213 9005   5.769   0.148   8.077  0.6504 -0.4356 -0.7785
   92SAPS  H13R 9006   5.746   0.255   8.061  3.0925 -0.0940 -2.5648
   92SAPS  H13S 9007   5.878   0.124   8.071  0.6545 -0.5710 -0.1911
   92SAPS  C214 9008   5.720   0.095   8.212  0.4110 -0.5199 -0.0477
   92SAPS  H14R 9009   5.744  -0.012   8.222 -1.0185 -0.7637  1.0185
   92SAPS  C215 9010   5.639   0.162   8.299 -0.0068 -0.7369 -0.0522
   92SAPS  H15R 9011   5.623   0.122   8.400 -2.3704  0.9729  0.3376
   92SAPS  C216 9012   5.593   0.310   8.286 -0.7417  0.4658 -0.1075
   92SAPS  H16R 9013   5.535   0.328   8.193 -0.8137  1.7466  0.1649
   92SAPS  H16S 9014   5.676   0.383   8.273  0.5425 -1.0573 -0.8506
   92SAPS  C217 9015   5.494   0.335   8.399  0.1380 -0.3690 -0.3210
   92SAPS  H17R 9016   5.422   0.251   8.412  0.1469  0.0183  3.4258
   92SAPS  H17S 9017   5.449   0.432   8.368 -0.5456 -0.3946  0.5218
   92SAPS  C218 9018   5.556   0.365   8.537  0.4760  0.3360 -0.2202
   92SAPS  H18R 9019   5.628   0.450   8.529  0.7148  0.4959  2.6513
   92SAPS  H18S 9020   5.603   0.277   8.585 -0.5112  0.9906  2.0856
   92SAPS  C219 9021   5.443   0.408   8.624 -0.1948  0.0458 -0.2398
   92SAPS  H19R 9022   5.366   0.329   8.638 -0.6637  0.5598  0.1520
   92SAPS  H19S 9023   5.399   0.496   8.571  0.9282  0.0836 -1.1193
   92SAPS  C220 9024   5.486   0.448   8.763 -0.2932 -0.8335  0.3799
   92SAPS  H20R 9025   5.568   0.523   8.766  0.7817 -1.9948  1.5642
   92SAPS  H20S 9026   5.514   0.354   8.815  1.1054 -1.6984 -1.7689
   92SAPS  H20T 9027   5.401   0.487   8.822  1.4930 -2.5165  4.4101
   92SAPS   C33 9028   4.646  -0.006   7.282 -0.6798 -0.5668 -0.8007
   92SAPS   H3X 9029   4.562  -0.042   7.220  0.4919 -0.6523 -2.4076
   92SAPS   H3Y 9030   4.640   0.105   7.295 -2.0113 -0.6340 -0.6897
   92SAPS   C34 9031   4.619  -0.074   7.426  0.2990  0.2891  0.5815
   92SAPS   H4X 9032   4.511  -0.053   7.445 -0.5459 -2.0078 -1.1626
   92SAPS   H4Y 9033   4.685  -0.034   7.506 -0.2683 -0.6737  1.5600
   92SAPS   C35 9034   4.637  -0.227   7.422  0.1571  0.2826 -1.0509
   92SAPS   H5X 9035   4.738  -0.263   7.395 -0.5688 -1.4054 -1.6304
   92SAPS   H5Y 9036   4.567  -0.269   7.347 -1.6712 -0.3431  0.8922
   92SAPS   C36 9037   4.608  -0.274   7.566 -0.3664  0.3028  0.8347
   92SAPS   H6X 9038   4.513  -0.228   7.602  1.2474  3.7084  1.1507
   92SAPS   H6Y 9039   4.690  -0.232   7.627  1.2512  0.2528 -1.2043
   92SAPS   C37 9040   4.598  -0.426   7.571  0.2902 -0.3525  0.0264
   92SAPS   H7X 9041   4.690  -0.483   7.546  0.5983  1.0495 -2.2806
   92SAPS   H7Y 9042   4.520  -0.459   7.500 -1.5315  2.7277  0.4201
   92SAPS   C38 9043   4.550  -0.476   7.721  0.3597 -0.1498 -0.2263
   92SAPS   H8X 9044   4.448  -0.434   7.737  1.1471  2.0462 -0.6594
   92SAPS   H8Y 9045   4.608  -0.421   7.798 -1.4875  1.6394 -0.0063
   92SAPS   C39 9046   4.539  -0.635   7.726  0.4375 -0.4497  0.4004
   92SAPS   H9X 9047   4.622  -0.686   7.673  0.2657  0.3768 -0.7083
   92SAPS   H9Y 9048   4.439  -0.662   7.685  0.0412  1.4417  0.0384
   92SAPS  C310 9049   4.528  -0.682   7.877  0.7078 -0.3439 -0.4027
   92SAPS  H10X 9050   4.614  -0.643   7.935 -0.2265 -2.2321  2.4773
   92SAPS  H10Y 9051   4.537  -0.793   7.879 -0.2322 -0.4522 -1.1653
   92SAPS  C311 9052   4.399  -0.637   7.948 -0.2499 -0.5693 -0.3529
   92SAPS  H11X 9053   4.309  -0.678   7.898 -0.1573 -1.9506  0.5613
   92SAPS  H11Y 9054   4.394  -0.526   7.951 -0.8478 -0.6145  0.5531
   92SAPS  C312 9055   4.395  -0.674   8.097  0.4021  0.0039 -0.0238
   92SAPS  H12X 9056   4.345  -0.591   8.151 -0.1351 -1.9242  2.6191
   92SAPS  H12Y 9057   4.499  -0.692   8.133  0.4135  1.8699  0.9841
   92SAPS  C313 9058   4.308  -0.798   8.127  0.1720 -0.1766  0.2480
   92SAPS  H13X 9059   4.362  -0.893   8.106  0.3608 -0.3051  1.3035
   92SAPS  H13Y 9060   4.215  -0.791   8.066  0.4104  0.7109 -0.0342
   92SAPS  C314 9061   4.259  -0.821   8.270 -0.5064  0.0169  0.1105
   92SAPS  H14X 9062   4.197  -0.733   8.299 -1.2908  0.5264 -2.7938
   92SAPS  H14Y 9063   4.346  -0.841   8.336  1.8154  0.5594 -2.6198
   92SAPS  C315 9064   4.169  -0.943   8.285  0.3802  0.2077  0.2290
   92SAPS  H15X 9065   4.153  -0.955   8.394  1.2130  2.0439  0.5830
   92SAPS  H15Y 9066   4.226  -1.034   8.255  1.6039  1.2396 -0.7427
   92SAPS  C316 9067   4.033  -0.938   8.225  0.5248 -0.5817  0.1180
   92SAPS  H16X 9068   4.048  -0.927   8.115 -0.2604  2.7796  0.2403
   92SAPS  H16Y 9069   3.994  -0.840   8.259  2.6647  0.8442 -1.2849
   92SAPS  C317 9070   3.930  -1.039   8.268 -0.2362  0.0035  0.5158
   92SAPS  H17X 9071   3.920  -1.038   8.378  2.5684 -1.6401  0.8734
   92SAPS  H17Y 9072   3.973  -1.137   8.237 -0.4040 -0.2230  0.9839
   92SAPS  C318 9073   3.795  -1.012   8.196  0.4919 -0.3180  0.2565
   92SAPS  H18X 9074   3.765  -0.907   8.213  0.2176  0.7437 -5.0477
   92SAPS  H18Y 9075   3.720  -1.085   8.233  0.9319 -2.2936 -2.4457
   92SAPS  H18Z 9076   3.800  -1.034   8.087  2.7849  2.9235 -0.4576
   93SAPS     N 9077   6.148   2.183   6.416  0.0834 -0.1826 -0.2757
   93SAPS   HN1 9078   6.235   2.175   6.359 -0.6052 -0.4855 -1.3185
   93SAPS   HN2 9079   6.137   2.284   6.437  0.8178 -0.0936 -0.2927
   93SAPS   HN3 9080   6.167   2.131   6.504  1.4351  1.1948  0.3089
   93SAPS   C12 9081   6.043   2.119   6.334  0.7309 -0.4967 -0.3659
   93SAPS  H12A 9082   5.952   2.120   6.391  2.9359  1.5291  3.5761
   93SAPS   C13 9083   6.024   2.191   6.200  0.0987 -0.2672  0.0262
   93SAPS  O13A 9084   6.131   2.242   6.149  0.1504 -0.0381 -0.2633
   93SAPS  O13B 9085   5.919   2.162   6.135 -0.2475 -0.4541  0.0538
   93SAPS   C11 9086   6.084   1.971   6.309  0.1287 -0.9940 -0.2819
   93SAPS  H11A 9087   6.178   1.969   6.250  0.6298  1.5683  0.3221
   93SAPS  H11B 9088   6.008   1.927   6.242  0.7127  0.5957 -2.0436
   93SAPS     P 9089   5.978   1.815   6.485  0.1207  0.1900 -0.0547
   93SAPS   O13 9090   5.991   1.783   6.629 -0.4711  0.0862  0.2506
   93SAPS   O14 9091   5.859   1.888   6.444  0.2050 -0.0591  0.4396
   93SAPS   O12 9092   6.106   1.896   6.429  0.4336  0.3003 -0.1177
   93SAPS   O11 9093   5.987   1.689   6.387 -0.1107  0.3549 -0.0102
   93SAPS    C1 9094   6.106   1.607   6.396 -0.1074 -0.8781  0.0543
   93SAPS    HA 9095   6.164   1.641   6.308 -2.1388  0.4612 -0.8501
   93SAPS    HB 9096   6.173   1.628   6.482 -1.0144  0.7343  0.3980
   93SAPS    C2 9097   6.057   1.457   6.405  0.0452 -0.3273 -0.7334
   93SAPS    HS 9098   6.001   1.454   6.310  1.3168  2.8976 -1.7380
   93SAPS   O21 9099   5.970   1.444   6.520  0.6352 -0.0563  0.0263
   93SAPS   C21 9100   5.881   1.349   6.497  0.3528 -0.0033 -0.2510
   93SAPS   O22 9101   5.882   1.280   6.394  0.2119  0.1244 -0.2514
   93SAPS   C22 9102   5.776   1.358   6.606 -0.6077  0.6636 -0.3476
   93SAPS   H2R 9103   5.817   1.399   6.701 -0.6407 -2.7275  1.2776
   93SAPS   H2S 9104   5.706   1.433   6.563 -1.2691 -0.4398 -1.2648
   93SAPS    C3 9105   6.178   1.355   6.405  0.1982  0.5694 -0.3882
   93SAPS    HX 9106   6.228   1.394   6.314  0.8341  0.3670 -0.1293
   93SAPS    HY 9107   6.135   1.253   6.395 -0.6360  0.8451  0.2761
   93SAPS   O31 9108   6.252   1.369   6.529  0.4240 -0.6247  0.1484
   93SAPS   C31 9109   6.381   1.379   6.520  0.4296  0.2808 -0.1528
   93SAPS   O32 9110   6.441   1.377   6.416 -0.1943 -0.5383  0.6598
   93SAPS   C32 9111   6.445   1.379   6.657 -0.1806 -0.2696 -0.3595
   93SAPS   H2X 9112   6.553   1.366   6.635 -0.1525 -0.6015 -0.0449
   93SAPS   H2Y 9113   6.411   1.288   6.711 -0.6765 -0.3381 -0.7845
   93SAPS   C23 9114   5.716   1.227   6.645 -0.1777  0.3559  0.1076
   93SAPS   H3R 9115   5.796   1.154   6.669 -0.6225 -1.0810 -2.3976
   93SAPS   H3S 9116   5.651   1.177   6.570 -0.0172 -3.2243  2.1052
   93SAPS   C24 9117   5.618   1.249   6.764 -0.3130  0.3299  0.1334
   93SAPS   H4R 9118   5.537   1.318   6.730 -0.3814  0.1516 -0.0656
   93SAPS   H4S 9119   5.668   1.308   6.843 -0.1562 -0.2999  0.5160
   93SAPS   C25 9120   5.546   1.129   6.820  0.1492 -0.3445  0.1428
   93SAPS   H5R 9121   5.451   1.101   6.771 -0.4666  1.4129  0.2655
   93SAPS   C26 9122   5.607   1.052   6.919  0.1906  0.0350  0.4484
   93SAPS   H6R 9123   5.550   0.972   6.969  2.6079 -0.9423  1.7937
   93SAPS   C27 9124   5.740   1.089   6.974  0.2578 -0.5664 -0.0776
   93SAPS   H7R 9125   5.739   1.197   7.002  3.4651 -0.4803  0.0348
   93SAPS   H7S 9126   5.822   1.072   6.901 -0.2540 -2.4938 -0.2498
   93SAPS   C28 9127   5.765   1.018   7.105 -0.1689 -0.0490  0.0493
   93SAPS   H8R 9128   5.799   0.914   7.091 -1.0894 -0.1307 -1.8895
   93SAPS   C29 9129   5.716   1.068   7.229 -0.8497  0.2822  1.3876
   93SAPS   H9R 9130   5.744   1.006   7.315  1.4378  0.8693  1.1325
   93SAPS  C210 9131   5.643   1.198   7.259  0.6474 -0.6604 -0.1416
   93SAPS  H10R 9132   5.631   1.274   7.179 -1.9220  3.3103  3.5949
   93SAPS  H10S 9133   5.707   1.246   7.337  2.0305 -1.2288 -0.8859
   93SAPS  C211 9134   5.502   1.169   7.312  0.4843  0.6904 -0.2817
   93SAPS  H11R 9135   5.416   1.172   7.244 -0.0878 -0.0132  0.3924
   93SAPS  C212 9136   5.468   1.154   7.443 -0.7507  0.6653 -0.4083
   93SAPS  H12R 9137   5.362   1.138   7.467 -0.4802 -1.5114 -0.4794
   93SAPS  C213 9138   5.561   1.141   7.559  0.2724  0.2416  0.2190
   93SAPS  H13R 9139   5.551   1.233   7.622 -0.5326 -0.5000  1.2091
   93SAPS  H13S 9140   5.662   1.150   7.513 -0.7130  0.6623 -1.9928
   93SAPS  C214 9141   5.543   1.014   7.637 -0.2579  0.4153  0.3533
   93SAPS  H14R 9142   5.598   0.930   7.593  2.2058  2.9149 -1.7292
   93SAPS  C215 9143   5.463   1.007   7.746  0.0897 -0.5519  0.0060
   93SAPS  H15R 9144   5.460   0.912   7.801  0.2631  0.4357  1.7963
   93SAPS  C216 9145   5.381   1.115   7.817 -0.3298  0.1342 -0.3540
   93SAPS  H16R 9146   5.301   1.066   7.877  0.9072 -2.1077 -0.3960
   93SAPS  H16S 9147   5.340   1.175   7.732  1.1779  1.0297 -0.4761
   93SAPS  C217 9148   5.467   1.198   7.909  0.5724  0.7056  0.0884
   93SAPS  H17R 9149   5.412   1.294   7.917  2.2040  1.5130  3.1002
   93SAPS  H17S 9150   5.566   1.207   7.858 -0.1588  1.2157 -1.2830
   93SAPS  C218 9151   5.486   1.140   8.052  0.2517  0.3774 -0.6070
   93SAPS  H18R 9152   5.541   1.045   8.038  1.3945  1.0724 -1.0840
   93SAPS  H18S 9153   5.382   1.129   8.087  0.5895 -0.6321  0.1048
   93SAPS  C219 9154   5.566   1.225   8.158  0.3643 -0.0449  0.2887
   93SAPS  H19R 9155   5.509   1.318   8.179 -0.2308 -0.1696 -0.6997
   93SAPS  H19S 9156   5.659   1.268   8.114  0.2864 -1.9824 -1.9214
   93SAPS  C220 9157   5.610   1.151   8.287 -0.0722 -0.0510 -0.1027
   93SAPS  H20R 9158   5.674   1.065   8.257  0.9824  0.2154  1.2823
   93SAPS  H20S 9159   5.523   1.128   8.353 -0.3276  1.6556  0.2018
   93SAPS  H20T 9160   5.672   1.215   8.352  1.0349  0.5003 -1.6531
   93SAPS   C33 9161   6.426   1.518   6.725  0.2287  0.1000 -0.3924
   93SAPS   H3X 9162   6.322   1.530   6.762  0.2486 -0.0796 -0.2740
   93SAPS   H3Y 9163   6.450   1.600   6.654 -1.3171  1.0319  0.1077
   93SAPS   C34 9164   6.505   1.546   6.862  0.4710 -0.2126  0.0091
   93SAPS   H4X 9165   6.476   1.651   6.887 -0.2793 -0.8817  2.1059
   93SAPS   H4Y 9166   6.616   1.536   6.867  0.3187 -1.4682  1.3020
   93SAPS   C35 9167   6.456   1.460   6.973 -0.1610 -0.0100  0.2942
   93SAPS   H5X 9168   6.478   1.352   6.959 -3.9380 -0.8427 -0.2612
   93SAPS   H5Y 9169   6.346   1.467   6.983 -0.4706 -1.8224 -1.2024
   93SAPS   C36 9170   6.527   1.488   7.100 -0.1468  0.7654 -0.6425
   93SAPS   H6X 9171   6.558   1.594   7.110 -1.8649  1.2910 -0.4542
   93SAPS   H6Y 9172   6.621   1.432   7.082  0.4062  0.8684  1.5547
   93SAPS   C37 9173   6.464   1.436   7.224  0.5672  0.2241  0.8836
   93SAPS   H7X 9174   6.458   1.326   7.214 -0.7713  0.3350  0.2605
   93SAPS   H7Y 9175   6.359   1.469   7.231  0.1944 -0.8087  0.3788
   93SAPS   C38 9176   6.539   1.466   7.357 -0.8950 -0.0375 -0.0389
   93SAPS   H8X 9177   6.541   1.577   7.362 -2.1743  0.1074 -1.7493
   93SAPS   H8Y 9178   6.641   1.426   7.343 -0.9909 -0.2777 -0.0603
   93SAPS   C39 9179   6.469   1.405   7.476 -0.2040  0.0974  0.3358
   93SAPS   H9X 9180   6.464   1.295   7.471  3.2642 -0.0962 -1.8949
   93SAPS   H9Y 9181   6.370   1.452   7.495 -0.3512  0.3624 -0.9769
   93SAPS  C310 9182   6.539   1.450   7.612  0.4089  0.6131 -0.2171
   93SAPS  H10X 9183   6.549   1.560   7.625  0.0130  0.4934  1.1972
   93SAPS  H10Y 9184   6.643   1.413   7.606 -0.7759 -3.1841 -0.3411
   93SAPS  C311 9185   6.488   1.374   7.731  0.1287  0.3586  0.4829
   93SAPS  H11X 9186   6.554   1.394   7.818 -1.6309 -1.4202  2.3119
   93SAPS  H11Y 9187   6.487   1.265   7.710  1.3438  0.3002  0.6719
   93SAPS  C312 9188   6.349   1.420   7.778  0.0999  0.1493 -0.8479
   93SAPS  H12X 9189   6.287   1.361   7.706  2.3913 -0.4328 -2.4848
   93SAPS  H12Y 9190   6.343   1.530   7.773 -1.8800  0.2492  1.6917
   93SAPS  C313 9191   6.300   1.385   7.917  0.1438 -0.5138  0.1158
   93SAPS  H13X 9192   6.344   1.284   7.927  2.0579  0.2292 -0.2403
   93SAPS  H13Y 9193   6.190   1.376   7.920  0.0715  0.3778  0.4236
   93SAPS  C314 9194   6.358   1.476   8.030  0.2963  0.5366 -0.1642
   93SAPS  H14X 9195   6.332   1.579   7.998  0.8299  0.4780 -0.8105
   93SAPS  H14Y 9196   6.467   1.456   8.028  0.1709 -0.3718 -3.3195
   93SAPS  C315 9197   6.300   1.442   8.164  0.1826 -0.1939  0.4561
   93SAPS  H15X 9198   6.296   1.332   8.177  0.3127  0.0003  2.3766
   93SAPS  H15Y 9199   6.191   1.463   8.173  0.1857  0.2621 -0.4371
   93SAPS  C316 9200   6.372   1.515   8.283  0.5123 -0.2787  0.4789
   93SAPS  H16X 9201   6.342   1.622   8.288  1.1212 -0.1419  1.4134
   93SAPS  H16Y 9202   6.481   1.514   8.263  0.2390  2.1781 -1.5192
   93SAPS  C317 9203   6.352   1.449   8.416 -1.0459  0.2617 -0.0761
   93SAPS  H17X 9204   6.244   1.426   8.435 -0.8032 -1.5046 -0.6207
   93SAPS  H17Y 9205   6.388   1.522   8.491  0.3306  1.1838 -1.5854
   93SAPS  C318 9206   6.436   1.320   8.421 -0.4516  1.1578 -0.0279
   93SAPS  H18X 9207   6.399   1.245   8.348  1.3123 -0.1871  0.3787
   93SAPS  H18Y 9208   6.440   1.269   8.520  1.5199 -1.4622 -1.3494
   93SAPS  H18Z 9209   6.543   1.337   8.397 -0.7663  0.8382 -1.7626
   94SAPS     N 9210   3.760   3.723   5.723  0.3606 -0.1109 -0.2315
   94SAPS   HN1 9211   3.777   3.677   5.815 -2.1958  0.9137  0.8821
   94SAPS   HN2 9212   3.757   3.654   5.646 -1.2430 -0.3541  0.0001
   94SAPS   HN3 9213   3.836   3.789   5.699  1.3907 -1.6579 -1.4338
   94SAPS   C12 9214   3.620   3.796   5.734  0.1385  0.4029  0.3419
   94SAPS  H12A 9215   3.603   3.836   5.635 -0.7433  0.7154  0.6145
   94SAPS   C13 9216   3.501   3.705   5.765  0.2412  0.5898 -0.1841
   94SAPS  O13A 9217   3.517   3.582   5.782 -0.0714 -0.0198  0.0448
   94SAPS  O13B 9218   3.391   3.761   5.788 -0.1792  0.2564  0.2888
   94SAPS   C11 9219   3.641   3.908   5.838 -0.7830 -0.0047 -0.2400
   94SAPS  H11A 9220   3.665   3.865   5.937  1.3500 -3.5165 -2.0914
   94SAPS  H11B 9221   3.542   3.955   5.859 -0.6811 -0.2971  0.9790
   94SAPS     P 9222   3.863   4.045   5.853  0.0320 -0.3178  0.3445
   94SAPS   O13 9223   3.953   3.934   5.823 -0.1094  0.5511  0.0599
   94SAPS   O14 9224   3.912   4.180   5.817  0.2107 -0.0766 -0.3216
   94SAPS   O12 9225   3.723   4.016   5.791  0.3887  0.9369 -0.1007
   94SAPS   O11 9226   3.838   4.049   6.009  0.0227 -0.3238 -0.0886
   94SAPS    C1 9227   3.735   4.130   6.067 -0.1343  0.6284  0.6063
   94SAPS    HA 9228   3.729   4.219   5.999  1.1038  0.2012 -0.0858
   94SAPS    HB 9229   3.641   4.072   6.072  1.9624 -3.0582  0.3989
   94SAPS    C2 9230   3.785   4.187   6.203  0.6312 -0.5418 -0.1511
   94SAPS    HS 9231   3.726   4.279   6.223  0.8269 -0.6172  0.7963
   94SAPS   O21 9232   3.929   4.209   6.204 -0.5167 -0.7352  0.0485
   94SAPS   C21 9233   3.967   4.309   6.124  0.3839  0.2112  0.3911
   94SAPS   O22 9234   3.898   4.395   6.068  0.2927  0.6325  0.1205
   94SAPS   C22 9235   4.122   4.319   6.115 -0.8738 -0.1721  0.0526
   94SAPS   H2R 9236   4.150   4.218   6.078  2.5619 -0.2057  2.3698
   94SAPS   H2S 9237   4.142   4.402   6.044  0.3575 -0.9179 -0.5097
   94SAPS    C3 9238   3.745   4.081   6.310  0.6319 -0.1787  0.1305
   94SAPS    HX 9239   3.790   3.982   6.286  1.0776  0.4158 -1.6883
   94SAPS    HY 9240   3.635   4.072   6.305  0.7191 -0.5624 -1.6320
   94SAPS   O31 9241   3.799   4.124   6.438 -0.6119  0.1193  0.0590
   94SAPS   C31 9242   3.918   4.070   6.473 -0.1718 -0.6873 -0.2515
   94SAPS   O32 9243   3.989   3.990   6.418 -0.1343  0.1601 -0.1240
   94SAPS   C32 9244   3.958   4.159   6.592  0.0126  0.0964  0.0229
   94SAPS   H2X 9245   3.880   4.160   6.671 -0.9476  0.0360 -0.8993
   94SAPS   H2Y 9246   3.977   4.259   6.549  0.8332 -0.4255 -0.8653
   94SAPS   C23 9247   4.190   4.346   6.253  0.6606 -0.1197  0.3245
   94SAPS   H3R 9248   4.170   4.252   6.308 -2.4210 -2.4718 -4.1663
   94SAPS   H3S 9249   4.133   4.426   6.304 -0.9742 -1.2327  0.3172
   94SAPS   C24 9250   4.336   4.385   6.225 -0.2121  0.1064 -0.3867
   94SAPS   H4R 9251   4.345   4.460   6.143 -1.7886 -0.5455 -1.2034
   94SAPS   H4S 9252   4.392   4.299   6.183 -1.9984 -0.3106 -2.0378
   94SAPS   C25 9253   4.403   4.436   6.350 -0.0141  0.3992 -0.0856
   94SAPS   H5R 9254   4.426   4.543   6.352  1.8984  0.0252  0.1899
   94SAPS   C26 9255   4.446   4.370   6.462  0.4141  0.5092 -0.1217
   94SAPS   H6R 9256   4.509   4.419   6.537  0.6997  1.4776 -0.9749
   94SAPS   C27 9257   4.433   4.218   6.476  0.9011 -0.0602  0.1248
   94SAPS   H7R 9258   4.367   4.185   6.393  0.6333  2.0356 -0.5539
   94SAPS   H7S 9259   4.377   4.188   6.568 -1.0430 -1.2134 -1.3538
   94SAPS   C28 9260   4.549   4.132   6.448  0.5130 -0.6966  0.2885
   94SAPS   H8R 9261   4.628   4.166   6.380 -0.1022 -1.1071 -0.6474
   94SAPS   C29 9262   4.565   4.004   6.482 -0.0520 -0.4828 -0.3338
   94SAPS   H9R 9263   4.646   3.949   6.433 -0.3238 -1.1053 -0.1074
   94SAPS  C210 9264   4.462   3.926   6.548 -0.2371  0.1007 -0.2415
   94SAPS  H10R 9265   4.428   3.975   6.642 -1.5199  1.0822 -1.1775
   94SAPS  H10S 9266   4.508   3.829   6.578 -0.5250 -0.6829 -2.2196
   94SAPS  C211 9267   4.343   3.880   6.463 -0.1193  0.5631  0.5390
   94SAPS  H11R 9268   4.346   3.910   6.357  1.8454 -1.1184  0.0617
   94SAPS  C212 9269   4.250   3.786   6.501  0.1035 -0.7946  0.1891
   94SAPS  H12R 9270   4.168   3.763   6.432 -1.4851  0.3634  1.6098
   94SAPS  C213 9271   4.234   3.735   6.645  0.0130  0.3420 -0.4573
   94SAPS  H13R 9272   4.187   3.815   6.706  0.3032  0.4835 -0.4203
   94SAPS  H13S 9273   4.326   3.703   6.698 -1.2075 -0.1446  1.4941
   94SAPS  C214 9274   4.134   3.623   6.642  0.5374  0.4180 -0.0406
   94SAPS  H14R 9275   4.099   3.572   6.552 -1.3896 -2.4460  2.1477
   94SAPS  C215 9276   4.079   3.559   6.749 -0.5276  0.5087 -0.2783
   94SAPS  H15R 9277   4.008   3.478   6.729 -0.6717  0.2272  1.2174
   94SAPS  C216 9278   4.113   3.580   6.895  0.4890 -0.0886 -0.2244
   94SAPS  H16R 9279   4.030   3.632   6.947  1.0218  0.3983  0.1655
   94SAPS  H16S 9280   4.204   3.643   6.905  0.3050 -0.0034  1.0744
   94SAPS  C217 9281   4.131   3.452   6.977  0.4164 -0.1103  0.1501
   94SAPS  H17R 9282   4.218   3.394   6.939 -0.8108 -1.4008 -0.8069
   94SAPS  H17S 9283   4.045   3.383   6.968 -0.6202  0.8266  2.2226
   94SAPS  C218 9284   4.160   3.477   7.127  0.4480  0.6324 -0.0672
   94SAPS  H18R 9285   4.242   3.549   7.147 -0.5821  1.8429 -0.0471
   94SAPS  H18S 9286   4.200   3.381   7.167  0.1776 -0.5341 -2.4094
   94SAPS  C219 9287   4.041   3.514   7.218 -0.3079  0.3967 -0.6006
   94SAPS  H19R 9288   3.951   3.461   7.180 -0.0569  1.1190 -2.2911
   94SAPS  H19S 9289   4.021   3.622   7.201  0.0040  0.5350 -0.0942
   94SAPS  C220 9290   4.073   3.489   7.370  0.1598  0.7017 -0.7563
   94SAPS  H20R 9291   4.068   3.380   7.393  0.3891  0.3889 -2.1062
   94SAPS  H20S 9292   3.989   3.523   7.434  0.2206 -0.2831 -0.1262
   94SAPS  H20T 9293   4.160   3.551   7.401  0.7325 -0.3887 -0.1360
   94SAPS   C33 9294   4.082   4.108   6.672 -0.2116 -0.0418 -0.0239
   94SAPS   H3X 9295   4.169   4.092   6.604 -0.4265 -0.2774 -0.2445
   94SAPS   H3Y 9296   4.065   4.017   6.733 -5.3312  1.0601  0.6361
   94SAPS   C34 9297   4.131   4.228   6.768  0.3851  0.2399 -0.2220
   94SAPS   H4X 9298   4.047   4.267   6.829  0.4921 -0.9718  0.7464
   94SAPS   H4Y 9299   4.161   4.306   6.695  0.1536 -0.3542 -0.9690
   94SAPS   C35 9300   4.243   4.183   6.860 -0.5053  0.6064 -0.4011
   94SAPS   H5X 9301   4.306   4.267   6.896  0.5614 -1.0261  1.7221
   94SAPS   H5Y 9302   4.306   4.110   6.806 -0.3913  1.0315 -0.8554
   94SAPS   C36 9303   4.187   4.128   6.991 -0.0756 -0.1508 -0.1388
   94SAPS   H6X 9304   4.136   4.030   6.980 -0.2435 -0.2366  1.2619
   94SAPS   H6Y 9305   4.106   4.195   7.027 -0.2373 -0.0477 -0.6830
   94SAPS   C37 9306   4.298   4.114   7.093 -0.1958 -0.1016  0.6339
   94SAPS   H7X 9307   4.364   4.201   7.111  0.0976 -0.6601  2.5188
   94SAPS   H7Y 9308   4.361   4.025   7.070 -1.2254 -0.6231 -0.2343
   94SAPS   C38 9309   4.246   4.102   7.240  0.8716  0.1941 -0.0960
   94SAPS   H8X 9310   4.181   4.011   7.245  1.8822 -0.5537 -0.2024
   94SAPS   H8Y 9311   4.192   4.196   7.263  0.5085  0.5408 -2.2029
   94SAPS   C39 9312   4.361   4.086   7.345 -0.7785  0.0505 -0.2588
   94SAPS   H9X 9313   4.426   4.176   7.351 -1.7136  0.8587 -1.5750
   94SAPS   H9Y 9314   4.426   4.004   7.306 -0.2986  0.4122 -0.2337
   94SAPS  C310 9315   4.318   4.043   7.484  0.0147 -0.0842  0.0327
   94SAPS  H10X 9316   4.419   4.046   7.531  0.4754  0.7992 -0.9604
   94SAPS  H10Y 9317   4.286   3.937   7.476  1.3843 -0.4135 -1.7733
   94SAPS  C311 9318   4.221   4.143   7.558 -0.9200  0.2614  0.2496
   94SAPS  H11X 9319   4.125   4.126   7.503  0.4873 -0.1077 -2.2449
   94SAPS  H11Y 9320   4.252   4.248   7.540  3.2321 -0.9987 -0.9767
   94SAPS  C312 9321   4.218   4.121   7.711 -0.0235  0.0455 -0.0029
   94SAPS  H12X 9322   4.323   4.143   7.741  0.4273 -2.4785  0.4661
   94SAPS  H12Y 9323   4.194   4.013   7.722 -0.9124  0.0315 -1.7268
   94SAPS  C313 9324   4.121   4.218   7.788  0.2983 -0.4012 -0.9611
   94SAPS  H13X 9325   4.021   4.208   7.740  0.0059  2.9179 -1.3074
   94SAPS  H13Y 9326   4.161   4.319   7.767 -0.7713  0.2479  0.0268
   94SAPS  C314 9327   4.118   4.205   7.938 -0.0412 -0.1109 -0.5266
   94SAPS  H14X 9328   4.220   4.236   7.969 -0.6377 -0.2263  1.7428
   94SAPS  H14Y 9329   4.112   4.098   7.967  1.1307 -0.4933 -1.6002
   94SAPS  C315 9330   4.013   4.276   8.011  0.6745 -0.5573  0.8635
   94SAPS  H15X 9331   3.913   4.233   7.989  0.8695 -0.0386 -1.3680
   94SAPS  H15Y 9332   4.022   4.382   7.977 -0.5927 -0.4459  0.8014
   94SAPS  C316 9333   4.034   4.272   8.161  0.1084 -0.4520 -0.4073
   94SAPS  H16X 9334   4.117   4.345   8.176 -2.0348  1.8418  1.0595
   94SAPS  H16Y 9335   4.077   4.180   8.206 -0.2771  0.1190  1.1715
   94SAPS  C317 9336   3.900   4.293   8.242 -0.2224  0.6694  0.0870
   94SAPS  H17X 9337   3.911   4.289   8.352 -0.9646 -0.4966  0.1419
   94SAPS  H17Y 9338   3.837   4.202   8.227  0.4000  0.3535 -0.7220
   94SAPS  C318 9339   3.815   4.414   8.194 -0.9763  0.7282 -0.4175
   94SAPS  H18X 9340   3.725   4.423   8.259 -2.6466 -1.0338 -2.3519
   94SAPS  H18Y 9341   3.778   4.391   8.092  1.2029 -0.7228 -0.9602
   94SAPS  H18Z 9342   3.884   4.501   8.189 -1.2749  1.0750  0.8690
   95SAPS     N 9343   1.817   0.868   6.217  0.6122  1.0598  0.0289
   95SAPS   HN1 9344   1.739   0.931   6.244 -1.7175 -2.2214  1.5778
   95SAPS   HN2 9345   1.774   0.780   6.182 -0.2439  0.9258  1.3603
   95SAPS   HN3 9346   1.873   0.841   6.301 -1.7507 -0.7345  1.1460
   95SAPS   C12 9347   1.903   0.927   6.105 -0.3540 -0.5223 -0.1101
   95SAPS  H12A 9348   1.991   0.864   6.102 -0.5298 -0.7461 -0.8268
   95SAPS   C13 9349   1.834   0.915   5.964  0.4861  0.0833 -0.0533
   95SAPS  O13A 9350   1.711   0.877   5.958 -0.0304 -0.6231 -0.0079
   95SAPS  O13B 9351   1.909   0.914   5.861 -0.1119  0.9322  0.0628
   95SAPS   C11 9352   1.948   1.076   6.130  0.3259  0.4120 -0.1816
   95SAPS  H11A 9353   1.859   1.136   6.158 -1.1205 -1.5406 -0.4071
   95SAPS  H11B 9354   1.990   1.120   6.037  0.9010 -1.7101 -0.9708
   95SAPS     P 9355   2.101   1.224   6.270 -0.0962 -0.0637  0.3150
   95SAPS   O13 9356   2.221   1.220   6.352  0.4117  0.5739 -0.4856
   95SAPS   O14 9357   2.107   1.310   6.152  0.9276 -0.5708  0.0516
   95SAPS   O12 9358   2.050   1.082   6.231 -0.2477  0.5404 -0.4332
   95SAPS   O11 9359   1.987   1.286   6.354 -0.4523 -0.4632  0.2134
   95SAPS    C1 9360   1.893   1.211   6.430  0.1782 -0.3994  0.4598
   95SAPS    HA 9361   1.820   1.283   6.473 -0.0278  0.1072 -0.6923
   95SAPS    HB 9362   1.832   1.136   6.376  2.0735 -3.2883  2.0893
   95SAPS    C2 9363   1.957   1.124   6.546 -0.5998 -1.0514  0.0014
   95SAPS    HS 9364   2.028   1.053   6.497 -0.0709  0.8894 -2.2615
   95SAPS   O21 9365   1.854   1.047   6.613 -0.9443  0.1730 -0.2722
   95SAPS   C21 9366   1.903   0.944   6.687 -0.2761  0.9668 -0.6240
   95SAPS   O22 9367   2.021   0.908   6.700 -0.7006 -0.5626  0.1648
   95SAPS   C22 9368   1.782   0.865   6.735  0.4683 -0.7751 -0.1531
   95SAPS   H2R 9369   1.719   0.928   6.801  2.9022  1.7341 -0.0249
   95SAPS   H2S 9370   1.739   0.841   6.635 -0.7968  0.8424 -0.0499
   95SAPS    C3 9371   2.039   1.213   6.646  0.4915  0.2888  0.7277
   95SAPS    HX 9372   2.116   1.270   6.590  0.2981  0.1062  0.2704
   95SAPS    HY 9373   2.091   1.138   6.709 -0.9299 -0.7457  0.7096
   95SAPS   O31 9374   1.951   1.291   6.725  0.0978 -0.6451 -0.1170
   95SAPS   C31 9375   1.974   1.427   6.727 -0.1618 -0.3969  0.1581
   95SAPS   O32 9376   2.059   1.486   6.662  0.7299  0.5099  0.1518
   95SAPS   C32 9377   1.874   1.489   6.829  0.1833  0.1854 -0.4233
   95SAPS   H2X 9378   1.842   1.416   6.906  0.5318  1.0735  0.5813
   95SAPS   H2Y 9379   1.797   1.533   6.762  0.8730  0.9752 -0.7148
   95SAPS   C23 9380   1.830   0.732   6.803  0.2966 -0.0889  0.3168
   95SAPS   H3R 9381   1.914   0.686   6.747 -0.2547 -1.1917  0.3723
   95SAPS   H3S 9382   1.740   0.668   6.811  0.2406  0.1937  2.6460
   95SAPS   C24 9383   1.883   0.740   6.946  0.3957  0.1855 -0.0252
   95SAPS   H4R 9384   1.808   0.803   6.998 -0.4002 -0.0064 -0.9167
   95SAPS   H4S 9385   1.981   0.793   6.954  0.3896  0.1141  0.5148
   95SAPS   C25 9386   1.883   0.613   7.026  0.3399 -0.1291 -0.2650
   95SAPS   H5R 9387   1.835   0.525   6.982 -1.4516  0.1451  1.0253
   95SAPS   C26 9388   1.938   0.593   7.151  0.3746  0.8294  0.1000
   95SAPS   H6R 9389   1.934   0.488   7.184  2.4061 -0.3022 -2.8812
   95SAPS   C27 9390   2.004   0.695   7.236 -0.4916 -0.2285 -0.4878
   95SAPS   H7R 9391   1.953   0.696   7.335  0.1291 -0.3463 -0.1677
   95SAPS   H7S 9392   1.984   0.797   7.196 -0.9225  0.6290  1.7766
   95SAPS   C28 9393   2.153   0.671   7.239  0.5907  0.4637 -0.0817
   95SAPS   H8R 9394   2.191   0.619   7.150 -0.2835  0.5986 -0.5400
   95SAPS   C29 9395   2.232   0.688   7.345  0.5539  0.5119 -0.5562
   95SAPS   H9R 9396   2.339   0.669   7.328  1.2384  3.8809 -0.7545
   95SAPS  C210 9397   2.186   0.734   7.479  0.0030 -0.1598  0.1984
   95SAPS  H10R 9398   2.175   0.642   7.541  1.3601 -0.3536  0.1855
   95SAPS  H10S 9399   2.083   0.776   7.472 -0.2249 -0.9090 -1.4767
   95SAPS  C211 9400   2.274   0.839   7.540  0.2391  0.1484  0.7054
   95SAPS  H11R 9401   2.353   0.879   7.476 -0.9541  0.5574 -0.5540
   95SAPS  C212 9402   2.286   0.871   7.671  0.3641  0.7693  0.1051
   95SAPS  H12R 9403   2.355   0.950   7.704  0.2275  0.7724  0.3876
   95SAPS  C213 9404   2.199   0.805   7.784  1.2121  0.1859  1.3464
   95SAPS  H13R 9405   2.219   0.696   7.778 -1.1928 -0.2708  0.2362
   95SAPS  H13S 9406   2.091   0.823   7.762  1.7126 -0.1440 -1.8428
   95SAPS  C214 9407   2.235   0.849   7.923 -0.3788 -0.3396  0.3658
   95SAPS  H14R 9408   2.339   0.822   7.949  1.1413  0.3323 -4.1999
   95SAPS  C215 9409   2.165   0.935   8.000  0.1168  0.3956  0.8827
   95SAPS  H15R 9410   2.201   0.954   8.102 -1.0888  2.3538  1.0040
   95SAPS  C216 9411   2.036   1.005   7.966 -0.2774  0.2076 -0.7927
   95SAPS  H16R 9412   1.966   0.922   7.987  1.2531 -0.6309  1.4217
   95SAPS  H16S 9413   2.028   1.038   7.860 -0.1623 -2.4396 -1.6755
   95SAPS  C217 9414   2.012   1.129   8.045  0.7607  0.9478 -0.4961
   95SAPS  H17R 9415   1.917   1.173   8.009  0.2812  1.8584  1.7192
   95SAPS  H17S 9416   2.102   1.189   8.019 -0.5170  2.1705 -2.2905
   95SAPS  C218 9417   1.991   1.109   8.196  0.7936 -0.0197 -0.5887
   95SAPS  H18R 9418   2.084   1.087   8.253  0.2574  1.0573  0.7663
   95SAPS  H18S 9419   1.919   1.026   8.206  0.6547  0.0544 -0.9561
   95SAPS  C219 9420   1.935   1.230   8.272  0.8515  0.5886  1.0608
   95SAPS  H19R 9421   1.839   1.242   8.217  1.1834 -1.5402 -0.0901
   95SAPS  H19S 9422   1.989   1.325   8.250  1.3021  0.2750  0.7942
   95SAPS  C220 9423   1.890   1.211   8.420 -0.0009 -1.0721 -0.2927
   95SAPS  H20R 9424   1.972   1.248   8.484 -0.5032  0.2208 -0.3671
   95SAPS  H20S 9425   1.870   1.106   8.450  2.0384 -1.3243  0.3168
   95SAPS  H20T 9426   1.800   1.270   8.447 -0.6797 -1.6167 -1.2710
   95SAPS   C33 9427   1.929   1.601   6.921 -0.6317  0.6090 -0.3298
   95SAPS   H3X 9428   1.966   1.687   6.861  3.4712  0.3898  1.5253
   95SAPS   H3Y 9429   2.011   1.568   6.988 -1.1763  0.4504  0.2631
   95SAPS   C34 9430   1.822   1.647   7.021 -0.1397  0.2127  0.6478
   95SAPS   H4X 9431   1.780   1.564   7.081  2.8113 -0.7616  1.5236
   95SAPS   H4Y 9432   1.737   1.691   6.964  1.2655  1.3834 -0.6599
   95SAPS   C35 9433   1.880   1.755   7.118 -0.3411 -0.2914 -0.2843
   95SAPS   H5X 9434   1.884   1.853   7.067 -1.3648 -0.0448  0.0802
   95SAPS   H5Y 9435   1.976   1.723   7.164 -0.8834  0.0770  1.1701
   95SAPS   C36 9436   1.793   1.785   7.240  0.4213 -0.2061 -0.4077
   95SAPS   H6X 9437   1.771   1.690   7.293  1.8137 -0.9381 -1.0953
   95SAPS   H6Y 9438   1.691   1.808   7.204  0.1189 -1.7410 -0.6211
   95SAPS   C37 9439   1.871   1.886   7.324 -0.8411 -0.1507  0.0463
   95SAPS   H7X 9440   1.863   1.989   7.283  0.0140  0.2286  0.8033
   95SAPS   H7Y 9441   1.976   1.853   7.334 -0.3053  1.1254 -1.0498
   95SAPS   C38 9442   1.811   1.899   7.462 -0.0644  0.6738 -0.1865
   95SAPS   H8X 9443   1.800   1.795   7.499 -4.0305  0.9351 -0.2570
   95SAPS   H8Y 9444   1.711   1.945   7.445  1.4597  4.4726  0.1075
   95SAPS   C39 9445   1.898   1.985   7.551 -0.4800  0.5665 -0.3932
   95SAPS   H9X 9446   1.903   2.090   7.513 -3.6385  0.6436 -0.8374
   95SAPS   H9Y 9447   2.001   1.944   7.548 -0.0365  1.2294  2.4617
   95SAPS  C310 9448   1.857   1.974   7.697 -0.1698  0.4932 -0.3143
   95SAPS  H10X 9449   1.883   1.871   7.730  0.6936  0.6364 -0.5094
   95SAPS  H10Y 9450   1.750   2.000   7.711 -0.3112 -0.8043  1.4005
   95SAPS  C311 9451   1.936   2.073   7.785  0.4027 -0.2993  0.4362
   95SAPS  H11X 9452   1.888   2.170   7.761  0.6403 -0.0339  1.0070
   95SAPS  H11Y 9453   2.044   2.080   7.759 -0.2053  1.1448 -2.0341
   95SAPS  C312 9454   1.917   2.024   7.924  0.2213 -0.5525 -0.9220
   95SAPS  H12X 9455   1.931   1.914   7.933  1.8888 -0.2690  0.4057
   95SAPS  H12Y 9456   1.812   2.050   7.949  0.1077 -0.5003 -1.4439
   95SAPS  C313 9457   2.017   2.100   8.018  0.0384 -0.2814 -1.1575
   95SAPS  H13X 9458   1.992   2.208   8.030 -1.0258 -0.7724  1.8244
   95SAPS  H13Y 9459   2.117   2.086   7.972  2.0204  1.6803  2.1858
   95SAPS  C314 9460   2.011   2.042   8.169 -0.4636 -0.3305  0.8910
   95SAPS  H14X 9461   2.077   1.953   8.169  2.0912  1.4660  0.5164
   95SAPS  H14Y 9462   1.906   2.017   8.199 -0.6466  0.0155  0.5430
   95SAPS  C315 9463   2.057   2.149   8.269 -0.2735 -0.4888  0.1128
   95SAPS  H15X 9464   2.000   2.243   8.254 -2.8610 -1.4096  3.1533
   95SAPS  H15Y 9465   2.167   2.166   8.266 -0.7632  3.3603 -0.5751
   95SAPS  C316 9466   2.015   2.109   8.410  0.6505  0.0035 -0.4474
   95SAPS  H16X 9467   1.908   2.078   8.420  0.6134  0.3957  0.4482
   95SAPS  H16Y 9468   2.014   2.185   8.491 -2.8831  1.4569 -1.6755
   95SAPS  C317 9469   2.095   1.988   8.457 -0.0870 -0.2098 -0.4866
   95SAPS  H17X 9470   2.204   2.003   8.443 -0.2318  0.4182 -1.0666
   95SAPS  H17Y 9471   2.066   1.901   8.394  1.5115 -2.5023  1.7828
   95SAPS  C318 9472   2.092   1.954   8.610 -0.2120  0.2419  0.5218
   95SAPS  H18X 9473   2.100   2.045   8.673  1.1729  0.0188  0.7089
   95SAPS  H18Y 9474   2.169   1.880   8.641 -0.9529 -1.1761 -0.8910
   95SAPS  H18Z 9475   1.994   1.905   8.630  0.2748 -1.0525 -0.1294
   96SAPS     N 9476   2.810   2.412   6.413 -0.1013  0.1253  0.0297
   96SAPS   HN1 9477   2.829   2.512   6.391 -0.1339  0.8659  2.9363
   96SAPS   HN2 9478   2.708   2.396   6.412  0.0707 -1.0883  0.5568
   96SAPS   HN3 9479   2.832   2.400   6.514  1.2511 -0.9046 -0.3509
   96SAPS   C12 9480   2.879   2.330   6.310 -0.5686  0.0469  0.1086
   96SAPS  H12A 9481   2.852   2.228   6.329 -1.9335  0.3068 -0.3345
   96SAPS   C13 9482   2.829   2.351   6.165  0.0813  0.3126  0.9459
   96SAPS  O13A 9483   2.746   2.434   6.124 -0.0933  0.6827  0.1660
   96SAPS  O13B 9484   2.881   2.272   6.081 -0.4644  0.4429 -0.2713
   96SAPS   C11 9485   3.033   2.348   6.302  0.6895 -0.8790 -0.2023
   96SAPS  H11A 9486   3.072   2.280   6.223  1.7988  1.1016 -1.4463
   96SAPS  H11B 9487   3.082   2.320   6.398  0.4966  1.6813  0.7059
   96SAPS     P 9488   3.225   2.514   6.252  0.0269  0.2674 -0.2555
   96SAPS   O13 9489   3.278   2.454   6.130 -0.4481 -0.2782  0.1745
   96SAPS   O14 9490   3.246   2.657   6.279 -0.6719  0.2179  0.9703
   96SAPS   O12 9491   3.074   2.481   6.266  0.1043  0.1968 -0.2966
   96SAPS   O11 9492   3.279   2.436   6.377  0.0330 -0.5616  0.1886
   96SAPS    C1 9493   3.247   2.488   6.501 -0.2476 -0.8853  0.0100
   96SAPS    HA 9494   3.298   2.585   6.520 -2.8811  0.3123  1.4298
   96SAPS    HB 9495   3.138   2.502   6.519 -0.7014 -2.0859 -1.5598
   96SAPS    C2 9496   3.297   2.400   6.614  0.4548  0.9217 -0.5570
   96SAPS    HS 9497   3.233   2.309   6.618  0.5555  0.8529  2.8409
   96SAPS   O21 9498   3.290   2.482   6.732  0.3209  0.0240 -0.2837
   96SAPS   C21 9499   3.282   2.407   6.842 -0.0793 -0.7853 -0.8272
   96SAPS   O22 9500   3.266   2.286   6.847 -0.1275 -0.1379  0.6626
   96SAPS   C22 9501   3.288   2.495   6.966 -0.2601  0.1266  0.0399
   96SAPS   H2R 9502   3.294   2.603   6.943 -0.0051 -0.0886 -0.9113
   96SAPS   H2S 9503   3.205   2.473   7.037 -0.1261 -1.4293 -0.2462
   96SAPS    C3 9504   3.433   2.338   6.578 -0.1957  0.2774  0.9119
   96SAPS    HX 9505   3.494   2.429   6.559  0.6177 -0.4690 -0.1890
   96SAPS    HY 9506   3.424   2.292   6.477 -1.2770  4.8020 -1.3668
   96SAPS   O31 9507   3.493   2.267   6.684 -0.5936  0.0089  0.3295
   96SAPS   C31 9508   3.501   2.135   6.672 -0.7295  0.2316 -0.1076
   96SAPS   O32 9509   3.459   2.062   6.581  0.5403 -0.5972 -0.0824
   96SAPS   C32 9510   3.562   2.072   6.804  0.1043 -0.1424 -0.1184
   96SAPS   H2X 9511   3.507   2.121   6.887 -0.1406 -0.7958  0.1126
   96SAPS   H2Y 9512   3.669   2.100   6.812 -0.2356  0.8174  1.7486
   96SAPS   C23 9513   3.414   2.453   7.047  0.1773 -0.4061 -0.0660
   96SAPS   H3R 9514   3.506   2.502   7.009  0.1623 -0.2951  0.0368
   96SAPS   H3S 9515   3.424   2.344   7.035 -1.9844 -0.5871 -0.8418
   96SAPS   C24 9516   3.408   2.501   7.197  0.4586 -0.0702  0.4831
   96SAPS   H4R 9517   3.317   2.467   7.251  0.2498 -0.7837 -0.3003
   96SAPS   H4S 9518   3.393   2.611   7.197 -0.3070 -0.1412 -1.4852
   96SAPS   C25 9519   3.531   2.472   7.273 -0.9333  0.1942  0.2634
   96SAPS   H5R 9520   3.615   2.544   7.277  1.2921 -2.1771 -0.8439
   96SAPS   C26 9521   3.560   2.351   7.337 -0.2509 -0.2953  0.5475
   96SAPS   H6R 9522   3.658   2.346   7.386  0.2002  1.3141 -0.1011
   96SAPS   C27 9523   3.484   2.223   7.343 -0.1740 -0.0932  0.1832
   96SAPS   H7R 9524   3.385   2.237   7.295  0.0075  3.5314  0.6170
   96SAPS   H7S 9525   3.461   2.203   7.450  0.9075 -0.0148  0.4491
   96SAPS   C28 9526   3.558   2.110   7.278 -0.4270 -0.6775  0.7279
   96SAPS   H8R 9527   3.547   2.100   7.169  2.7887  0.3224  0.2052
   96SAPS   C29 9528   3.613   2.008   7.351 -0.0240 -0.4100  0.3456
   96SAPS   H9R 9529   3.655   1.923   7.295  0.3739  1.2825 -2.1229
   96SAPS  C210 9530   3.621   2.002   7.500 -0.4132 -0.0475  0.0124
   96SAPS  H10R 9531   3.623   2.096   7.559 -0.3554 -0.0082 -0.0520
   96SAPS  H10S 9532   3.711   1.945   7.531 -0.8037  0.0070  1.3032
   96SAPS  C211 9533   3.507   1.915   7.546  0.4433  0.2582 -0.9220
   96SAPS  H11R 9534   3.442   1.877   7.466  1.5963 -2.3761 -0.7262
   96SAPS  C212 9535   3.481   1.883   7.671  0.3227 -0.7428 -0.0041
   96SAPS  H12R 9536   3.394   1.818   7.685 -0.9814  0.6962 -1.0553
   96SAPS  C213 9537   3.555   1.932   7.790  0.0586 -0.0461 -0.5067
   96SAPS  H13R 9538   3.487   2.000   7.845  0.5970  1.2965 -1.4440
   96SAPS  H13S 9539   3.629   2.012   7.768 -1.8003  2.3356  1.2528
   96SAPS  C214 9540   3.605   1.820   7.870 -0.1632  0.4998  0.0459
   96SAPS  H14R 9541   3.669   1.756   7.807  0.8122  0.9480  0.5658
   96SAPS  C215 9542   3.572   1.772   7.991 -0.5409 -1.0196  0.2846
   96SAPS  H15R 9543   3.615   1.676   8.024  0.7439 -0.2771  0.8233
   96SAPS  C216 9544   3.474   1.835   8.093 -0.1870  0.7554  0.4516
   96SAPS  H16R 9545   3.421   1.754   8.147 -0.8675  1.2171  0.4857
   96SAPS  H16S 9546   3.392   1.889   8.041 -0.0248  0.7651  0.2018
   96SAPS  C217 9547   3.536   1.935   8.193 -0.0911 -0.6679  0.4157
   96SAPS  H17R 9548   3.456   1.960   8.265  0.3328 -0.8716  0.9626
   96SAPS  H17S 9549   3.565   2.033   8.150 -0.6052 -0.4318  0.5997
   96SAPS  C218 9550   3.653   1.873   8.287 -0.2800 -0.5206  0.1231
   96SAPS  H18R 9551   3.737   1.828   8.229  0.6567  0.1967  0.8845
   96SAPS  H18S 9552   3.598   1.787   8.330 -0.7858  0.1080  0.7656
   96SAPS  C219 9553   3.699   1.969   8.400 -0.0715 -0.6971  0.5136
   96SAPS  H19R 9554   3.769   1.909   8.462  0.3048 -1.7004 -0.8430
   96SAPS  H19S 9555   3.610   1.997   8.461  0.3963 -0.7949  1.2515
   96SAPS  C220 9556   3.755   2.103   8.347  0.1678 -0.0446 -0.7507
   96SAPS  H20R 9557   3.674   2.179   8.346 -0.2736 -0.4902  0.0087
   96SAPS  H20S 9558   3.801   2.097   8.246 -0.1555  1.0716 -0.9782
   96SAPS  H20T 9559   3.832   2.144   8.414 -0.3484  0.3189 -0.3718
   96SAPS   C33 9560   3.519   1.922   6.795  0.1531 -0.0821  0.3659
   96SAPS   H3X 9561   3.577   1.872   6.714 -0.4955 -0.0790 -0.1049
   96SAPS   H3Y 9562   3.414   1.910   6.762 -0.3514  1.4362  1.2975
   96SAPS   C34 9563   3.527   1.849   6.925  0.3655  0.6348 -0.1790
   96SAPS   H4X 9564   3.455   1.895   6.995  2.7572  1.9880  1.5549
   96SAPS   H4Y 9565   3.626   1.859   6.975 -0.7564  1.0308  2.0910
   96SAPS   C35 9566   3.494   1.703   6.923  0.3114 -0.0193 -0.0386
   96SAPS   H5X 9567   3.559   1.636   6.863 -0.9061 -1.0318 -0.2966
   96SAPS   H5Y 9568   3.393   1.696   6.877  0.7125 -0.9178 -0.8186
   96SAPS   C36 9569   3.475   1.637   7.063 -0.2488 -0.4015 -0.0650
   96SAPS   H6X 9570   3.436   1.534   7.044 -1.1344 -0.0149 -0.4125
   96SAPS   H6Y 9571   3.396   1.690   7.120  0.2108 -0.7246  0.8853
   96SAPS   C37 9572   3.593   1.650   7.158 -0.6744  1.0417  0.4117
   96SAPS   H7X 9573   3.620   1.753   7.190  0.5768  0.7286  0.4210
   96SAPS   H7Y 9574   3.676   1.598   7.105 -0.7703  0.1288  1.1424
   96SAPS   C38 9575   3.575   1.575   7.295 -0.7391  0.4060 -0.3169
   96SAPS   H8X 9576   3.557   1.471   7.259 -0.6260  0.1002  0.4962
   96SAPS   H8Y 9577   3.484   1.615   7.345 -1.1526  0.1754 -0.8764
   96SAPS   C39 9578   3.700   1.579   7.391 -0.1789 -0.4656  0.6683
   96SAPS   H9X 9579   3.712   1.680   7.436 -1.2286 -1.0779  2.4080
   96SAPS   H9Y 9580   3.791   1.567   7.328  1.0220  2.9619  1.5322
   96SAPS  C310 9581   3.696   1.475   7.501  0.4361 -0.2188  0.2869
   96SAPS  H10X 9582   3.701   1.373   7.457 -1.5223 -1.3176  2.3998
   96SAPS  H10Y 9583   3.598   1.495   7.549  0.4122  0.2446  0.0553
   96SAPS  C311 9584   3.804   1.486   7.608  0.2433 -0.3521  0.5803
   96SAPS  H11X 9585   3.814   1.589   7.647 -1.6846  0.1817 -0.1911
   96SAPS  H11Y 9586   3.898   1.471   7.552  0.9740  2.0260  1.0593
   96SAPS  C312 9587   3.791   1.380   7.716 -0.2404 -0.2808  0.6539
   96SAPS  H12X 9588   3.894   1.339   7.722 -1.2990 -3.4238 -0.6657
   96SAPS  H12Y 9589   3.721   1.298   7.688 -1.1677  0.9103 -0.6482
   96SAPS  C313 9590   3.741   1.434   7.856  0.5051 -0.3905  0.1198
   96SAPS  H13X 9591   3.630   1.423   7.850  0.4316 -0.9889  1.7949
   96SAPS  H13Y 9592   3.755   1.544   7.865 -0.5589 -0.2116 -0.2876
   96SAPS  C314 9593   3.781   1.349   7.980  0.1374  0.1866 -0.1164
   96SAPS  H14X 9594   3.892   1.345   7.974  0.1055 -0.7334 -0.3495
   96SAPS  H14Y 9595   3.745   1.245   7.961 -2.5872  0.6875  1.7532
   96SAPS  C315 9596   3.717   1.406   8.114 -1.0759  0.4106  0.0322
   96SAPS  H15X 9597   3.667   1.502   8.089  0.7391  1.6143  0.8092
   96SAPS  H15Y 9598   3.791   1.422   8.195 -0.0298 -2.3019 -0.2720
   96SAPS  C316 9599   3.611   1.313   8.171 -0.2581  0.0033 -0.1891
   96SAPS  H16X 9600   3.645   1.208   8.177  0.4479  0.1981 -0.6757
   96SAPS  H16Y 9601   3.528   1.323   8.097 -1.4377  0.5274  1.1458
   96SAPS  C317 9602   3.578   1.343   8.324  0.0390  0.0558 -0.2069
   96SAPS  H17X 9603   3.496   1.274   8.356  1.7032 -1.1780  1.6655
   96SAPS  H17Y 9604   3.537   1.445   8.333 -0.0949  0.0376 -0.5888
   96SAPS  C318 9605   3.693   1.330   8.425  0.1385  0.0019 -0.4510
   96SAPS  H18X 9606   3.739   1.229   8.424 -0.2963 -0.2055 -2.3250
   96SAPS  H18Y 9607   3.661   1.369   8.524  0.0711  0.6726 -0.7262
   96SAPS  H18Z 9608   3.778   1.398   8.401  0.6128  0.1464  1.4778
   97SAPS     N 9609   4.311   0.173   6.308 -0.2401 -0.2075 -0.0011
   97SAPS   HN1 9610   4.275   0.165   6.406 -0.9883 -0.1137 -0.2609
   97SAPS   HN2 9611   4.316   0.084   6.255 -0.6131  1.8617 -3.8602
   97SAPS   HN3 9612   4.395   0.234   6.305 -1.1186  1.0316 -0.1194
   97SAPS   C12 9613   4.212   0.252   6.224 -0.0655 -0.4661 -0.2405
   97SAPS  H12A 9614   4.242   0.354   6.239  0.1958 -0.5921  0.0910
   97SAPS   C13 9615   4.191   0.211   6.075  0.2559 -0.3508  0.5374
   97SAPS  O13A 9616   4.259   0.112   6.028  0.5007 -0.5358 -0.1861
   97SAPS  O13B 9617   4.126   0.289   5.996  0.2791  0.4412  0.1903
   97SAPS   C11 9618   4.066   0.255   6.277  0.3204 -0.3242 -0.9922
   97SAPS  H11A 9619   4.016   0.161   6.246 -0.9077 -0.0472  0.0812
   97SAPS  H11B 9620   4.011   0.342   6.235  0.3037 -0.8589 -2.1308
   97SAPS     P 9621   3.934   0.266   6.505  0.2727  0.1820 -0.4352
   97SAPS   O13 9622   3.850   0.379   6.450  0.2592  0.0007 -0.0345
   97SAPS   O14 9623   3.871   0.133   6.515 -0.2406  0.3385 -0.2346
   97SAPS   O12 9624   4.066   0.255   6.417 -0.5414 -0.0614  0.3073
   97SAPS   O11 9625   3.985   0.302   6.649 -0.5154  0.0637 -0.0617
   97SAPS    C1 9626   4.074   0.404   6.677  0.6311  0.1320 -0.2031
   97SAPS    HA 9627   4.178   0.369   6.693  0.3278 -2.0269 -2.2801
   97SAPS    HB 9628   4.086   0.480   6.597  2.5920  0.6263  0.5241
   97SAPS    C2 9629   4.021   0.485   6.800  1.0324 -0.5412  0.6953
   97SAPS    HS 9630   4.063   0.586   6.785  0.9407 -0.7222 -1.0161
   97SAPS   O21 9631   4.067   0.423   6.926  0.7325  0.4211 -0.1078
   97SAPS   C21 9632   4.190   0.456   6.943 -0.0877 -0.6937 -0.8531
   97SAPS   O22 9633   4.260   0.530   6.877  0.3846 -0.1012  0.1257
   97SAPS   C22 9634   4.225   0.392   7.074  0.6906 -0.1446  0.5054
   97SAPS   H2R 9635   4.148   0.416   7.151  0.6335  1.7892 -0.1045
   97SAPS   H2S 9636   4.222   0.284   7.046 -3.6099  0.2532 -1.4674
   97SAPS    C3 9637   3.863   0.500   6.802  0.5493  0.6454 -0.0549
   97SAPS    HX 9638   3.812   0.403   6.818  0.9437 -0.1851 -3.1516
   97SAPS    HY 9639   3.833   0.530   6.699  1.6372 -0.3940 -0.7004
   97SAPS   O31 9640   3.826   0.590   6.911  0.7900  0.2923  0.3971
   97SAPS   C31 9641   3.845   0.720   6.882  0.2335  0.7732 -0.3159
   97SAPS   O32 9642   3.893   0.758   6.776  0.1721 -0.6567 -0.5530
   97SAPS   C32 9643   3.792   0.813   6.991  1.0127  0.2794  0.0828
   97SAPS   H2X 9644   3.764   0.906   6.937  0.7536 -0.0473 -0.3536
   97SAPS   H2Y 9645   3.873   0.827   7.065  0.2897  0.8402  0.7940
   97SAPS   C23 9646   4.365   0.429   7.116  0.5083  0.1246  0.6635
   97SAPS   H3R 9647   4.374   0.538   7.137 -0.5362  0.9031 -2.3445
   97SAPS   H3S 9648   4.435   0.419   7.030 -0.3970  0.0520 -0.0818
   97SAPS   C24 9649   4.412   0.337   7.228 -0.3190  0.3407  0.3749
   97SAPS   H4R 9650   4.519   0.349   7.252  0.0495 -2.2038  0.3403
   97SAPS   H4S 9651   4.410   0.232   7.190  0.7583  0.3944  0.1362
   97SAPS   C25 9652   4.327   0.352   7.353  0.3239  0.0851  0.1204
   97SAPS   H5R 9653   4.219   0.370   7.345 -0.2412 -1.4496  3.1241
   97SAPS   C26 9654   4.373   0.366   7.476 -0.4691 -0.9431  0.6991
   97SAPS   H6R 9655   4.292   0.379   7.550 -1.9082  2.5706 -1.2534
   97SAPS   C27 9656   4.517   0.367   7.538  0.6060  0.3603  0.5847
   97SAPS   H7R 9657   4.529   0.456   7.604  1.7991 -0.6769  1.8541
   97SAPS   H7S 9658   4.590   0.366   7.455 -0.3662 -0.1549 -0.2764
   97SAPS   C28 9659   4.535   0.233   7.605 -0.1856  0.5250  0.7281
   97SAPS   H8R 9660   4.519   0.144   7.542  0.7607 -0.4646  1.8291
   97SAPS   C29 9661   4.559   0.208   7.738 -0.3870 -0.4686  0.2327
   97SAPS   H9R 9662   4.568   0.099   7.755 -3.2892 -0.4282  3.0778
   97SAPS  C210 9663   4.576   0.312   7.854  0.4202 -0.5977  0.0824
   97SAPS  H10R 9664   4.533   0.275   7.949 -0.0537 -2.1123 -0.6828
   97SAPS  H10S 9665   4.527   0.409   7.827  0.2849 -0.4761  0.7488
   97SAPS  C211 9666   4.717   0.350   7.873 -0.1410  0.2515 -0.1727
   97SAPS  H11R 9667   4.779   0.338   7.783 -0.8167  1.1637 -0.7757
   97SAPS  C212 9668   4.769   0.395   7.993 -0.2451 -0.2245  0.6326
   97SAPS  H12R 9669   4.874   0.427   7.998 -0.9865  2.8884 -1.1985
   97SAPS  C213 9670   4.691   0.421   8.121 -0.1483  0.2476 -0.2353
   97SAPS  H13R 9671   4.766   0.463   8.191  0.0712 -0.2514 -0.1637
   97SAPS  H13S 9672   4.669   0.316   8.151 -0.5968  0.1511 -0.8928
   97SAPS  C214 9673   4.575   0.511   8.110  0.0182  0.7101 -0.5444
   97SAPS  H14R 9674   4.498   0.491   8.033 -0.0201 -2.4082  0.1760
   97SAPS  C215 9675   4.539   0.611   8.196 -0.3733  0.0187 -0.0965
   97SAPS  H15R 9676   4.446   0.669   8.182 -1.5604 -1.7272  0.1077
   97SAPS  C216 9677   4.619   0.664   8.315  0.0209  0.2535  0.1249
   97SAPS  H16R 9678   4.678   0.756   8.295 -0.5071  1.3086  2.9985
   97SAPS  H16S 9679   4.693   0.593   8.357 -1.0830 -0.3563  1.0783
   97SAPS  C217 9680   4.531   0.708   8.430 -0.0816  0.6687  0.0429
   97SAPS  H17R 9681   4.452   0.776   8.392 -1.0213 -0.9191 -0.9694
   97SAPS  H17S 9682   4.602   0.766   8.493  1.9847 -1.9117  0.2597
   97SAPS  C218 9683   4.474   0.587   8.502 -1.0833 -0.2986  0.2040
   97SAPS  H18R 9684   4.555   0.518   8.534  1.5951  1.9637 -1.1917
   97SAPS  H18S 9685   4.418   0.524   8.430  0.8827 -0.3230 -1.3836
   97SAPS  C219 9686   4.378   0.620   8.617 -0.1005 -0.3824 -0.3912
   97SAPS  H19R 9687   4.359   0.534   8.684 -1.8898  1.0523  1.0272
   97SAPS  H19S 9688   4.282   0.653   8.571  0.5836  1.1282 -0.8065
   97SAPS  C220 9689   4.418   0.736   8.707  0.3463 -0.2519  0.3968
   97SAPS  H20R 9690   4.518   0.729   8.756  0.4174  3.3598  1.0542
   97SAPS  H20S 9691   4.342   0.745   8.787  0.6882 -1.4542  0.8808
   97SAPS  H20T 9692   4.411   0.832   8.650  1.7052  0.3903  1.2616
   97SAPS   C33 9693   3.672   0.751   7.064  0.4371  0.1537  0.3243
   97SAPS   H3X 9694   3.699   0.656   7.115  1.0619  0.5337  0.7069
   97SAPS   H3Y 9695   3.597   0.733   6.984 -0.1076  1.3883  0.5327
   97SAPS   C34 9696   3.599   0.847   7.164  0.4649  0.0971 -0.8333
   97SAPS   H4X 9697   3.503   0.798   7.191  2.0573 -1.6744  2.1986
   97SAPS   H4Y 9698   3.582   0.939   7.105  1.8271 -0.0208 -1.4329
   97SAPS   C35 9699   3.685   0.868   7.289 -0.0334  0.2927 -0.3558
   97SAPS   H5X 9700   3.670   0.963   7.345  0.8802  0.9822 -1.2567
   97SAPS   H5Y 9701   3.792   0.874   7.258  0.2648  0.6674  0.6854
   97SAPS   C36 9702   3.677   0.755   7.397 -0.3095 -0.1605  0.6558
   97SAPS   H6X 9703   3.690   0.663   7.335  0.9225 -0.5100  1.3984
   97SAPS   H6Y 9704   3.575   0.754   7.440 -1.1137 -3.2526 -0.9820
   97SAPS   C37 9705   3.767   0.769   7.514  0.3031 -0.8419  0.1465
   97SAPS   H7X 9706   3.870   0.790   7.478 -0.5567  0.5662 -1.7060
   97SAPS   H7Y 9707   3.775   0.682   7.583 -0.7115 -2.0122 -1.1471
   97SAPS   C38 9708   3.707   0.888   7.600  0.0492 -0.3986 -0.4049
   97SAPS   H8X 9709   3.598   0.898   7.585 -0.3276 -4.3719 -1.6199
   97SAPS   H8Y 9710   3.756   0.982   7.567  0.9070 -0.9700 -0.8041
   97SAPS   C39 9711   3.729   0.871   7.751 -0.0029  0.0224  0.2355
   97SAPS   H9X 9712   3.838   0.888   7.763  0.2419 -1.9586  1.0670
   97SAPS   H9Y 9713   3.719   0.764   7.776 -1.7661  0.1028 -0.0225
   97SAPS  C310 9714   3.638   0.957   7.836  0.5008 -0.2965  0.0636
   97SAPS  H10X 9715   3.536   0.925   7.808  0.8253 -0.6693 -0.7160
   97SAPS  H10Y 9716   3.654   1.061   7.801 -0.5876  0.0085  0.4436
   97SAPS  C311 9717   3.647   0.946   7.991  0.1082 -0.0496  0.0413
   97SAPS  H11X 9718   3.601   1.027   8.052 -0.4783  0.8072 -1.4808
   97SAPS  H11Y 9719   3.756   0.951   8.015  0.2036  1.6411 -0.5923
   97SAPS  C312 9720   3.597   0.815   8.049 -0.6911  0.0387 -0.0835
   97SAPS  H12X 9721   3.680   0.742   8.036 -0.5483 -0.5684  3.4599
   97SAPS  H12Y 9722   3.510   0.799   7.982  0.7096  2.6430 -2.7691
   97SAPS  C313 9723   3.553   0.809   8.198  0.4211  0.0313  0.0728
   97SAPS  H13X 9724   3.524   0.705   8.221 -3.2399  0.9531  0.3191
   97SAPS  H13Y 9725   3.456   0.861   8.215  0.4838 -0.5125  2.5520
   97SAPS  C314 9726   3.657   0.863   8.298 -0.7130 -0.0379 -0.0856
   97SAPS  H14X 9727   3.670   0.968   8.264 -1.6968  0.5404  1.2153
   97SAPS  H14Y 9728   3.752   0.806   8.288 -1.8294 -2.1215  0.5226
   97SAPS  C315 9729   3.614   0.861   8.445  0.0245  0.2405 -0.8218
   97SAPS  H15X 9730   3.507   0.885   8.462  0.4087  1.6076 -0.1853
   97SAPS  H15Y 9731   3.669   0.942   8.498  2.4896 -2.3475  0.8162
   97SAPS  C316 9732   3.642   0.727   8.524  0.4855  0.1736  0.3565
   97SAPS  H16X 9733   3.751   0.723   8.544  0.2268 -1.4586  1.6847
   97SAPS  H16Y 9734   3.611   0.648   8.451 -2.3665  0.8112  0.7484
   97SAPS  C317 9735   3.568   0.707   8.654 -0.0490  0.0643  0.3413
   97SAPS  H17X 9736   3.518   0.608   8.661  0.7701 -0.7726 -3.4026
   97SAPS  H17Y 9737   3.490   0.785   8.664 -0.7134 -0.4488 -0.6950
   97SAPS  C318 9738   3.661   0.721   8.778  0.0593  0.2604  0.0745
   97SAPS  H18X 9739   3.698   0.823   8.803 -1.7525  0.7011  1.1065
   97SAPS  H18Y 9740   3.748   0.654   8.761 -0.8966 -0.3705 -2.9412
   97SAPS  H18Z 9741   3.615   0.697   8.875  0.5066  0.0265  0.2308
   98SAPS     N 9742   3.086   6.773   6.010  0.0828 -0.4319  0.2548
   98SAPS   HN1 9743   3.150   6.714   5.954  0.3008  0.3104 -0.2966
   98SAPS   HN2 9744   3.133   6.866   6.015 -0.8811  0.3504 -2.8274
   98SAPS   HN3 9745   3.093   6.739   6.108  0.7750  0.8064  0.6631
   98SAPS   C12 9746   2.955   6.791   5.946  0.0713 -1.1412 -0.0190
   98SAPS  H12A 9747   2.916   6.883   5.988  0.4847 -0.6411 -0.7157
   98SAPS   C13 9748   2.968   6.824   5.798 -0.0353 -0.1953 -0.5968
   98SAPS  O13A 9749   3.084   6.845   5.748  0.0546 -0.2955  0.3527
   98SAPS  O13B 9750   2.862   6.854   5.739  0.6264  0.0520 -0.2700
   98SAPS   C11 9751   2.867   6.666   5.966 -0.4657  0.7077 -0.1340
   98SAPS  H11A 9752   2.914   6.573   5.927  1.0076  0.0086  2.9639
   98SAPS  H11B 9753   2.778   6.682   5.902 -0.2660 -3.0426 -1.6370
   98SAPS     P 9754   2.718   6.704   6.167  0.0904  0.2892  0.1899
   98SAPS   O13 9755   2.733   6.848   6.142  0.1474 -0.9377 -0.2323
   98SAPS   O14 9756   2.604   6.630   6.112  0.1448  0.2015  0.4469
   98SAPS   O12 9757   2.847   6.644   6.109  0.7289  0.9591  0.4951
   98SAPS   O11 9758   2.736   6.681   6.319  0.3185  0.9375 -0.0998
   98SAPS    C1 9759   2.864   6.689   6.383  0.5732 -0.4861 -0.4521
   98SAPS    HA 9760   2.918   6.593   6.372  0.4688 -0.3633 -2.5568
   98SAPS    HB 9761   2.933   6.770   6.351 -0.4343  0.5607 -0.0457
   98SAPS    C2 9762   2.845   6.719   6.536 -0.0213  0.1000  0.4335
   98SAPS    HS 9763   2.945   6.740   6.581  1.1785 -0.9382 -1.5826
   98SAPS   O21 9764   2.782   6.602   6.595 -0.2501  0.2527 -0.7840
   98SAPS   C21 9765   2.854   6.503   6.640  0.4067 -0.0339 -0.4568
   98SAPS   O22 9766   2.973   6.495   6.613 -0.8281  0.6846  0.2488
   98SAPS   C22 9767   2.772   6.411   6.730  0.2044  0.0122  0.4404
   98SAPS   H2R 9768   2.750   6.449   6.832  0.7433  2.5092 -0.3021
   98SAPS   H2S 9769   2.674   6.405   6.677  0.0817 -1.8166  0.8001
   98SAPS    C3 9770   2.766   6.851   6.559 -0.4725  0.6484  0.1875
   98SAPS    HX 9771   2.663   6.815   6.537  0.7483 -1.7906 -2.1295
   98SAPS    HY 9772   2.800   6.923   6.481 -0.5117 -0.1778 -0.6105
   98SAPS   O31 9773   2.781   6.902   6.692  0.1711 -0.0236 -0.4721
   98SAPS   C31 9774   2.745   7.031   6.714 -0.1070  0.2796  0.0484
   98SAPS   O32 9775   2.688   7.104   6.630 -0.3916 -0.9970 -0.0270
   98SAPS   C32 9776   2.767   7.079   6.858 -0.0571  0.2046  0.0350
   98SAPS   H2X 9777   2.662   7.099   6.889 -0.7117 -1.0551 -1.2554
   98SAPS   H2Y 9778   2.826   7.174   6.854 -0.8850  0.7724  0.8405
   98SAPS   C23 9779   2.836   6.268   6.734  1.2112 -0.6216  0.1460
   98SAPS   H3R 9780   2.943   6.265   6.763  1.2277  0.0905  0.1814
   98SAPS   H3S 9781   2.832   6.218   6.635  1.6576 -3.6045  1.5354
   98SAPS   C24 9782   2.757   6.173   6.823 -0.4905 -0.4475 -0.0106
   98SAPS   H4R 9783   2.819   6.081   6.821  2.5886  1.4579  1.4039
   98SAPS   H4S 9784   2.662   6.154   6.767 -0.5485  3.3974 -1.5479
   98SAPS   C25 9785   2.730   6.214   6.966  0.0156  0.0941 -0.0684
   98SAPS   H5R 9786   2.832   6.209   7.007  0.1614  0.4882 -0.3822
   98SAPS   C26 9787   2.614   6.222   7.033 -0.2686 -0.0607  0.0267
   98SAPS   H6R 9788   2.614   6.253   7.138 -1.9433 -0.4537  0.1784
   98SAPS   C27 9789   2.473   6.203   6.981 -0.6271  0.6030  0.3131
   98SAPS   H7R 9790   2.443   6.107   7.028  1.8554 -0.7533 -0.6349
   98SAPS   H7S 9791   2.471   6.184   6.871  0.2996 -0.2573  0.4236
   98SAPS   C28 9792   2.373   6.312   6.996 -0.1323  0.0116 -1.0196
   98SAPS   H8R 9793   2.353   6.376   6.908  0.6344  1.4796 -0.1492
   98SAPS   C29 9794   2.301   6.347   7.107 -0.2753 -0.1663  0.1851
   98SAPS   H9R 9795   2.219   6.417   7.089 -0.7100 -1.0010 -1.2569
   98SAPS  C210 9796   2.317   6.281   7.241 -0.5698  0.4704  0.3121
   98SAPS  H10R 9797   2.310   6.354   7.324  2.0391 -1.3399  2.2888
   98SAPS  H10S 9798   2.408   6.219   7.256 -0.2092  0.9516  0.1241
   98SAPS  C211 9799   2.206   6.180   7.263 -0.1966 -0.2826 -0.2701
   98SAPS  H11R 9800   2.161   6.136   7.172  0.0847 -1.4502  0.1410
   98SAPS  C212 9801   2.164   6.143   7.381  0.0414  0.3440  0.0512
   98SAPS  H12R 9802   2.083   6.070   7.398 -0.1267  0.8476  1.6214
   98SAPS  C213 9803   2.222   6.206   7.508  1.0533 -0.3386  0.4199
   98SAPS  H13R 9804   2.208   6.316   7.498  0.5129 -0.6194 -2.8319
   98SAPS  H13S 9805   2.333   6.191   7.511  1.0934  0.0353  1.4143
   98SAPS  C214 9806   2.169   6.148   7.640  0.0423 -0.5252  0.2491
   98SAPS  H14R 9807   2.098   6.065   7.624 -0.3163 -0.5007  1.6140
   98SAPS  C215 9808   2.191   6.212   7.756 -0.1714 -0.2470 -0.1238
   98SAPS  H15R 9809   2.148   6.164   7.845  0.4686  0.1671  0.4267
   98SAPS  C216 9810   2.290   6.327   7.780  0.6551  0.1527  0.2307
   98SAPS  H16R 9811   2.254   6.383   7.870 -1.3609  0.8384 -0.9512
   98SAPS  H16S 9812   2.286   6.402   7.698  1.5972 -1.1130 -1.0171
   98SAPS  C217 9813   2.430   6.284   7.799 -0.4815 -0.1865  0.0878
   98SAPS  H17R 9814   2.475   6.245   7.705 -0.1411  0.5366 -0.0542
   98SAPS  H17S 9815   2.435   6.198   7.870 -1.6318 -0.9352 -0.7098
   98SAPS  C218 9816   2.517   6.404   7.830 -0.2777  0.4105 -0.8186
   98SAPS  H18R 9817   2.484   6.489   7.766 -0.2426  1.0528 -0.0036
   98SAPS  H18S 9818   2.626   6.398   7.808 -0.5480  1.1123 -2.5561
   98SAPS  C219 9819   2.501   6.443   7.983 -0.2557 -0.3413  0.2695
   98SAPS  H19R 9820   2.540   6.356   8.040  0.1684 -0.0437  0.4357
   98SAPS  H19S 9821   2.394   6.463   8.008 -0.7910  0.5732 -2.4289
   98SAPS  C220 9822   2.588   6.570   8.012 -0.5210  0.7368 -0.2513
   98SAPS  H20R 9823   2.586   6.576   8.123 -2.3540  1.0036 -0.2801
   98SAPS  H20S 9824   2.534   6.649   7.956  0.4955  0.4455 -1.6884
   98SAPS  H20T 9825   2.694   6.552   7.983 -0.1692  0.7148  0.9685
   98SAPS   C33 9826   2.836   6.980   6.957 -0.3707  0.0298  0.0838
   98SAPS   H3X 9827   2.931   6.939   6.914 -1.2348 -0.2833 -1.6319
   98SAPS   H3Y 9828   2.765   6.899   6.983 -0.2620  0.5438  2.1028
   98SAPS   C34 9829   2.884   7.049   7.083  0.0478  0.2258  0.2528
   98SAPS   H4X 9830   2.954   7.134   7.068 -0.6383  0.5998 -1.0788
   98SAPS   H4Y 9831   2.928   6.967   7.144 -0.7940 -1.1737 -0.9338
   98SAPS   C35 9832   2.766   7.099   7.164  0.1588 -0.1062  0.7279
   98SAPS   H5X 9833   2.679   7.029   7.173 -2.7112  2.9212 -1.1297
   98SAPS   H5Y 9834   2.715   7.183   7.112  0.1934 -0.9647 -0.7751
   98SAPS   C36 9835   2.802   7.133   7.310  0.4148 -0.7949  0.4877
   98SAPS   H6X 9836   2.705   7.175   7.343  0.7151  0.0331  0.3414
   98SAPS   H6Y 9837   2.879   7.212   7.318 -1.1052  0.8861 -0.8635
   98SAPS   C37 9838   2.837   7.010   7.397 -0.2388 -0.4107  0.3148
   98SAPS   H7X 9839   2.938   6.980   7.363 -0.4562  1.0297 -1.8098
   98SAPS   H7Y 9840   2.769   6.929   7.361  0.6262 -0.2774 -1.7817
   98SAPS   C38 9841   2.844   7.038   7.546  0.5496  0.4123 -0.1509
   98SAPS   H8X 9842   2.742   7.075   7.572  0.6175 -0.8676  2.1615
   98SAPS   H8Y 9843   2.911   7.124   7.569  0.2798  0.1915  1.6543
   98SAPS   C39 9844   2.866   6.920   7.649  0.2865  0.0845  0.7667
   98SAPS   H9X 9845   2.971   6.886   7.632  0.2792 -0.0978  1.0654
   98SAPS   H9Y 9846   2.797   6.838   7.619  0.0946  0.6086 -0.2513
   98SAPS  C310 9847   2.853   6.959   7.794  0.5915  0.5204 -0.2797
   98SAPS  H10X 9848   2.892   7.063   7.798 -0.1780  0.9141 -2.1116
   98SAPS  H10Y 9849   2.914   6.897   7.864 -1.4518 -1.8873 -0.4793
   98SAPS  C311 9850   2.707   6.943   7.845 -0.0618 -0.2378 -0.3227
   98SAPS  H11X 9851   2.675   6.839   7.826 -0.7976 -0.5195  2.1578
   98SAPS  H11Y 9852   2.644   7.024   7.801  1.6297  2.3275  1.6243
   98SAPS  C312 9853   2.695   6.949   7.999 -0.3166  0.1287  0.0230
   98SAPS  H12X 9854   2.763   7.032   8.029 -0.7240  1.3676 -2.2464
   98SAPS  H12Y 9855   2.730   6.850   8.034  1.7014  0.0506 -1.9943
   98SAPS  C313 9856   2.548   6.972   8.038 -0.1311  0.3586 -0.0172
   98SAPS  H13X 9857   2.501   6.881   7.995  1.8122 -0.5221 -0.3832
   98SAPS  H13Y 9858   2.521   7.069   7.990  3.0625  1.2492 -0.2355
   98SAPS  C314 9859   2.526   6.974   8.195  0.3761  0.1500  0.3986
   98SAPS  H14X 9860   2.595   7.052   8.235  0.3971 -1.0319  2.8666
   98SAPS  H14Y 9861   2.542   6.874   8.241  1.0829  1.2227  2.6630
   98SAPS  C315 9862   2.384   7.030   8.214  0.3102 -0.4734 -0.2110
   98SAPS  H15X 9863   2.315   6.994   8.135  0.2948 -0.0913 -0.3724
   98SAPS  H15Y 9864   2.387   7.140   8.203 -0.0757 -0.6918 -3.8156
   98SAPS  C316 9865   2.328   6.989   8.352  0.5800 -0.0157 -0.6034
   98SAPS  H16X 9866   2.404   7.016   8.428  2.0591 -0.7800 -1.7276
   98SAPS  H16Y 9867   2.308   6.880   8.343 -0.5585  0.3109 -2.7802
   98SAPS  C317 9868   2.189   7.066   8.377 -0.2304 -0.4484  0.6227
   98SAPS  H17X 9869   2.122   7.034   8.295 -0.0651  0.2415  0.2149
   98SAPS  H17Y 9870   2.210   7.174   8.359 -0.1478 -0.7994 -1.5413
   98SAPS  C318 9871   2.136   7.048   8.525 -0.4693  0.2811  0.1446
   98SAPS  H18X 9872   2.149   6.941   8.550 -2.6540  0.3769  1.9814
   98SAPS  H18Y 9873   2.036   7.089   8.551 -2.7732 -3.9989 -1.0322
   98SAPS  H18Z 9874   2.196   7.108   8.597 -4.4872  2.0049  2.4309
   99SAPS     N 9875   0.664   5.460   5.994  0.2790  0.3718  0.0949
   99SAPS   HN1 9876   0.714   5.484   6.082  1.3799  3.2273 -1.1956
   99SAPS   HN2 9877   0.726   5.511   5.928  0.5372 -0.1479 -0.0697
   99SAPS   HN3 9878   0.572   5.505   6.012  0.7109  0.4027  2.6730
   99SAPS   C12 9879   0.672   5.308   5.973  0.1601  0.2818 -1.4168
   99SAPS  H12A 9880   0.621   5.262   6.057  1.1285  2.0215  0.2245
   99SAPS   C13 9881   0.591   5.260   5.845  0.8677  0.1076 -0.4535
   99SAPS  O13A 9882   0.529   5.342   5.769  0.1755  0.0339 -0.8444
   99SAPS  O13B 9883   0.575   5.134   5.826  0.3913 -0.4399  0.2393
   99SAPS   C11 9884   0.818   5.259   5.968 -0.4695  0.8073 -0.3880
   99SAPS  H11A 9885   0.890   5.301   5.895  1.3304  0.1905  0.9385
   99SAPS  H11B 9886   0.806   5.152   5.941 -0.8891  0.3518  1.4760
   99SAPS     P 9887   1.025   5.223   6.121 -0.1505 -0.0092  0.0442
   99SAPS   O13 9888   1.033   5.078   6.094 -0.0349 -0.7014 -0.0175
   99SAPS   O14 9889   1.131   5.306   6.052  0.0494 -0.1730 -0.6051
   99SAPS   O12 9890   0.881   5.279   6.091 -0.5871 -0.4637 -0.2865
   99SAPS   O11 9891   1.041   5.238   6.269  0.1773 -0.1351 -0.4073
   99SAPS    C1 9892   0.980   5.162   6.376 -0.1984 -0.0149  0.5322
   99SAPS    HA 9893   0.921   5.073   6.345 -0.5984  0.4895 -0.1971
   99SAPS    HB 9894   1.056   5.112   6.439  0.2142 -1.5179 -1.0804
   99SAPS    C2 9895   0.889   5.250   6.467  0.2367 -0.3226 -0.1172
   99SAPS    HS 9896   0.888   5.194   6.563  1.6204  0.5264  0.4256
   99SAPS   O21 9897   0.766   5.274   6.400  0.5422  0.0788 -0.0961
   99SAPS   C21 9898   0.664   5.267   6.486  0.0672 -0.0305 -0.1656
   99SAPS   O22 9899   0.673   5.240   6.605  0.4578 -0.1708  0.7176
   99SAPS   C22 9900   0.533   5.312   6.430 -0.1872 -0.0808  0.2843
   99SAPS   H2R 9901   0.514   5.420   6.444 -3.1006 -0.4465 -0.2214
   99SAPS   H2S 9902   0.534   5.306   6.319  0.0180  0.7240  0.2409
   99SAPS    C3 9903   0.959   5.390   6.493 -0.2267  0.4560 -0.1167
   99SAPS    HX 9904   0.958   5.452   6.401  0.6844 -0.3711 -0.7081
   99SAPS    HY 9905   1.065   5.356   6.502 -0.5588 -1.7017 -2.8991
   99SAPS   O31 9906   0.909   5.446   6.617 -0.4844 -0.0927 -0.0523
   99SAPS   C31 9907   0.815   5.538   6.602 -0.2868  0.9501  0.1686
   99SAPS   O32 9908   0.776   5.583   6.497  0.0083  0.1619 -0.3323
   99SAPS   C32 9909   0.756   5.582   6.736 -0.2871  0.3158  0.4978
   99SAPS   H2X 9910   0.823   5.666   6.763 -0.4482  1.1244 -1.4247
   99SAPS   H2Y 9911   0.764   5.497   6.807 -0.2013 -0.7664 -0.7672
   99SAPS   C23 9912   0.398   5.248   6.478 -0.0818  0.1210 -0.0204
   99SAPS   H3R 9913   0.405   5.138   6.474  5.2819  0.2470 -2.7002
   99SAPS   H3S 9914   0.329   5.279   6.397 -0.1782 -0.6197 -0.2265
   99SAPS   C24 9915   0.354   5.308   6.607  0.7279 -0.2165  1.0014
   99SAPS   H4R 9916   0.350   5.418   6.589 -1.0361 -0.5881 -1.3510
   99SAPS   H4S 9917   0.430   5.299   6.688  0.5904 -1.3845  1.0167
   99SAPS   C25 9918   0.214   5.267   6.642 -0.6106 -1.1535  0.6112
   99SAPS   H5R 9919   0.142   5.281   6.560  1.5182  3.5980 -0.7539
   99SAPS   C26 9920   0.167   5.218   6.759 -0.1769  0.0782 -0.3897
   99SAPS   H6R 9921   0.063   5.185   6.757 -0.9654  2.3432  0.5381
   99SAPS   C27 9922   0.253   5.197   6.886 -0.1797  0.4053  0.4403
   99SAPS   H7R 9923   0.357   5.235   6.883 -0.2516  0.5215 -2.0439
   99SAPS   H7S 9924   0.261   5.088   6.909  0.0073 -0.0259 -1.5079
   99SAPS   C28 9925   0.192   5.272   6.999  0.6503 -0.1705 -0.3228
   99SAPS   H8R 9926   0.168   5.379   6.992 -1.1893 -0.5768 -1.0398
   99SAPS   C29 9927   0.153   5.221   7.120  0.5006 -0.3832  1.2773
   99SAPS   H9R 9928   0.112   5.293   7.193 -0.1021 -1.5367  2.1071
   99SAPS  C210 9929   0.148   5.081   7.169 -0.7136  0.4169 -0.7180
   99SAPS  H10R 9930   0.241   5.032   7.133  0.2361  2.6310 -1.4463
   99SAPS  H10S 9931   0.079   5.013   7.114  1.1954 -1.0377 -1.4630
   99SAPS  C211 9932   0.147   5.060   7.318  0.2307 -0.1048  0.5440
   99SAPS  H11R 9933   0.237   5.086   7.375  1.4808 -0.2868 -1.2887
   99SAPS  C212 9934   0.042   5.008   7.386  0.2539 -0.1795  0.0891
   99SAPS  H12R 9935   0.047   4.984   7.493  0.4134 -0.8351 -0.0598
   99SAPS  C213 9936  -0.091   4.964   7.327  0.4539 -0.4387  0.4646
   99SAPS  H13R 9937  -0.112   4.863   7.366 -0.3931 -0.0666  1.0096
   99SAPS  H13S 9938  -0.095   4.962   7.216  0.2846  1.2319  0.4068
   99SAPS  C214 9939  -0.211   5.048   7.354  0.0028  0.1441  0.0726
   99SAPS  H14R 9940  -0.245   5.090   7.259  0.8055  0.0448 -0.2600
   99SAPS  C215 9941  -0.286   5.066   7.466  0.2338 -0.5794  0.5310
   99SAPS  H15R 9942  -0.367   5.140   7.458  0.6179 -0.3328 -1.5607
   99SAPS  C216 9943  -0.264   5.012   7.600  0.4775 -0.5833  0.4970
   99SAPS  H16R 9944  -0.186   4.934   7.594  1.2975  0.3298 -2.3139
   99SAPS  H16S 9945  -0.352   4.976   7.658  0.1620 -0.3669  0.1613
   99SAPS  C217 9946  -0.202   5.108   7.700  0.4386 -0.4801  0.3931
   99SAPS  H17R 9947  -0.254   5.205   7.687 -1.9695 -1.8003 -0.3185
   99SAPS  H17S 9948  -0.098   5.135   7.669  0.2512  0.2467  0.3717
   99SAPS  C218 9949  -0.192   5.053   7.844  0.5311  0.0193 -0.5490
   99SAPS  H18R 9950  -0.089   5.068   7.882  0.4539 -1.9964  0.5684
   99SAPS  H18S 9951  -0.228   4.948   7.847 -1.3799  0.6614  1.7294
   99SAPS  C219 9952  -0.282   5.128   7.932  0.2017 -0.4440 -0.1472
   99SAPS  H19R 9953  -0.384   5.129   7.887  0.0671  1.7617  0.0869
   99SAPS  H19S 9954  -0.250   5.234   7.926  0.5788 -0.5695 -0.3595
   99SAPS  C220 9955  -0.271   5.080   8.072  0.3440 -1.0542  0.1340
   99SAPS  H20R 9956  -0.349   5.121   8.140  0.9241 -1.0422  0.8111
   99SAPS  H20S 9957  -0.185   5.121   8.129 -0.4671 -1.3037  1.5883
   99SAPS  H20T 9958  -0.262   4.970   8.077  0.0964 -1.0451  1.2618
   99SAPS   C33 9959   0.613   5.627   6.716 -0.5726  0.0050 -0.4236
   99SAPS   H3X 9960   0.555   5.541   6.678  0.6363 -1.1594  0.2872
   99SAPS   H3Y 9961   0.611   5.707   6.639  0.8292  0.6973  0.2175
   99SAPS   C34 9962   0.542   5.679   6.849  0.4843  0.6066 -0.2844
   99SAPS   H4X 9963   0.576   5.627   6.941  0.4773  1.7580  0.3777
   99SAPS   H4Y 9964   0.432   5.669   6.838  0.8007 -2.3959 -1.7536
   99SAPS   C35 9965   0.562   5.832   6.875  0.7798 -0.0179  0.4798
   99SAPS   H5X 9966   0.524   5.888   6.787  1.0450  0.5442  0.7171
   99SAPS   H5Y 9967   0.671   5.851   6.884  0.8852 -0.6431  0.5268
   99SAPS   C36 9968   0.482   5.893   7.001  1.0310 -0.3044  0.1920
   99SAPS   H6X 9969   0.382   5.844   7.006  1.6331 -1.8635 -1.7737
   99SAPS   H6Y 9970   0.464   6.000   6.976  0.5881 -0.6812 -1.2183
   99SAPS   C37 9971   0.566   5.881   7.133  0.2528 -0.0621 -0.1943
   99SAPS   H7X 9972   0.633   5.969   7.141 -0.1224  0.2641 -0.5852
   99SAPS   H7Y 9973   0.626   5.788   7.121  0.5928 -0.1455  1.7412
   99SAPS   C38 9974   0.497   5.863   7.265 -0.0742 -0.1979  0.5574
   99SAPS   H8X 9975   0.454   5.762   7.283 -1.0454  0.3918  1.6091
   99SAPS   H8Y 9976   0.406   5.926   7.256 -0.7086 -1.3430 -1.8820
   99SAPS   C39 9977   0.581   5.899   7.386  0.7656 -0.2095  0.1323
   99SAPS   H9X 9978   0.616   6.004   7.387  1.3990 -0.4074 -0.3740
   99SAPS   H9Y 9979   0.672   5.835   7.388  1.3693  0.6422  1.8989
   99SAPS  C310 9980   0.509   5.858   7.518  0.2620  0.2829  0.8557
   99SAPS  H10X 9981   0.583   5.851   7.600  1.6103 -3.0370 -0.4904
   99SAPS  H10Y 9982   0.469   5.755   7.502 -2.3223  1.3519 -0.1622
   99SAPS  C311 9983   0.401   5.952   7.539  0.5116  0.3523 -0.0897
   99SAPS  H11X 9984   0.329   5.936   7.456 -0.2510  0.0730  0.6140
   99SAPS  H11Y 9985   0.445   6.054   7.525 -0.2071  0.8533  1.1483
   99SAPS  C312 9986   0.338   5.955   7.676  0.0447  0.4458 -0.8156
   99SAPS  H12X 9987   0.268   5.869   7.688  2.2465 -1.1617  1.6392
   99SAPS  H12Y 9988   0.286   6.053   7.680  0.0252  0.4137  2.2573
   99SAPS  C313 9989   0.445   5.939   7.789 -0.0272 -0.1222  0.0198
   99SAPS  H13X 9990   0.532   5.998   7.755  0.4323 -1.5878 -1.4402
   99SAPS  H13Y 9991   0.484   5.835   7.787  0.7270  0.1407  0.6050
   99SAPS  C314 9992   0.386   5.971   7.925  1.0074  0.4225  0.2673
   99SAPS  H14X 9993   0.300   5.903   7.945 -0.2684  1.3607 -1.7241
   99SAPS  H14Y 9994   0.332   6.068   7.920 -1.0069 -0.6631 -0.1335
   99SAPS  C315 9995   0.483   5.986   8.046  0.4707  0.3317  0.2534
   99SAPS  H15X 9996   0.435   6.068   8.105 -1.3969  0.3644 -1.2213
   99SAPS  H15Y 9997   0.582   6.015   8.005  1.0187 -0.6355  0.8563
   99SAPS  C316 9998   0.492   5.854   8.113  0.1965  0.5514 -0.0023
   99SAPS  H16X 9999   0.581   5.862   8.179 -0.1004 -1.8396  0.7860
   99SAPS  H16Y10000   0.518   5.782   8.033  3.9272  1.2831  0.3696
   99SAPS  C31710001   0.374   5.797   8.198  0.2098 -0.5999  0.2148
   99SAPS  H17X10002   0.289   5.766   8.134 -0.0948 -1.3987  0.9851
   99SAPS  H17Y10003   0.355   5.881   8.269 -0.5218 -1.6333  1.2823
   99SAPS  C31810004   0.425   5.678   8.279  0.1045  0.8676  0.4432
   99SAPS  H18X10005   0.527   5.642   8.253 -0.5885 -0.7696 -0.1945
   99SAPS  H18Y10006   0.361   5.592   8.248 -1.1791  2.2216 -0.8100
   99SAPS  H18Z10007   0.424   5.700   8.387  0.9467 -0.5467  0.7764
  100SAPS     N10008   4.875   0.310   5.933 -0.4027 -0.2411 -0.4919
  100SAPS   HN110009   4.897   0.335   5.834 -0.7957 -0.4659 -0.6368
  100SAPS   HN210010   4.836   0.397   5.975  1.2403  0.7419 -0.8931
  100SAPS   HN310011   4.969   0.290   5.972 -0.6733 -2.5070 -0.8764
  100SAPS   C1210012   4.780   0.208   5.958 -0.0177  0.4991  0.1269
  100SAPS  H12A10013   4.684   0.244   5.922  0.0008 -2.2232 -3.2315
  100SAPS   C1310014   4.804   0.077   5.881  0.0024 -0.5727 -0.4328
  100SAPS  O13A10015   4.907   0.057   5.811  0.0997  1.0162 -0.5988
  100SAPS  O13B10016   4.700  -0.002   5.885 -0.2672 -0.1555 -0.1224
  100SAPS   C1110017   4.775   0.178   6.103 -0.6216 -0.4357 -0.1252
  100SAPS  H11A10018   4.876   0.147   6.138  0.7903  1.2890 -2.4266
  100SAPS  H11B10019   4.701   0.099   6.132 -2.5637  1.4980  0.4309
  100SAPS     P10020   4.684   0.309   6.327  0.4438  0.1857  0.0632
  100SAPS   O1310021   4.768   0.406   6.401 -0.6767  0.1270  0.2464
  100SAPS   O1410022   4.538   0.331   6.310  0.4369  0.4382  0.4590
  100SAPS   O1210023   4.744   0.296   6.177  0.0523  0.2300  0.6879
  100SAPS   O1110024   4.709   0.163   6.388 -0.6670 -0.0296 -0.2642
  100SAPS    C110025   4.601   0.084   6.429  0.2240  0.0032 -0.0603
  100SAPS    HA10026   4.530   0.133   6.500  2.1315 -0.4746  2.3224
  100SAPS    HB10027   4.554   0.037   6.340  0.4292 -1.4316  0.5672
  100SAPS    C210028   4.650  -0.043   6.500 -0.3797  0.9498 -0.2216
  100SAPS    HS10029   4.612  -0.138   6.455  0.9026  0.9874 -1.4568
  100SAPS   O2110030   4.625  -0.047   6.638 -0.4886  0.2972 -0.0806
  100SAPS   C2110031   4.504  -0.090   6.675  1.0486  0.5415  0.4181
  100SAPS   O2210032   4.422  -0.134   6.596 -0.0560  0.0588  0.0816
  100SAPS   C2210033   4.488  -0.083   6.826 -0.1494 -0.1033 -0.7646
  100SAPS   H2R10034   4.577  -0.137   6.863 -1.5347 -2.1029 -0.1702
  100SAPS   H2S10035   4.490   0.023   6.860  3.3817 -0.3414  0.1098
  100SAPS    C310036   4.803  -0.068   6.483  0.4063  0.7053 -0.6048
  100SAPS    HX10037   4.854   0.017   6.534  1.0490 -0.2589  0.3955
  100SAPS    HY10038   4.818  -0.074   6.373 -2.2284 -0.1949 -0.9885
  100SAPS   O3110039   4.841  -0.188   6.549 -0.1095  0.1557 -0.1280
  100SAPS   C3110040   4.844  -0.310   6.477  0.0963  0.5669 -0.8518
  100SAPS   O3210041   4.811  -0.324   6.362 -0.3812 -0.2167  0.4781
  100SAPS   C3210042   4.893  -0.417   6.578  0.8005  0.1412  0.4094
  100SAPS   H2X10043   4.924  -0.357   6.666 -1.2530  2.4877 -0.3439
  100SAPS   H2Y10044   4.978  -0.478   6.539  0.2222 -1.3270  1.3770
  100SAPS   C2310045   4.361  -0.147   6.889 -0.7507  0.5687 -0.0699
  100SAPS   H3R10046   4.359  -0.252   6.853 -1.6625 -1.2550  4.5677
  100SAPS   H3S10047   4.278  -0.079   6.858 -1.8447 -0.2518  0.9470
  100SAPS   C2410048   4.372  -0.139   7.039  0.3314  1.1562 -0.0470
  100SAPS   H4R10049   4.392  -0.035   7.072 -0.3861  0.9362  1.1563
  100SAPS   H4S10050   4.461  -0.199   7.067 -0.4055 -0.2525 -0.6034
  100SAPS   C2510051   4.247  -0.194   7.106  0.0483 -1.0541  1.0986
  100SAPS   H5R10052   4.190  -0.271   7.052  2.4263 -2.6450  0.7384
  100SAPS   C2610053   4.185  -0.150   7.214 -0.1359  0.1647 -0.3814
  100SAPS   H6R10054   4.098  -0.203   7.256  0.6187  0.6194  1.9126
  100SAPS   C2710055   4.242  -0.040   7.304 -0.9645 -0.6153  1.0947
  100SAPS   H7R10056   4.293   0.027   7.231  0.2839 -2.2832  0.3505
  100SAPS   H7S10057   4.326  -0.078   7.367  1.9549  1.1222 -1.4637
  100SAPS   C2810058   4.134   0.043   7.371 -0.4424 -0.3389  0.3960
  100SAPS   H8R10059   4.049   0.084   7.313  0.1445 -1.4321 -1.3283
  100SAPS   C2910060   4.136   0.065   7.502  0.8330 -0.3597  0.5717
  100SAPS   H9R10061   4.057   0.134   7.534  1.6253  0.9396 -0.1941
  100SAPS  C21010062   4.232   0.002   7.606  0.0421 -0.3894 -0.2056
  100SAPS  H10R10063   4.242   0.075   7.690 -0.1886  0.3137 -0.7754
  100SAPS  H10S10064   4.335  -0.010   7.567  0.6590  1.1460  0.8419
  100SAPS  C21110065   4.177  -0.130   7.657  0.2718 -0.0623 -0.2288
  100SAPS  H11R10066   4.128  -0.190   7.580 -2.6882  1.7915  0.0398
  100SAPS  C21210067   4.178  -0.172   7.785  0.7299 -0.0588 -0.5211
  100SAPS  H12R10068   4.125  -0.268   7.789 -1.2284  0.8104 -2.9522
  100SAPS  C21310069   4.216  -0.105   7.915 -0.0829 -0.4641  0.2768
  100SAPS  H13R10070   4.130  -0.099   7.985 -0.1064  0.6226  0.1745
  100SAPS  H13S10071   4.251  -0.003   7.889 -1.1333 -0.4620 -1.3046
  100SAPS  C21410072   4.334  -0.184   7.975  0.5003 -0.1695  0.5839
  100SAPS  H14R10073   4.415  -0.192   7.900 -0.8052  3.4062 -1.4615
  100SAPS  C21510074   4.335  -0.241   8.097  0.7526 -0.7828 -0.3130
  100SAPS  H15R10075   4.426  -0.296   8.123  0.8798 -0.4859 -0.1236
  100SAPS  C21610076   4.228  -0.233   8.200  0.5984 -0.1012 -0.1074
  100SAPS  H16R10077   4.163  -0.143   8.199  1.5987  0.6741  1.0613
  100SAPS  H16S10078   4.267  -0.242   8.304  0.5227  2.5849  0.2132
  100SAPS  C21710079   4.131  -0.357   8.199 -0.7190 -0.2173 -0.0129
  100SAPS  H17R10080   4.176  -0.450   8.158 -0.3082 -0.5134  1.0596
  100SAPS  H17S10081   4.039  -0.336   8.141 -0.7467  2.4152  0.8710
  100SAPS  C21810082   4.079  -0.398   8.340 -0.1213 -0.1088 -0.6474
  100SAPS  H18R10083   4.165  -0.381   8.409 -0.3049 -0.9721 -0.1958
  100SAPS  H18S10084   4.063  -0.508   8.335  0.7445 -0.3027  0.3677
  100SAPS  C21910085   3.959  -0.309   8.376 -0.4084 -0.5461 -0.1141
  100SAPS  H19R10086   3.885  -0.310   8.293  0.0992  0.5297 -0.5935
  100SAPS  H19S10087   3.996  -0.207   8.401  2.4317 -1.4035 -0.5006
  100SAPS  C22010088   3.880  -0.372   8.499  0.0511  0.2260 -0.6360
  100SAPS  H20R10089   3.863  -0.481   8.490  0.0927  0.1021  0.5904
  100SAPS  H20S10090   3.783  -0.319   8.507  0.2958  0.5024  0.7794
  100SAPS  H20T10091   3.944  -0.356   8.589 -1.0946 -1.5408  0.5455
  100SAPS   C3310092   4.789  -0.526   6.600 -1.0665  1.2352 -0.5611
  100SAPS   H3X10093   4.839  -0.599   6.668  1.1990  1.8736 -1.4781
  100SAPS   H3Y10094   4.769  -0.578   6.504 -2.1860 -0.8241  0.6798
  100SAPS   C3410095   4.660  -0.482   6.672 -1.1580  0.7366  0.3212
  100SAPS   H4X10096   4.581  -0.560   6.657 -1.2615  0.7924  0.5774
  100SAPS   H4Y10097   4.631  -0.401   6.603 -1.7790  0.2382 -0.0152
  100SAPS   C3510098   4.664  -0.448   6.820  0.6273  0.1187  0.6093
  100SAPS   H5X10099   4.571  -0.395   6.851 -0.2310 -0.2265 -1.2643
  100SAPS   H5Y10100   4.748  -0.377   6.838  0.9915 -0.3240  0.6738
  100SAPS   C3610101   4.685  -0.574   6.905 -0.0842  0.1783  0.0086
  100SAPS   H6X10102   4.779  -0.631   6.888  0.3253  1.0018 -0.5414
  100SAPS   H6Y10103   4.598  -0.642   6.895  0.8289 -1.1688  0.8036
  100SAPS   C3710104   4.692  -0.530   7.055  0.0889 -0.6622 -0.0093
  100SAPS   H7X10105   4.598  -0.477   7.079  0.6499  1.3765 -1.9659
  100SAPS   H7Y10106   4.766  -0.449   7.073 -1.4702  0.4002  2.0427
  100SAPS   C3810107   4.718  -0.644   7.162  0.7883  0.7860 -0.0769
  100SAPS   H8X10108   4.640  -0.721   7.141  0.6768  1.1740 -1.1887
  100SAPS   H8Y10109   4.690  -0.600   7.260  0.3920  2.5421 -0.9318
  100SAPS   C3910110   4.855  -0.712   7.161  0.0230 -1.0046  0.1824
  100SAPS   H9X10111   4.938  -0.638   7.159 -1.6819  1.0506  0.8305
  100SAPS   H9Y10112   4.868  -0.767   7.066  3.1772  0.2893 -0.2635
  100SAPS  C31010113   4.896  -0.810   7.274 -0.0359  0.4468 -0.5324
  100SAPS  H10X10114   4.999  -0.848   7.255  0.5497  1.7815 -0.1953
  100SAPS  H10Y10115   4.826  -0.896   7.274 -0.1386  0.5281 -0.2897
  100SAPS  C31110116   4.892  -0.750   7.419  0.4835 -0.0447 -0.1655
  100SAPS  H11X10117   4.833  -0.656   7.416  1.0391  0.2725 -2.1144
  100SAPS  H11Y10118   4.998  -0.723   7.434  0.1027  0.7512  1.2888
  100SAPS  C31210119   4.852  -0.860   7.523  0.5878  0.2520  0.7905
  100SAPS  H12X10120   4.909  -0.949   7.489 -0.4939 -0.0312 -0.3816
  100SAPS  H12Y10121   4.743  -0.883   7.515  0.7040 -0.0218 -0.2300
  100SAPS  C31310122   4.894  -0.826   7.665  0.4435  0.6305  0.0938
  100SAPS  H13X10123   4.859  -0.728   7.703  1.3014  0.7614  0.5590
  100SAPS  H13Y10124   5.005  -0.821   7.663  0.6702 -2.4576 -0.4315
  100SAPS  C31410125   4.862  -0.937   7.767  0.6083  0.3490  0.2941
  100SAPS  H14X10126   4.895  -1.033   7.723 -1.6024  0.1308 -1.0139
  100SAPS  H14Y10127   4.756  -0.943   7.800  0.1906 -1.4620 -1.2271
  100SAPS  C31510128   4.933  -0.919   7.899 -0.8772 -0.2310  0.5391
  100SAPS  H15X10129   5.035  -0.954   7.874 -1.3415 -3.2760  2.2777
  100SAPS  H15Y10130   4.889  -0.995   7.967 -0.0218 -0.2413  1.1017
  100SAPS  C31610131   4.937  -0.784   7.957 -0.3712  0.5723  0.3708
  100SAPS  H16X10132   4.831  -0.753   7.972 -0.6621 -0.5297  0.6207
  100SAPS  H16Y10133   4.985  -0.701   7.901  1.3147 -0.2990  0.4728
  100SAPS  C31710134   5.016  -0.783   8.091  0.2160 -0.0537  1.0118
  100SAPS  H17X10135   5.123  -0.802   8.071 -0.2255  0.7179 -2.9609
  100SAPS  H17Y10136   4.979  -0.869   8.150 -3.2362 -0.1921 -1.0626
  100SAPS  C31810137   4.997  -0.648   8.171 -0.0486 -0.5141  0.6286
  100SAPS  H18X10138   5.042  -0.569   8.108  0.1851  0.0861  1.5297
  100SAPS  H18Y10139   5.053  -0.657   8.266  1.4939 -1.1501 -0.2984
  100SAPS  H18Z10140   4.889  -0.630   8.191 -0.1013  0.9390 -0.7909
  101OSM      N10141   3.058   6.643  11.133 -0.0880  0.0065  0.6774
  101OSM    C1510142   3.060   6.657  11.281  0.5718  0.2390 -0.0520
  101OSM   H15A10143   3.102   6.570  11.329  1.3898  0.6219 -0.0571
  101OSM   H15B10144   2.959   6.673  11.318  0.9381  1.3822  0.5084
  101OSM   H15C10145   3.118   6.742  11.315 -0.6028  1.4917 -1.0596
  101OSM    C1410146   2.983   6.753  11.065  0.2073  0.3260 -0.1302
  101OSM   H14A10147   3.033   6.849  11.066 -0.5359  0.8250 -2.6130
  101OSM   H14B10148   2.887   6.771  11.109 -1.7486 -3.3716 -2.3693
  101OSM   H14C10149   2.956   6.727  10.964 -1.7522 -1.4988  0.7853
  101OSM    C1310150   3.198   6.645  11.081 -0.0002 -0.7356 -0.2286
  101OSM   H13A10151   3.201   6.628  10.975  1.3836 -0.2883 -0.2776
  101OSM   H13B10152   3.255   6.581  11.147  2.3333  0.2790 -1.1491
  101OSM   H13C10153   3.250   6.739  11.095  1.2647 -1.3276 -0.8903
  101OSM    C1210154   2.999   6.506  11.104  0.2274 -0.1571 -0.2304
  101OSM   H12A10155   2.897   6.493  11.137 -0.5566 -2.1586 -2.9799
  101OSM   H12B10156   3.050   6.428  11.159  1.2008 -0.8479 -2.0200
  101OSM    C1110157   2.999   6.451  10.953 -0.1282 -0.1338  0.0593
  101OSM   H11A10158   2.974   6.343  10.966 -3.6256  0.6982  1.3248
  101OSM   H11B10159   3.105   6.463  10.921 -0.3593 -1.6668 -1.4159
  101OSM      P10160   2.749   6.484  10.893 -0.3839 -0.5379  0.4030
  101OSM    O1310161   2.736   6.408  11.019  0.9447  0.0158  0.2212
  101OSM    O1410162   2.670   6.611  10.884 -0.1927  0.1950  0.5687
  101OSM    O1110163   2.726   6.388  10.763  0.1817 -0.1223  0.6678
  101OSM    O1210164   2.905   6.520  10.869 -0.5470 -0.7903  0.9192
  101OSM    C1S10165   2.659   6.452  10.643 -0.3577  0.5946  1.0383
  101OSM    H1S10166   2.704   6.549  10.613 -0.9252  0.7232  0.5829
  101OSM    H1T10167   2.552   6.466  10.668 -0.8905  3.3065 -2.0931
  101OSM     NF10168   2.615   6.457  10.403 -0.1709  0.2915 -1.0358
  101OSM    HNF10169   2.517   6.444  10.392 -0.4065  2.1312 -1.5196
  101OSM    C2S10170   2.682   6.375  10.511 -0.2833 -0.4830 -0.2236
  101OSM    H2S10171   2.791   6.384  10.492 -0.4891 -0.1298 -1.3241
  101OSM    C3S10172   2.640   6.224  10.525  0.6091  0.1598  0.5735
  101OSM    H3S10173   2.532   6.229  10.500  1.2415 -0.4574 -2.7645
  101OSM     O310174   2.668   6.161  10.652  0.0761 -0.5758 -0.3038
  101OSM    HO310175   2.695   6.237  10.703  0.0711 -0.1677 -0.9036
  101OSM    C4S10176   2.708   6.149  10.411 -0.3367  0.1683 -0.1528
  101OSM    H4S10177   2.648   6.142  10.319 -0.6955 -3.3612  0.2207
  101OSM    C5S10178   2.826   6.087  10.409 -0.0675 -0.2629  0.3273
  101OSM    H5S10179   2.889   6.089  10.498  2.2587  2.9496 -1.1901
  101OSM    C6S10180   2.873   6.017  10.282 -0.2543 -0.4216 -0.1538
  101OSM    H6S10181   2.822   5.918  10.279  0.5625 -0.8645  0.1665
  101OSM    H6T10182   2.982   5.995  10.284 -0.2317 -0.6851  3.7141
  101OSM    C7S10183   2.827   6.085  10.145 -0.4361 -0.1328 -0.2142
  101OSM    H7S10184   2.882   6.181  10.140  0.5842 -0.6936 -0.1101
  101OSM    H7T10185   2.722   6.117  10.134 -0.2900  1.0890  1.4244
  101OSM    C8S10186   2.871   6.005  10.022  0.1623 -0.3018  0.0305
  101OSM    H8S10187   2.818   5.907  10.027 -0.1696 -0.0774  1.2960
  101OSM    H8T10188   2.977   5.976  10.035  0.2558 -0.5912 -1.2372
  101OSM    C9S10189   2.846   6.085   9.893 -0.3726 -0.1252 -0.9263
  101OSM    H9S10190   2.914   6.172   9.909  0.3509 -0.9766  0.9124
  101OSM    H9T10191   2.743   6.126   9.892  0.5154  2.2745 -1.3143
  101OSM   C10S10192   2.867   6.011   9.763  0.0518  0.3984 -0.6415
  101OSM   H10S10193   2.833   5.906   9.775  4.2811 -1.1079  0.1048
  101OSM   H10T10194   2.976   6.002   9.743 -0.1883  0.9840 -2.4206
  101OSM   C11S10195   2.786   6.083   9.650  0.3023 -0.4820  0.1738
  101OSM   H11S10196   2.830   6.185   9.645  0.8510 -0.7307 -0.1189
  101OSM   H11T10197   2.678   6.104   9.669  0.3784  1.2983 -1.1484
  101OSM   C12S10198   2.804   6.034   9.508 -0.4893  0.4502 -0.1103
  101OSM   H12S10199   2.775   5.927   9.502  0.0825  0.2717  0.2065
  101OSM   H12T10200   2.914   6.027   9.500 -0.3773  1.0907  0.7184
  101OSM   C13S10201   2.732   6.117   9.407 -0.1573 -0.0127 -0.0742
  101OSM   H13S10202   2.782   6.217   9.409 -0.6704  0.3264 -2.3548
  101OSM   H13T10203   2.628   6.127   9.443  0.2058 -0.9682  1.3382
  101OSM   C14S10204   2.730   6.063   9.265  0.1547  0.3951  0.4379
  101OSM   H14S10205   2.707   5.954   9.265 -0.5862  0.5184  1.9938
  101OSM   H14T10206   2.829   6.083   9.220 -0.2320 -2.1636 -1.7819
  101OSM   C15S10207   2.614   6.128   9.181  0.0113  0.5144  0.3581
  101OSM   H15S10208   2.618   6.237   9.202 -2.9878  1.0177 -1.2481
  101OSM   H15T10209   2.524   6.086   9.230  1.4211 -1.8524  1.1059
  101OSM   C16S10210   2.609   6.091   9.031  0.6866 -0.1301  0.5164
  101OSM   H16S10211   2.561   5.992   9.018 -1.0486  0.7021  0.2099
  101OSM   H16T10212   2.716   6.077   9.005  0.2814 -0.8142 -0.9036
  101OSM   C17S10213   2.532   6.195   8.948 -0.8063 -0.3553 -0.5847
  101OSM   H17S10214   2.557   6.303   8.957 -0.2724 -0.4665 -0.7017
  101OSM   H17T10215   2.432   6.181   8.994  0.2780 -0.3521  1.9331
  101OSM   C18S10216   2.542   6.162   8.793 -1.1823 -0.5843 -0.2753
  101OSM   H18S10217   2.490   6.229   8.721  0.3130  0.8992 -0.0251
  101OSM   H18T10218   2.501   6.060   8.775 -0.1078 -1.0489 -0.2321
  101OSM   H18U10219   2.650   6.162   8.766 -1.2565 -1.5935 -0.5949
  101OSM    C1F10220   2.673   6.570  10.357  0.1207  0.3212 -0.0348
  101OSM     OF10221   2.784   6.599  10.401  0.5043  0.0357 -0.0618
  101OSM    C2F10222   2.592   6.654  10.260 -0.3117  0.3986 -0.3493
  101OSM    H2F10223   2.513   6.711  10.315 -0.3462 -1.4645  1.6501
  101OSM    H2G10224   2.538   6.585  10.191 -3.5421 -0.3076  2.5992
  101OSM    C3F10225   2.684   6.756  10.201  0.5110  0.0945  1.1100
  101OSM    H3F10226   2.779   6.705  10.177  0.8324  2.2776 -3.2292
  101OSM    H3G10227   2.698   6.848  10.262  1.3614  0.2417  0.6924
  101OSM    C4F10228   2.635   6.802  10.061 -0.4488 -0.4709  0.3630
  101OSM    H4F10229   2.537   6.853  10.070 -0.4886 -0.2000 -1.2623
  101OSM    H4G10230   2.621   6.713   9.995 -2.3676  0.7343 -0.9258
  101OSM    C5F10231   2.745   6.888   9.989 -0.1891 -0.1569  0.2169
  101OSM    H5F10232   2.839   6.830   9.979 -0.1393  0.0122 -0.3040
  101OSM    H5G10233   2.767   6.979  10.049 -0.5314  1.1232 -1.5318
  101OSM    C6F10234   2.704   6.935   9.844  0.3009 -0.6306 -0.3955
  101OSM    H6F10235   2.595   6.917   9.838  0.1607 -0.4466  1.3199
  101OSM    H6G10236   2.762   6.879   9.767  1.6747 -0.4611  0.4771
  101OSM    C7F10237   2.743   7.086   9.834 -0.5044 -0.6707 -0.1543
  101OSM    H7F10238   2.854   7.088   9.827 -0.4988 -1.3391 -0.3550
  101OSM    H7G10239   2.707   7.133   9.928 -0.9590 -0.2362 -0.5405
  101OSM    C8F10240   2.677   7.157   9.716  0.2859 -0.7370 -0.2408
  101OSM    H8F10241   2.583   7.208   9.743  0.3015  0.4515 -2.2190
  101OSM    H8G10242   2.626   7.083   9.650  0.6405 -1.1602 -0.0502
  101OSM    C9F10243   2.765   7.255   9.635  0.1582  0.3912 -0.8278
  101OSM    H9F10244   2.725   7.356   9.617 -1.6863 -0.1633 -0.0530
  101OSM   C10F10245   2.879   7.221   9.574 -0.2652  0.2448  0.1797
  101OSM   H10F10246   2.936   7.297   9.520  1.0986 -0.8593  0.0143
  101OSM   C11F10247   2.931   7.077   9.569 -0.0459  0.0196 -0.4219
  101OSM   H11F10248   2.854   6.998   9.580  2.2434 -2.3485 -0.3696
  101OSM   H11G10249   3.004   7.058   9.650 -2.1084  2.8284  2.2922
  101OSM   C12F10250   2.993   7.055   9.429 -0.0781 -0.3001  0.1219
  101OSM   H12F10251   3.050   6.960   9.435  0.2897 -0.0328  0.9539
  101OSM   H12G10252   3.073   7.131   9.417  0.3419 -0.9290 -1.3392
  101OSM   C13F10253   2.901   7.060   9.306 -0.5773 -0.6723  0.5540
  101OSM   H13F10254   2.829   7.145   9.298 -0.9864 -0.9085  1.5394
  101OSM   H13G10255   2.836   6.978   9.343 -0.2510 -2.3452 -2.2964
  101OSM   C14F10256   2.959   7.006   9.180  0.0009 -0.1537  0.3667
  101OSM   H14F10257   2.872   6.984   9.115 -0.4245  2.3299  0.0083
  101OSM   H14G10258   3.021   6.917   9.201 -0.1097 -0.0424  1.2375
  101OSM   C15F10259   3.048   7.108   9.108 -0.6082  0.1391  0.6156
  101OSM   H15F10260   3.111   7.161   9.182  0.0953  1.1783 -0.6855
  101OSM   H15G10261   2.980   7.189   9.073  1.4576  1.2402 -1.0284
  101OSM   C16F10262   3.127   7.049   8.988 -0.3147 -0.1772  0.4449
  101OSM   H16F10263   3.163   6.945   9.004  1.9266  0.3278 -0.8539
  101OSM   H16G10264   3.222   7.104   8.971 -1.1183  1.5339  1.2951
  101OSM   C17F10265   3.042   7.041   8.853  0.0851 -0.2903 -0.6316
  101OSM   H17F10266   2.945   6.993   8.876  1.0886 -1.4603  1.4915
  101OSM   H17G10267   3.091   6.976   8.777  0.8976 -0.9353  0.4158
  101OSM   C18F10268   3.022   7.179   8.785  0.8083 -0.0333  0.7556
  101OSM   H18F10269   3.115   7.211   8.733 -0.8051  0.0590 -2.2566
  101OSM   H18G10270   3.007   7.260   8.859  1.6074  1.3882 -0.5880
  101OSM   H18H10271   2.951   7.180   8.700  1.9512  2.5168 -0.2515
  102OSM      N10272   1.698   0.108  11.091  0.0175  0.0557 -0.7681
  102OSM    C1510273   1.594   0.086  11.202  0.1257  0.6268  0.4130
  102OSM   H15A10274   1.649   0.090  11.295 -0.3522 -0.9254  0.7940
  102OSM   H15B10275   1.543  -0.008  11.185  0.1045  0.9040 -1.1743
  102OSM   H15C10276   1.512   0.156  11.191 -1.3449 -1.0267  0.4116
  102OSM    C1410277   1.747   0.246  11.109 -0.3881 -0.2477  0.1320
  102OSM   H14A10278   1.793   0.260  11.206  2.4757 -0.6990 -1.0510
  102OSM   H14B10279   1.678   0.323  11.076 -1.4995 -1.8114 -1.3343
  102OSM   H14C10280   1.839   0.271  11.059  0.8788  0.1262  2.4762
  102OSM    C1310281   1.813   0.023  11.108  0.4797  0.2769  0.2066
  102OSM   H13A10282   1.798  -0.084  11.114  1.2854  0.1866  0.7821
  102OSM   H13B10283   1.861   0.037  11.203  3.0724 -0.4629 -0.9249
  102OSM   H13C10284   1.895   0.043  11.042  1.2251  0.7555  1.2465
  102OSM    C1210285   1.628   0.087  10.961 -0.3693  0.1201 -0.0570
  102OSM   H12A10286   1.538   0.147  10.959  0.2538  1.2884  2.6572
  102OSM   H12B10287   1.579  -0.009  10.953 -0.0943 -0.0737  0.5043
  102OSM    C1110288   1.710   0.095  10.834 -0.3748  0.7811  0.5393
  102OSM   H11A10289   1.653   0.053  10.749  0.3619  1.3912 -0.2761
  102OSM   H11B10290   1.806   0.040  10.840 -0.6555 -0.1648 -2.1333
  102OSM      P10291   1.641   0.347  10.793 -0.2765  0.0074 -0.4236
  102OSM    O1310292   1.505   0.289  10.780  0.0218  0.1428 -0.6658
  102OSM    O1410293   1.655   0.450  10.899  0.2624  0.2496  0.0441
  102OSM    O1110294   1.691   0.413  10.659  0.4969  0.3545 -0.3199
  102OSM    O1210295   1.745   0.233  10.802 -0.3470  0.1076  0.5418
  102OSM    C1S10296   1.716   0.335  10.548 -0.0762  0.2610 -0.1057
  102OSM    H1S10297   1.702   0.225  10.563  0.9870  0.0742 -0.3852
  102OSM    H1T10298   1.823   0.345  10.521  0.0818 -1.4640 -0.2611
  102OSM     NF10299   1.649   0.276  10.320  0.3235  0.0446  0.9867
  102OSM    HNF10300   1.692   0.316  10.239  0.4990  0.0910  1.1015
  102OSM    C2S10301   1.621   0.368  10.425  0.0353 -0.3523  0.1089
  102OSM    H2S10302   1.516   0.355  10.457 -0.7711  1.1971 -1.6745
  102OSM    C3S10303   1.640   0.524  10.381  0.1933  0.9734 -0.3396
  102OSM    H3S10304   1.740   0.538  10.334 -0.5256  0.5892 -2.0572
  102OSM     O310305   1.639   0.611  10.492  0.7956 -0.5031 -0.0254
  102OSM    HO310306   1.641   0.552  10.567 -0.5352 -0.2325  0.2605
  102OSM    C4S10307   1.538   0.568  10.278  0.4738 -0.3284 -0.3035
  102OSM    H4S10308   1.579   0.560  10.176  0.4497  2.3328 -0.6137
  102OSM    C5S10309   1.414   0.615  10.293 -0.2061  0.2596 -0.9852
  102OSM    H5S10310   1.375   0.608  10.395 -1.4522  1.6288 -1.3386
  102OSM    C6S10311   1.315   0.664  10.199  0.1307  0.1613 -0.6912
  102OSM    H6S10312   1.303   0.774  10.207 -1.2871  0.1186 -1.8723
  102OSM    H6T10313   1.213   0.629  10.225 -0.7152  0.9928 -2.6913
  102OSM    C7S10314   1.344   0.630  10.057 -0.6763  0.7849  0.1622
  102OSM    H7S10315   1.376   0.524  10.051 -0.7266  0.8618 -1.8882
  102OSM    H7T10316   1.430   0.687  10.016  0.0535  0.0871  0.6882
  102OSM    C8S10317   1.215   0.633   9.975  0.2761  0.6128  0.7422
  102OSM    H8S10318   1.185   0.735   9.944 -1.1356 -0.5938 -2.3137
  102OSM    H8T10319   1.128   0.593  10.032  0.4759 -0.2725  0.4392
  102OSM    C9S10320   1.236   0.565   9.839  0.0018  0.2183 -0.1951
  102OSM    H9S10321   1.262   0.459   9.857  1.5154  0.3097 -1.6547
  102OSM    H9T10322   1.323   0.620   9.797  0.9387 -1.3731 -0.4076
  102OSM   C10S10323   1.111   0.584   9.742  0.3858 -0.2941  0.3232
  102OSM   H10S10324   1.091   0.689   9.712 -0.4046 -0.7655 -0.8462
  102OSM   H10T10325   1.019   0.548   9.793 -0.0938  1.5313  0.8138
  102OSM   C11S10326   1.131   0.500   9.613 -1.1370 -0.0293 -0.5284
  102OSM   H11S10327   1.144   0.396   9.649  1.3517  1.0427  2.0071
  102OSM   H11T10328   1.223   0.534   9.562 -1.1300 -0.4731 -0.8167
  102OSM   C12S10329   1.014   0.517   9.522 -0.1836  0.2487  0.0172
  102OSM   H12S10330   1.013   0.624   9.492  0.9027 -0.4945 -3.1019
  102OSM   H12T10331   0.928   0.478   9.580  0.8695 -1.4911  0.4791
  102OSM   C13S10332   1.017   0.441   9.386  0.0007 -0.3913 -0.5188
  102OSM   H13S10333   0.976   0.340   9.406  2.0280 -1.5763 -1.9396
  102OSM   H13T10334   1.123   0.431   9.354 -0.5485  1.6906 -3.3468
  102OSM   C14S10335   0.934   0.498   9.266 -0.2174 -0.1354  0.3336
  102OSM   H14S10336   0.836   0.544   9.292 -1.2422 -1.9369 -0.1830
  102OSM   H14T10337   0.904   0.412   9.202 -0.7347  0.3256 -0.0515
  102OSM   C15S10338   1.005   0.596   9.164 -0.1593  0.4726  0.3446
  102OSM   H15S10339   1.085   0.534   9.118  1.3234  1.2147  1.7992
  102OSM   H15T10340   1.049   0.691   9.202 -0.1756  0.6141  0.0101
  102OSM   C16S10341   0.908   0.632   9.050 -0.0957 -0.6044  0.0276
  102OSM   H16S10342   0.867   0.733   9.074  1.4551  0.3924 -1.3335
  102OSM   H16T10343   0.830   0.554   9.030  0.5965 -1.9219  2.0915
  102OSM   C17S10344   0.976   0.655   8.917 -0.3779 -0.4375 -0.6277
  102OSM   H17S10345   1.044   0.570   8.896  0.9150  0.3868  0.1573
  102OSM   H17T10346   1.045   0.741   8.923 -1.8704  0.8078 -0.7280
  102OSM   C18S10347   0.885   0.682   8.797  0.4693  0.3187  0.7652
  102OSM   H18S10348   0.822   0.770   8.819 -0.3592 -0.5469  1.9523
  102OSM   H18T10349   0.817   0.595   8.791 -0.0878  0.7268  1.0817
  102OSM   H18U10350   0.936   0.694   8.699 -2.5628  1.6688 -0.7874
  102OSM    C1F10351   1.626   0.145  10.317  0.1749 -0.4503  0.5377
  102OSM     OF10352   1.556   0.086  10.399  0.2779  0.0251 -0.6416
  102OSM    C2F10353   1.687   0.066  10.204 -0.0788  0.5984  0.2929
  102OSM    H2F10354   1.710  -0.036  10.242 -0.4488  0.6393  0.6279
  102OSM    H2G10355   1.778   0.127  10.188 -1.2691  2.7287  1.3241
  102OSM    C3F10356   1.611   0.061  10.074 -0.5634 -0.8344  0.1741
  102OSM    H3F10357   1.530  -0.016  10.079 -1.5298  0.2051  1.5473
  102OSM    H3G10358   1.686   0.031   9.998  1.8522  1.5858  1.4185
  102OSM    C4F10359   1.533   0.198  10.025  0.0528  0.8564  0.1098
  102OSM    H4F10360   1.602   0.281  10.053  1.3811  0.1563 -0.9978
  102OSM    H4G10361   1.442   0.221  10.085  0.0752 -2.8178  1.8043
  102OSM    C5F10362   1.493   0.214   9.881  0.0344 -0.1247 -0.0392
  102OSM    H5F10363   1.591   0.201   9.829 -0.3855 -0.8682 -0.6702
  102OSM    H5G10364   1.456   0.316   9.859  0.0432 -0.6023 -2.5466
  102OSM    C6F10365   1.391   0.109   9.831  0.0707 -0.1561  0.7034
  102OSM    H6F10366   1.295   0.118   9.886  0.2364 -1.1639  1.1977
  102OSM    H6G10367   1.424   0.004   9.849  0.5888 -0.2098 -0.4655
  102OSM    C7F10368   1.368   0.128   9.677  0.0663  0.3397 -0.2231
  102OSM    H7F10369   1.463   0.114   9.621  0.8219  0.6161  0.9433
  102OSM    H7G10370   1.330   0.229   9.651 -2.0538 -0.0317  1.1712
  102OSM    C8F10371   1.253   0.033   9.631  0.6310 -0.7545 -0.2504
  102OSM    H8F10372   1.160   0.063   9.683 -2.0253 -0.4818 -4.6584
  102OSM    H8G10373   1.280  -0.070   9.664  1.2455 -0.3411  0.5842
  102OSM    C9F10374   1.235   0.042   9.477  0.1579  0.1486 -0.1236
  102OSM    H9F10375   1.181   0.120   9.422  0.6121  1.1281  0.7972
  102OSM   C10F10376   1.301  -0.039   9.393  0.9704  0.1276  1.0952
  102OSM   H10F10377   1.268  -0.033   9.288  1.9287  3.7089  0.8628
  102OSM   C11F10378   1.397  -0.144   9.435 -0.0557 -0.2396  0.9652
  102OSM   H11F10379   1.342  -0.218   9.498 -2.6220  1.2379  0.6092
  102OSM   H11G10380   1.478  -0.102   9.497  0.9490  0.1500 -0.5579
  102OSM   C12F10381   1.472  -0.210   9.317  0.4045  0.8294 -0.5132
  102OSM   H12F10382   1.403  -0.258   9.244  0.2160 -1.3019  0.9642
  102OSM   H12G10383   1.536  -0.293   9.355 -1.0627 -1.4945 -2.8233
  102OSM   C13F10384   1.564  -0.117   9.249 -0.2568  0.6835 -0.4743
  102OSM   H13F10385   1.646  -0.080   9.315 -0.7564 -0.7933  1.0490
  102OSM   H13G10386   1.513  -0.021   9.228 -0.5555  1.4166  2.9250
  102OSM   C14F10387   1.614  -0.170   9.112  0.9018 -0.0374  0.4031
  102OSM   H14F10388   1.526  -0.193   9.048  1.6444  1.1770 -1.1150
  102OSM   H14G10389   1.671  -0.266   9.111  0.9575 -0.0873 -3.1121
  102OSM   C15F10390   1.681  -0.051   9.034  0.0483  0.4192 -0.9704
  102OSM   H15F10391   1.762  -0.001   9.091 -0.0277  0.5840 -1.0066
  102OSM   H15G10392   1.616   0.037   9.015  0.3300  0.6594 -0.8280
  102OSM   C16F10393   1.723  -0.101   8.900 -0.5006 -0.3844 -0.1594
  102OSM   H16F10394   1.638  -0.141   8.840 -0.5611  0.0002 -0.3367
  102OSM   H16G10395   1.798  -0.180   8.920  0.4935  0.5932  0.0904
  102OSM   C17F10396   1.794   0.009   8.821  0.1989 -0.3024  0.5378
  102OSM   H17F10397   1.747   0.109   8.818  4.7024  2.0649  0.5953
  102OSM   H17G10398   1.787  -0.033   8.718  1.3051 -0.4491  0.5087
  102OSM   C18F10399   1.940   0.027   8.862  0.4971  0.5362 -0.2221
  102OSM   H18F10400   1.978  -0.074   8.887 -0.4367  0.5049  1.1432
  102OSM   H18G10401   1.931   0.087   8.955 -1.5477 -2.1932  1.4833
  102OSM   H18H10402   1.998   0.070   8.777  0.7084 -2.9303 -1.9909
  103OSM      N10403   3.647   1.885  11.238  0.5665 -0.0829 -0.1157
  103OSM    C1510404   3.697   1.751  11.226  0.2653  0.4235  0.4060
  103OSM   H15A10405   3.743   1.719  11.318 -3.1135 -1.3969  1.6201
  103OSM   H15B10406   3.775   1.739  11.152  1.7457 -1.7502  2.2032
  103OSM   H15C10407   3.619   1.679  11.208 -0.2327  0.9284  0.5210
  103OSM    C1410408   3.532   1.862  11.332  0.3217 -0.3928  0.1441
  103OSM   H14A10409   3.565   1.807  11.419  0.6983  0.9631  0.8901
  103OSM   H14B10410   3.449   1.810  11.286  1.3673 -0.0982 -2.1643
  103OSM   H14C10411   3.489   1.953  11.372 -0.3428 -1.4089  1.8731
  103OSM    C1310412   3.746   1.968  11.306 -0.3004 -0.4401  0.0901
  103OSM   H13A10413   3.789   1.912  11.388  1.0682  1.3754  0.6725
  103OSM   H13B10414   3.697   2.056  11.346  1.0452  1.4919 -2.2904
  103OSM   H13C10415   3.821   2.001  11.236  0.3962  0.0900  1.0584
  103OSM    C1210416   3.618   1.943  11.100  0.1597 -0.6902  0.2253
  103OSM   H12A10417   3.521   1.909  11.066 -0.0814  0.1361  0.0491
  103OSM   H12B10418   3.700   1.923  11.033 -1.0330  0.3243 -1.6538
  103OSM    C1110419   3.624   2.101  11.089 -0.3298  0.1017  0.4713
  103OSM   H11A10420   3.589   2.138  11.188 -0.2742 -0.5514  0.7390
  103OSM   H11B10421   3.547   2.132  11.015  1.4747 -0.0226 -1.5527
  103OSM      P10422   3.827   2.150  10.926 -0.1596  0.0212  0.1363
  103OSM    O1310423   3.873   2.288  10.904  0.1888 -0.0591 -0.6223
  103OSM    O1410424   3.933   2.047  10.929 -0.1688 -0.1435  0.2231
  103OSM    O1110425   3.715   2.113  10.820 -0.1580  0.0344  0.0312
  103OSM    O1210426   3.757   2.142  11.065 -0.1403  0.0601  0.2174
  103OSM    C1S10427   3.632   2.203  10.748 -0.0734  0.2550 -0.6981
  103OSM    H1S10428   3.608   2.285  10.819  1.4486 -1.8074  2.4720
  103OSM    H1T10429   3.534   2.152  10.742  0.6093 -1.3595  0.8041
  103OSM     NF10430   3.613   2.335  10.537  1.2442  0.3226 -0.1602
  103OSM    HNF10431   3.551   2.293  10.471  1.1218  0.2382  0.0070
  103OSM    C2S10432   3.696   2.246  10.612  0.1351  0.4887  0.2605
  103OSM    H2S10433   3.782   2.309  10.644  0.5935  0.1233 -0.2299
  103OSM    C3S10434   3.743   2.121  10.527  0.6173 -0.2594 -0.1793
  103OSM    H3S10435   3.653   2.076  10.483  0.2513  1.1944 -0.9789
  103OSM     O310436   3.804   2.022  10.605 -0.6705  0.1596  0.3237
  103OSM    HO310437   3.801   2.042  10.699  2.5422 -1.5965  0.9376
  103OSM    C4S10438   3.826   2.164  10.409 -0.0777 -0.0396  0.5085
  103OSM    H4S10439   3.882   2.258  10.423 -2.9202  2.0330 -0.8787
  103OSM    C5S10440   3.816   2.102  10.291 -0.8121  0.2657 -0.4392
  103OSM    H5S10441   3.759   2.008  10.289  1.3722 -1.3178  2.9115
  103OSM    C6S10442   3.890   2.139  10.170 -0.1856 -0.3307 -0.2781
  103OSM    H6S10443   3.943   2.054  10.123  3.0644  1.5738 -0.3127
  103OSM    H6T10444   3.972   2.212  10.185 -0.0893 -0.1235 -1.7070
  103OSM    C7S10445   3.796   2.213  10.081  0.8158 -0.0679  0.0812
  103OSM    H7S10446   3.765   2.308  10.131  0.0426  1.0127 -2.3048
  103OSM    H7T10447   3.704   2.158  10.053 -1.1613  1.4337  3.0544
  103OSM    C8S10448   3.873   2.255   9.952  0.4715  0.2710 -0.1449
  103OSM    H8S10449   3.928   2.166   9.915  1.6591  0.8755  0.1315
  103OSM    H8T10450   3.943   2.336   9.983  0.8789 -0.6013  1.3313
  103OSM    C9S10451   3.784   2.309   9.836 -0.0543  0.3890 -0.1250
  103OSM    H9S10452   3.727   2.402   9.859  1.5752  1.0145  1.6474
  103OSM    H9T10453   3.714   2.223   9.828  1.0800 -0.3902 -2.3383
  103OSM   C10S10454   3.866   2.311   9.707 -0.3263 -0.3369 -0.4074
  103OSM   H10S10455   3.889   2.211   9.664 -0.4158  0.6575 -2.9074
  103OSM   H10T10456   3.957   2.373   9.717  1.2200 -2.7145  1.2149
  103OSM   C11S10457   3.784   2.383   9.595  0.6833  0.0137  0.2276
  103OSM   H11S10458   3.736   2.480   9.622 -0.4578 -0.9050  1.6613
  103OSM   H11T10459   3.693   2.321   9.581  0.7952  0.2575 -1.9216
  103OSM   C12S10460   3.860   2.396   9.460  1.1546 -0.6751 -0.2637
  103OSM   H12S10461   3.895   2.297   9.424  0.8952 -0.2720 -1.6829
  103OSM   H12T10462   3.939   2.472   9.479 -0.5589  0.8853  0.9226
  103OSM   C13S10463   3.787   2.445   9.331  0.6292 -0.3138 -0.0020
  103OSM   H13S10464   3.756   2.551   9.335 -0.7591 -0.6420 -0.9938
  103OSM   H13T10465   3.695   2.383   9.324  0.6454 -0.1718 -3.7724
  103OSM   C14S10466   3.874   2.428   9.211  0.5792  0.2485  0.7798
  103OSM   H14S10467   3.912   2.325   9.192 -1.3883 -0.3527 -0.1816
  103OSM   H14T10468   3.966   2.489   9.225  0.3348  0.2219  2.8643
  103OSM   C15S10469   3.794   2.473   9.083 -0.1545  0.2750 -0.3922
  103OSM   H15S10470   3.753   2.575   9.098 -0.9070 -0.0325 -0.3243
  103OSM   H15T10471   3.702   2.410   9.083  0.2497 -0.3241 -0.2796
  103OSM   C16S10472   3.879   2.481   8.958 -0.1035  0.2283  0.3467
  103OSM   H16S10473   3.899   2.375   8.931 -0.8577 -0.3291  1.8938
  103OSM   H16T10474   3.972   2.536   8.986 -0.2877  1.1933 -0.8392
  103OSM   C17S10475   3.804   2.545   8.835  0.2360 -0.8284 -0.6445
  103OSM   H17S10476   3.770   2.648   8.857 -0.5219 -1.3019  0.5097
  103OSM   H17T10477   3.711   2.486   8.821  0.3797 -0.9132 -1.2673
  103OSM   C18S10478   3.879   2.543   8.700 -0.7613  0.2840  0.2613
  103OSM   H18S10479   3.828   2.591   8.614  0.3064 -0.1433 -0.6328
  103OSM   H18T10480   3.888   2.439   8.661 -0.2633  0.2244  0.5299
  103OSM   H18U10481   3.979   2.592   8.699 -0.2883 -0.5948  1.6169
  103OSM    C1F10482   3.589   2.464  10.570  0.7943 -1.4538 -0.3814
  103OSM     OF10483   3.658   2.531  10.645  0.1355 -0.8365 -0.5455
  103OSM    C2F10484   3.462   2.540  10.510  0.0473  1.3661 -0.4699
  103OSM    H2F10485   3.382   2.547  10.587  0.4229 -1.5786  0.3132
  103OSM    H2G10486   3.430   2.483  10.420 -0.3225 -0.1689  0.5963
  103OSM    C3F10487   3.487   2.691  10.471 -0.9040 -0.1009  0.1297
  103OSM    H3F10488   3.520   2.757  10.554 -0.8686 -0.8100  0.6890
  103OSM    H3G10489   3.402   2.732  10.413 -3.2178 -2.6394  1.4888
  103OSM    C4F10490   3.611   2.698  10.379 -0.3098  0.1395  0.0488
  103OSM    H4F10491   3.689   2.622  10.401 -0.2603 -0.4495 -1.9862
  103OSM    H4G10492   3.647   2.803  10.383 -2.0385  0.7285  1.5475
  103OSM    C5F10493   3.558   2.659  10.238  0.5213 -0.2365  0.4043
  103OSM    H5F10494   3.472   2.728  10.227  0.8933  0.1780  0.0307
  103OSM    H5G10495   3.529   2.552  10.237 -1.5540  0.2630 -1.5730
  103OSM    C6F10496   3.646   2.696  10.116  0.0310  0.2200 -0.3907
  103OSM    H6F10497   3.747   2.652  10.128  0.0094  0.7314  2.3484
  103OSM    H6G10498   3.660   2.806  10.116 -1.1605  0.3930 -1.0681
  103OSM    C7F10499   3.570   2.653   9.990 -0.2115 -0.0558  0.1885
  103OSM    H7F10500   3.473   2.705  10.003  0.9612  1.9379  1.6429
  103OSM    H7G10501   3.561   2.543   9.994  2.9342 -0.3984  0.2687
  103OSM    C8F10502   3.647   2.700   9.862 -0.8444 -0.0114  0.5809
  103OSM    H8F10503   3.614   2.640   9.775  0.2157  0.4776 -0.1814
  103OSM    H8G10504   3.757   2.689   9.872 -0.8609 -0.1427  0.6194
  103OSM    C9F10505   3.620   2.844   9.833 -0.1641 -0.4295 -0.8410
  103OSM    H9F10506   3.627   2.918   9.913  2.5287  0.6446 -1.9691
  103OSM   C10F10507   3.559   2.883   9.722  0.2556 -0.0448  0.3509
  103OSM   H10F10508   3.538   2.991   9.714 -0.2515 -0.0853  0.9796
  103OSM   C11F10509   3.506   2.800   9.606 -0.8448  0.5050 -0.2495
  103OSM   H11F10510   3.396   2.785   9.613 -0.5389 -1.4338  1.0496
  103OSM   H11G10511   3.546   2.697   9.609 -1.6323  0.1262 -1.9007
  103OSM   C12F10512   3.533   2.850   9.463  0.3237 -0.2179  0.3295
  103OSM   H12F10513   3.644   2.857   9.455  0.4431  0.5437  2.2302
  103OSM   H12G10514   3.488   2.950   9.442 -0.1201 -0.6954 -1.1408
  103OSM   C13F10515   3.482   2.754   9.355  0.3909 -0.0415 -0.1681
  103OSM   H13F10516   3.534   2.655   9.355  0.9728  0.2544  0.3211
  103OSM   H13G10517   3.378   2.720   9.376  0.2748  0.4477  0.0569
  103OSM   C14F10518   3.496   2.793   9.207  0.1767  0.2462  0.0661
  103OSM   H14F10519   3.604   2.789   9.181 -0.1594  1.1259 -1.6339
  103OSM   H14G10520   3.454   2.895   9.194 -0.2860 -0.1056 -1.4752
  103OSM   C15F10521   3.414   2.694   9.116 -0.2646 -0.2272 -0.1352
  103OSM   H15F10522   3.306   2.690   9.142 -0.3016 -0.2196 -0.2827
  103OSM   H15G10523   3.451   2.594   9.145 -2.4372 -1.1947 -0.5450
  103OSM   C16F10524   3.426   2.705   8.962  0.2203  0.1527 -0.3508
  103OSM   H16F10525   3.534   2.700   8.939  0.7763  3.6867  0.8322
  103OSM   H16G10526   3.393   2.809   8.941  1.0735  0.3995 -0.5156
  103OSM   C17F10527   3.337   2.604   8.879  1.0226 -0.2414 -0.6613
  103OSM   H17F10528   3.231   2.624   8.906  1.7370 -0.0331  2.3864
  103OSM   H17G10529   3.370   2.502   8.910 -0.5252 -0.3544  0.7462
  103OSM   C18F10530   3.335   2.628   8.729  0.0540 -0.3925 -1.1295
  103OSM   H18F10531   3.339   2.734   8.696  1.9364 -0.0663  0.0209
  103OSM   H18G10532   3.245   2.579   8.684 -0.5855 -0.2330 -0.0491
  103OSM   H18H10533   3.425   2.584   8.682  0.5635 -2.4505  1.5169
  104OSM      N10534   0.956   2.696  10.812 -0.1872 -0.7218 -0.1785
  104OSM    C1510535   0.987   2.821  10.741 -0.0114 -0.6635  0.2747
  104OSM   H15A10536   1.062   2.886  10.783  0.5410 -0.9063 -0.3235
  104OSM   H15B10537   0.894   2.866  10.707  0.6021 -0.2792 -0.9436
  104OSM   H15C10538   1.023   2.788  10.645 -0.0401 -1.0217  0.3875
  104OSM    C1410539   0.886   2.736  10.937  0.0195  0.3565 -0.0025
  104OSM   H14A10540   0.856   2.645  10.987  0.4772 -0.8405 -1.8145
  104OSM   H14B10541   0.799   2.799  10.921  0.7622  1.3739 -0.1571
  104OSM   H14C10542   0.952   2.785  11.007  0.7279 -2.1530  1.1670
  104OSM    C1310543   0.864   2.615  10.731 -0.0289  0.1080  0.1784
  104OSM   H13A10544   0.902   2.592  10.632 -0.8355 -2.0407  0.3138
  104OSM   H13B10545   0.769   2.664  10.718  0.1556  0.7007  0.9803
  104OSM   H13C10546   0.851   2.520  10.780  1.7138 -0.6365 -0.7168
  104OSM    C1210547   1.086   2.620  10.838  0.1806 -0.5193 -0.4137
  104OSM   H12A10548   1.075   2.532  10.900  1.9938 -0.6289 -0.1881
  104OSM   H12B10549   1.147   2.679  10.904 -0.0777 -2.0992  1.3492
  104OSM    C1110550   1.180   2.577  10.721 -0.2109  0.2570  0.1442
  104OSM   H11A10551   1.269   2.539  10.775  0.8235  0.0400 -1.6518
  104OSM   H11B10552   1.215   2.664  10.661 -0.8698  1.6243  1.6625
  104OSM      P10553   1.090   2.337  10.698  0.1957  0.0778  0.1316
  104OSM    O1310554   1.196   2.238  10.658 -0.2290  0.0300 -0.0109
  104OSM    O1410555   1.063   2.346  10.846 -0.0910 -0.7016 -0.4032
  104OSM    O1110556   0.960   2.299  10.629 -0.1522 -0.3749 -0.1770
  104OSM    O1210557   1.133   2.480  10.631  0.5728  0.3148 -0.0208
  104OSM    C1S10558   0.913   2.334  10.500 -0.0102 -0.4581  1.2772
  104OSM    H1S10559   0.917   2.443  10.482 -3.4964 -0.4730 -0.4585
  104OSM    H1T10560   0.806   2.306  10.490 -0.2873  0.8836  0.2718
  104OSM     NF10561   0.952   2.300  10.258  0.3460  0.7173  0.1593
  104OSM    HNF10562   0.864   2.266  10.226  1.8681 -0.8051 -2.8426
  104OSM    C2S10563   0.993   2.257  10.388 -0.7622 -0.0174 -0.1824
  104OSM    H2S10564   1.094   2.298  10.412 -1.2957  1.2679 -0.0326
  104OSM    C3S10565   0.982   2.105  10.403  0.3059  0.5494 -0.1106
  104OSM    H3S10566   0.875   2.084  10.383  0.9640 -1.1329 -2.1810
  104OSM     O310567   1.017   2.051  10.531 -0.7520 -0.3935  1.0278
  104OSM    HO310568   1.025   2.130  10.585 -2.1344  0.9578 -0.6540
  104OSM    C4S10569   1.060   2.034  10.290 -0.6008  0.1222 -0.0645
  104OSM    H4S10570   1.027   2.061  10.189 -1.9931  2.3909  0.9014
  104OSM    C5S10571   1.165   1.949  10.304  0.0624  0.1964 -0.6583
  104OSM    H5S10572   1.194   1.926  10.407 -0.2873  0.1852 -0.5623
  104OSM    C6S10573   1.240   1.884  10.195 -0.6381  0.6021 -0.2596
  104OSM    H6S10574   1.265   1.781  10.228  0.1220  0.0379 -2.4178
  104OSM    H6T10575   1.335   1.941  10.186 -1.2997  2.0479  1.3632
  104OSM    C7S10576   1.165   1.882  10.059 -0.1817  0.3879 -0.2599
  104OSM    H7S10577   1.154   1.981  10.009 -1.2436  1.2167  1.4962
  104OSM    H7T10578   1.060   1.848  10.071  0.2131 -0.2756  1.7613
  104OSM    C8S10579   1.221   1.790   9.952  0.6460 -0.1937 -0.1303
  104OSM    H8S10580   1.231   1.683   9.982  0.4442  0.1269  1.1395
  104OSM    H8T10581   1.326   1.816   9.928  0.8061 -2.0688 -1.7487
  104OSM    C9S10582   1.145   1.804   9.820 -0.0094  0.1293  0.3504
  104OSM    H9S10583   1.150   1.910   9.785 -2.9695  1.0549  2.3140
  104OSM    H9T10584   1.035   1.787   9.825 -0.3853  2.5266  1.8848
  104OSM   C10S10585   1.208   1.708   9.709 -0.7976 -0.4077  0.3786
  104OSM   H10S10586   1.178   1.604   9.734 -1.7797 -0.0424  0.7841
  104OSM   H10T10587   1.318   1.710   9.721 -0.2070 -4.3675 -2.2805
  104OSM   C11S10588   1.180   1.750   9.566  0.0615 -0.1117  0.6788
  104OSM   H11S10589   1.221   1.852   9.547 -1.0908  0.6334  2.0084
  104OSM   H11T10590   1.070   1.762   9.557  0.1971  0.1052 -0.9226
  104OSM   C12S10591   1.232   1.656   9.461  0.1161  0.4447 -0.3787
  104OSM   H12S10592   1.232   1.552   9.502 -0.3221  0.1624 -1.0671
  104OSM   H12T10593   1.336   1.676   9.430  1.9318 -3.7252  2.0777
  104OSM   C13S10594   1.146   1.644   9.338 -0.8898  0.4164  0.2406
  104OSM   H13S10595   1.127   1.741   9.287 -1.9068 -0.4217 -1.0330
  104OSM   H13T10596   1.046   1.611   9.373  0.1227 -1.9003  1.1262
  104OSM   C14S10597   1.193   1.539   9.240 -0.6442  0.2596  0.1531
  104OSM   H14S10598   1.121   1.540   9.155  1.3828  0.6980 -1.6580
  104OSM   H14T10599   1.194   1.440   9.291  1.0832  0.3418  0.3382
  104OSM   C15S10600   1.323   1.569   9.185 -0.8717  0.4204 -0.6899
  104OSM   H15S10601   1.408   1.544   9.253  0.7208  1.3080 -2.2958
  104OSM   H15T10602   1.315   1.679   9.186 -0.0707  0.4980  0.8123
  104OSM   C16S10603   1.352   1.490   9.057 -0.6022  0.4649 -0.9146
  104OSM   H16S10604   1.457   1.515   9.028 -0.2362  0.3826  0.2924
  104OSM   H16T10605   1.291   1.533   8.975 -2.4512 -1.7933 -0.8040
  104OSM   C17S10606   1.327   1.340   9.072 -0.7435  0.0295 -0.3408
  104OSM   H17S10607   1.220   1.312   9.079 -0.7745  0.1821 -0.1961
  104OSM   H17T10608   1.379   1.308   9.165 -0.6152  1.2253  0.0256
  104OSM   C18S10609   1.377   1.250   8.953 -0.6433  0.5595  0.0616
  104OSM   H18S10610   1.488   1.260   8.946 -0.1840 -2.5988  1.2566
  104OSM   H18T10611   1.329   1.280   8.857 -0.2125  0.9533 -0.0352
  104OSM   H18U10612   1.342   1.150   8.986 -1.9860  0.9244 -0.1952
  104OSM    C1F10613   0.993   2.415  10.212 -0.6781 -0.1138  0.1756
  104OSM     OF10614   1.073   2.486  10.279  0.4830  0.2434  0.3300
  104OSM    C2F10615   0.922   2.461  10.093 -0.6262 -0.2670  0.2292
  104OSM    H2F10616   0.820   2.462  10.137 -0.3454 -1.2903  0.9284
  104OSM    H2G10617   0.924   2.388  10.010 -1.4384  0.9628 -0.9297
  104OSM    C3F10618   0.982   2.594  10.029  0.0013  0.9147  0.2088
  104OSM    H3F10619   1.086   2.579   9.994 -0.0319 -1.1524  0.8661
  104OSM    H3G10620   0.977   2.675  10.106  0.9678  0.6636  0.5486
  104OSM    C4F10621   0.903   2.651   9.905 -0.1496  0.0102 -0.5707
  104OSM    H4F10622   0.923   2.760   9.897 -1.1860  0.2539 -0.0364
  104OSM    H4G10623   0.793   2.642   9.922 -0.3190 -0.4480 -1.7335
  104OSM    C5F10624   0.954   2.587   9.776 -0.9510  0.0544 -0.4571
  104OSM    H5F10625   0.941   2.477   9.782 -0.1884 -0.0409 -0.3940
  104OSM    H5G10626   1.064   2.607   9.772 -0.8522 -0.2271  0.6437
  104OSM    C6F10627   0.874   2.637   9.651 -0.3473  0.4807  0.6766
  104OSM    H6F10628   0.873   2.747   9.659 -0.8800  0.4675  0.8154
  104OSM    H6G10629   0.772   2.599   9.675 -1.3754  1.4958 -1.7692
  104OSM    C7F10630   0.919   2.585   9.512  0.1610 -0.2219  0.6956
  104OSM    H7F10631   0.925   2.474   9.504  1.1689 -0.1225 -0.0393
  104OSM    H7G10632   1.020   2.626   9.493 -0.2179  0.3758 -0.1006
  104OSM    C8F10633   0.835   2.634   9.397 -0.1475 -0.8724  0.4555
  104OSM    H8F10634   0.895   2.631   9.303 -0.0509  1.8864  0.3318
  104OSM    H8G10635   0.824   2.745   9.407 -0.5298 -0.7747 -0.9084
  104OSM    C9F10636   0.701   2.573   9.363 -0.8704  0.8837  0.1616
  104OSM    H9F10637   0.613   2.617   9.411 -0.4679  2.1755 -0.2284
  104OSM   C10F10638   0.688   2.471   9.277  0.0702  0.3588  0.6701
  104OSM   H10F10639   0.589   2.426   9.261 -0.5441  2.1482 -1.0498
  104OSM   C11F10640   0.801   2.409   9.195  0.3558  0.0967 -0.4869
  104OSM   H11F10641   0.793   2.300   9.175 -0.2206  0.0300  0.0820
  104OSM   H11G10642   0.893   2.410   9.257  1.1850 -1.3266 -1.6449
  104OSM   C12F10643   0.816   2.481   9.060 -0.4532 -0.0220  0.4677
  104OSM   H12F10644   0.916   2.448   9.025  0.9771  0.1306  4.0321
  104OSM   H12G10645   0.807   2.591   9.055 -0.6946 -0.0401  0.4880
  104OSM   C13F10646   0.715   2.428   8.958  0.4043  0.5686  0.4514
  104OSM   H13F10647   0.613   2.470   8.970  1.0094  2.8612 -1.5066
  104OSM   H13G10648   0.705   2.322   8.988 -1.1726  0.1096 -1.4401
  104OSM   C14F10649   0.763   2.446   8.818 -0.4726 -0.0031 -0.1413
  104OSM   H14F10650   0.709   2.387   8.741 -2.2130  0.6817  0.5097
  104OSM   H14G10651   0.871   2.424   8.804 -0.4228  0.3736 -0.3741
  104OSM   C15F10652   0.725   2.584   8.762  0.0120 -0.2239  0.4540
  104OSM   H15F10653   0.802   2.651   8.805 -0.0905  0.1263  0.1010
  104OSM   H15G10654   0.626   2.620   8.798 -0.9394 -0.3495 -1.8382
  104OSM   C16F10655   0.730   2.591   8.609  0.6384 -0.2642 -0.1995
  104OSM   H16F10656   0.666   2.675   8.574 -1.7325 -2.4798 -1.5382
  104OSM   H16G10657   0.669   2.505   8.574  0.3399 -0.1143 -0.0566
  104OSM   C17F10658   0.869   2.609   8.544  0.6702  0.0313  0.5990
  104OSM   H17F10659   0.932   2.520   8.565  2.8094  0.8437 -1.8649
  104OSM   H17G10660   0.908   2.702   8.590 -1.9493  2.1384 -1.1069
  104OSM   C18F10661   0.876   2.609   8.393 -0.1535  0.3918 -0.2661
  104OSM   H18F10662   0.809   2.688   8.353 -0.2664  0.1688 -0.5275
  104OSM   H18G10663   0.847   2.515   8.341  2.3406 -1.0086  0.7115
  104OSM   H18H10664   0.975   2.631   8.348  1.1678 -1.3969  1.6145
  105OSM      N10665   1.271   1.844  10.757  0.0214 -0.2423 -0.0875
  105OSM    C1510666   1.331   1.746  10.858 -0.2129  0.0482  0.0580
  105OSM   H15A10667   1.437   1.766  10.865 -0.3957  1.2053 -0.1829
  105OSM   H15B10668   1.305   1.648  10.822  0.8281 -0.1494 -0.1887
  105OSM   H15C10669   1.290   1.761  10.957 -0.8620  0.7952 -0.3002
  105OSM    C1410670   1.260   1.975  10.828  0.4820 -0.3690 -0.8634
  105OSM   H14A10671   1.238   2.054  10.757  1.1230  0.3324 -0.2969
  105OSM   H14B10672   1.351   2.003  10.878 -0.1785  0.9285 -0.3257
  105OSM   H14C10673   1.178   1.981  10.898  1.8466 -0.7555  0.8173
  105OSM    C1310674   1.373   1.859  10.645  0.4493 -0.3897  0.6617
  105OSM   H13A10675   1.415   1.770  10.600  1.9988  0.6377  0.0087
  105OSM   H13B10676   1.462   1.902  10.689  1.0204  0.3767 -1.1468
  105OSM   H13C10677   1.334   1.920  10.565  1.5241  0.1345  0.5298
  105OSM    C1210678   1.133   1.799  10.707  0.2231  0.2818 -0.2215
  105OSM   H12A10679   1.076   1.868  10.646 -0.9265  0.8566  1.4485
  105OSM   H12B10680   1.077   1.785  10.798  1.9006  0.2362  0.8294
  105OSM    C1110681   1.120   1.666  10.628  0.4279 -0.2913 -0.2990
  105OSM   H11A10682   1.174   1.677  10.532 -1.3782 -0.5163 -1.3989
  105OSM   H11B10683   1.012   1.650  10.607  0.6695 -0.2601 -1.6773
  105OSM      P10684   1.146   1.402  10.642 -0.0453 -0.2816 -0.2681
  105OSM    O1310685   1.185   1.311  10.751  0.5486 -0.3419 -0.2281
  105OSM    O1410686   1.004   1.399  10.598 -0.0097 -0.0738 -0.2557
  105OSM    O1110687   1.245   1.398  10.521  0.2036  0.4203 -0.6461
  105OSM    O1210688   1.162   1.548  10.708  0.1442  0.0832  0.8797
  105OSM    C1S10689   1.375   1.448  10.547  0.4304 -0.2174  0.0792
  105OSM    H1S10690   1.430   1.384  10.620 -0.5764  1.0234  1.9902
  105OSM    H1T10691   1.361   1.551  10.585  0.5274 -0.1773  0.0052
  105OSM     NF10692   1.602   1.479  10.449 -0.1394  0.1981 -0.1519
  105OSM    HNF10693   1.634   1.567  10.415 -1.1003  0.0579 -1.4823
  105OSM    C2S10694   1.468   1.444  10.416 -0.0344  0.2530 -0.0802
  105OSM    H2S10695   1.465   1.345  10.366  1.8750  0.6810 -1.1449
  105OSM    C3S10696   1.402   1.536  10.305 -0.0654  0.4270  0.4649
  105OSM    H3S10697   1.385   1.634  10.354 -3.1240  0.1033  0.2953
  105OSM     O310698   1.265   1.512  10.271  0.0695  0.0126 -0.2385
  105OSM    HO310699   1.224   1.459  10.340 -1.4757  2.4564  0.8257
  105OSM    C4S10700   1.477   1.552  10.176 -0.1586  0.7018  0.0102
  105OSM    H4S10701   1.478   1.457  10.119 -1.2434  1.2201 -0.9109
  105OSM    C5S10702   1.534   1.659  10.112 -0.8665  0.0752  0.1123
  105OSM    H5S10703   1.529   1.757  10.161 -2.3367  0.1172 -0.0606
  105OSM    C6S10704   1.593   1.656   9.968  0.0909  0.1581 -0.2334
  105OSM    H6S10705   1.703   1.649   9.975 -0.0574 -1.7309  0.9147
  105OSM    H6T10706   1.571   1.753   9.919  3.4099 -0.5862 -3.6614
  105OSM    C7S10707   1.529   1.547   9.877  0.2917 -0.7203  0.2320
  105OSM    H7S10708   1.419   1.534   9.883  0.1637 -0.1372 -0.6874
  105OSM    H7T10709   1.568   1.446   9.900 -0.6139 -1.7526 -2.4265
  105OSM    C8S10710   1.576   1.552   9.728 -0.5997 -0.1870 -0.1905
  105OSM    H8S10711   1.686   1.557   9.721 -0.6798  0.0025 -1.4332
  105OSM    H8T10712   1.522   1.638   9.682 -2.5101 -1.0740  0.2806
  105OSM    C9S10713   1.527   1.430   9.652 -0.0894 -0.7415  0.2349
  105OSM    H9S10714   1.416   1.434   9.641 -0.0641  1.2960  0.3120
  105OSM    H9T10715   1.555   1.342   9.712 -0.4072 -0.5608  0.6504
  105OSM   C10S10716   1.576   1.405   9.507  0.0878 -0.3683 -0.6100
  105OSM   H10S10717   1.681   1.375   9.524  0.1264 -0.2229 -0.5871
  105OSM   H10T10718   1.578   1.502   9.451  0.3409 -1.3064 -2.3115
  105OSM   C11S10719   1.497   1.307   9.430  0.4407  0.1963  0.1233
  105OSM   H11S10720   1.529   1.299   9.324 -3.9175 -1.4609 -1.2727
  105OSM   H11T10721   1.389   1.333   9.424  0.3405 -0.2264  0.1219
  105OSM   C12S10722   1.498   1.171   9.497  0.2626 -0.2923 -0.0269
  105OSM   H12S10723   1.452   1.190   9.596  1.5672  0.3320  0.4823
  105OSM   H12T10724   1.604   1.140   9.506  0.8330  0.4327 -3.1218
  105OSM   C13S10725   1.422   1.065   9.427 -0.3021 -0.5507 -0.2888
  105OSM   H13S10726   1.322   1.104   9.398  0.3263  0.6085 -0.9731
  105OSM   H13T10727   1.400   0.987   9.503  0.8153 -2.1580 -1.5201
  105OSM   C14S10728   1.493   1.010   9.303 -0.6104 -0.0114  0.4646
  105OSM   H14S10729   1.601   0.994   9.320 -0.3196  1.2227 -0.0572
  105OSM   H14T10730   1.487   1.076   9.214  1.9901 -0.4040 -0.0742
  105OSM   C15S10731   1.432   0.876   9.247  0.9890  0.0241  0.1661
  105OSM   H15S10732   1.332   0.903   9.204  0.2256 -0.6402  1.4719
  105OSM   H15T10733   1.407   0.798   9.322  1.1659 -3.9918 -3.5425
  105OSM   C16S10734   1.521   0.815   9.135 -0.1784 -0.1361 -0.1485
  105OSM   H16S10735   1.497   0.712   9.100  1.5354 -0.5495 -0.2020
  105OSM   H16T10736   1.621   0.801   9.183 -0.3055 -0.4473  0.0238
  105OSM   C17S10737   1.547   0.898   9.013  0.1719  0.1834  0.5160
  105OSM   H17S10738   1.591   0.999   9.028  1.2896  0.7481 -4.6893
  105OSM   H17T10739   1.448   0.909   8.965 -0.0187  2.8157  1.3307
  105OSM   C18S10740   1.647   0.831   8.911 -0.0384  0.5233  0.6449
  105OSM   H18S10741   1.635   0.722   8.892  1.6420  0.4624 -0.2461
  105OSM   H18T10742   1.745   0.837   8.963  0.0021  0.6974  0.5487
  105OSM   H18U10743   1.662   0.885   8.815 -3.6366  0.0158 -0.3675
  105OSM    C1F10744   1.688   1.399  10.507  0.4011  0.5284  0.0215
  105OSM     OF10745   1.655   1.287  10.550 -0.3557 -0.6303  0.0230
  105OSM    C2F10746   1.823   1.454  10.522 -0.4713  0.9173 -0.2438
  105OSM    H2F10747   1.860   1.402  10.613 -0.6576  0.1005 -0.6258
  105OSM    H2G10748   1.818   1.558  10.559  1.6766  0.9431  0.1429
  105OSM    C3F10749   1.926   1.450  10.409  0.0539  0.2853  0.2009
  105OSM    H3F10750   1.941   1.350  10.362  1.9442 -0.1045  1.5105
  105OSM    H3G10751   2.025   1.480  10.447 -0.0923 -1.5757  2.2933
  105OSM    C4F10752   1.887   1.542  10.284  0.2531 -0.1513 -0.3558
  105OSM    H4F10753   1.848   1.642  10.315  1.3843  0.1655  0.0956
  105OSM    H4G10754   1.812   1.486  10.225  1.3035 -0.5746 -1.3277
  105OSM    C5F10755   1.998   1.572  10.180  0.3009  0.4054 -0.0720
  105OSM    H5F10756   2.081   1.597  10.250 -0.3273 -0.5054  1.0465
  105OSM    H5G10757   1.969   1.659  10.117 -1.7331 -0.1520  0.0209
  105OSM    C6F10758   2.025   1.451  10.084  0.2524  0.1765 -0.3677
  105OSM    H6F10759   1.931   1.397  10.059 -0.2254  1.3057 -1.1396
  105OSM    H6G10760   2.086   1.391  10.155 -1.6090 -1.3194  0.0468
  105OSM    C7F10761   2.115   1.492   9.974  0.1530 -0.5684  1.0726
  105OSM    H7F10762   2.165   1.412   9.916 -2.0683 -0.1134 -1.6589
  105OSM    H7G10763   2.199   1.556  10.011 -0.0215  0.4215 -0.1734
  105OSM    C8F10764   2.033   1.563   9.859  0.0279  0.3050 -0.2327
  105OSM    H8F10765   1.969   1.643   9.902  0.3876  0.0352  0.8469
  105OSM    H8G10766   1.953   1.491   9.830 -0.7336  1.3146 -0.6724
  105OSM    C9F10767   2.111   1.629   9.748 -0.8406  0.2754 -0.1923
  105OSM    H9F10768   2.178   1.707   9.787  0.0083 -0.6508  0.2426
  105OSM   C10F10769   2.097   1.619   9.618  1.0602 -0.3912  0.0299
  105OSM   H10F10770   2.172   1.658   9.549  0.6896 -0.7200 -0.5704
  105OSM   C11F10771   1.992   1.533   9.545  0.4410 -0.1065  0.1371
  105OSM   H11F10772   1.929   1.607   9.491  1.7258  1.5528  0.8249
  105OSM   H11G10773   1.935   1.474   9.619  1.4037 -1.8639 -0.4721
  105OSM   C12F10774   2.061   1.439   9.445  0.5708 -0.3096 -0.8305
  105OSM   H12F10775   2.114   1.366   9.510  1.3871  1.1284  0.2116
  105OSM   H12G10776   2.127   1.499   9.378  1.3262  1.0613  1.0273
  105OSM   C13F10777   1.961   1.355   9.371 -0.2215  0.1823 -0.2968
  105OSM   H13F10778   1.890   1.316   9.447  0.7234  1.0184  1.0690
  105OSM   H13G10779   2.007   1.265   9.325 -2.0368  0.1084 -2.0642
  105OSM   C14F10780   1.892   1.437   9.259 -0.6949 -0.2917  0.0497
  105OSM   H14F10781   1.965   1.495   9.198 -0.8670 -0.2055 -0.0739
  105OSM   H14G10782   1.817   1.498   9.315 -1.6599 -2.2887  1.0230
  105OSM   C15F10783   1.824   1.345   9.161 -0.1189 -0.2572  0.2341
  105OSM   H15F10784   1.745   1.401   9.107  1.3176  0.8159 -0.8112
  105OSM   H15G10785   1.779   1.262   9.219 -1.3951  0.3437  0.1331
  105OSM   C16F10786   1.916   1.280   9.049  0.1905 -0.3120  0.2470
  105OSM   H16F10787   1.982   1.206   9.099 -0.8545  0.3136  2.6855
  105OSM   H16G10788   1.966   1.362   8.994  0.3772  1.0675  2.3927
  105OSM   C17F10789   1.829   1.206   8.939 -1.2506 -0.5496 -0.5215
  105OSM   H17F10790   1.768   1.290   8.899  0.4463  0.7783 -0.4416
  105OSM   H17G10791   1.763   1.132   8.989 -1.5066  0.6423  0.9441
  105OSM   C18F10792   1.907   1.137   8.826 -0.4490  0.1947  0.3759
  105OSM   H18F10793   1.985   1.199   8.778 -0.2527  0.0267  0.4778
  105OSM   H18G10794   1.829   1.117   8.749 -1.6908 -1.2742  1.9386
  105OSM   H18H10795   1.955   1.043   8.859  2.2384  1.7392  1.1549
  106OSM      N10796   2.751   5.618  10.648  0.2442 -1.1133 -1.1779
  106OSM    C1510797   2.835   5.541  10.745  0.3675 -0.6328 -0.0932
  106OSM   H15A10798   2.820   5.435  10.736  1.6264 -0.7094 -1.8113
  106OSM   H15B10799   2.818   5.573  10.847  0.1262  1.5309 -0.7561
  106OSM   H15C10800   2.940   5.565  10.740  0.2138  0.9484  2.4766
  106OSM    C1410801   2.723   5.756  10.711  0.1495  0.0234  0.6294
  106OSM   H14A10802   2.812   5.796  10.758  0.5862 -2.3331  1.9203
  106OSM   H14B10803   2.653   5.741  10.792  0.3347 -0.8639  0.6345
  106OSM   H14C10804   2.688   5.828  10.638  1.6548  0.5468  0.3862
  106OSM    C1310805   2.832   5.633  10.524 -0.0001  0.1202 -0.1591
  106OSM   H13A10806   2.917   5.698  10.541  0.4984 -0.5638 -0.0059
  106OSM   H13B10807   2.765   5.677  10.452 -0.5978  1.9517  1.4047
  106OSM   H13C10808   2.867   5.534  10.501 -0.7214 -0.1456 -0.1443
  106OSM    C1210809   2.614   5.542  10.636  0.6857 -0.3280  0.1782
  106OSM   H12A10810   2.629   5.450  10.582  0.9696  0.1246 -0.5216
  106OSM   H12B10811   2.554   5.601  10.568  0.7843  0.6760  0.9450
  106OSM    C1110812   2.526   5.510  10.757 -0.4221  0.2314 -0.2268
  106OSM   H11A10813   2.593   5.461  10.831  1.8630  1.3553 -1.4368
  106OSM   H11B10814   2.453   5.430  10.734  1.4476 -1.4701 -0.6041
  106OSM      P10815   2.333   5.669  10.808  0.0423 -0.1266  0.2669
  106OSM    O1310816   2.259   5.585  10.908  0.0334  0.3401  0.1184
  106OSM    O1410817   2.328   5.818  10.818  0.2760 -0.3032 -0.1564
  106OSM    O1110818   2.300   5.631  10.661  0.3603 -0.2635 -0.3459
  106OSM    O1210819   2.484   5.629  10.820  0.4531 -0.0836  0.3503
  106OSM    C1S10820   2.303   5.718  10.548 -0.4390 -0.5485  0.1777
  106OSM    H1S10821   2.404   5.765  10.546 -0.6869  0.0321  0.8636
  106OSM    H1T10822   2.236   5.807  10.556  0.0374  0.0062 -1.5598
  106OSM     NF10823   2.337   5.711  10.299 -0.4002 -0.5104  0.7390
  106OSM    HNF10824   2.277   5.764  10.240  1.1386  0.1960 -0.2510
  106OSM    C2S10825   2.276   5.637  10.412  0.0604 -0.7122 -0.2519
  106OSM    H2S10826   2.326   5.538  10.414 -0.7693 -1.1380  1.0532
  106OSM    C3S10827   2.123   5.611  10.398 -0.2600 -0.0655  1.0285
  106OSM    H3S10828   2.078   5.710  10.375 -0.9117 -0.8231 -1.3344
  106OSM     O310829   2.064   5.561  10.520  0.0043 -0.8172 -0.2846
  106OSM    HO310830   2.133   5.587  10.582  0.3508 -2.0998 -0.1106
  106OSM    C4S10831   2.094   5.524  10.271  0.8827  0.0597  0.1579
  106OSM    H4S10832   2.112   5.416  10.280  0.1699 -0.0199  0.6425
  106OSM    C5S10833   2.033   5.574  10.164  0.1521  0.5072  0.6484
  106OSM    H5S10834   2.013   5.682  10.157  2.4074  1.0818  1.9122
  106OSM    C6S10835   1.994   5.495  10.045 -0.9234 -0.0126  0.0471
  106OSM    H6S10836   1.884   5.487  10.052 -0.9650  1.5407  1.9542
  106OSM    H6T10837   2.045   5.397  10.030 -2.0715 -0.2692 -2.7048
  106OSM    C7S10838   2.032   5.565   9.915  0.2456 -0.2109  0.0216
  106OSM    H7S10839   2.141   5.586   9.915  0.2649 -0.2394 -1.3246
  106OSM    H7T10840   1.986   5.666   9.916 -0.6841 -0.6057  1.8175
  106OSM    C8S10841   1.994   5.484   9.789  0.0825  0.0306 -0.2191
  106OSM    H8S10842   1.885   5.473   9.809 -0.3145  2.4867 -0.8070
  106OSM    H8T10843   2.038   5.382   9.797 -2.4869 -1.1643 -0.2543
  106OSM    C9S10844   2.004   5.556   9.656  0.6743 -0.0519  0.2933
  106OSM    H9S10845   2.105   5.595   9.631  0.2102 -0.5973 -2.9739
  106OSM    H9T10846   1.935   5.643   9.655 -1.4462 -1.6005 -2.1496
  106OSM   C10S10847   1.967   5.468   9.532  0.1010  0.7925 -0.3011
  106OSM   H10S10848   1.860   5.436   9.539  0.8397 -1.9749 -0.3285
  106OSM   H10T10849   2.039   5.384   9.529  0.2271  0.8594 -4.1727
  106OSM   C11S10850   2.002   5.547   9.408  0.9685 -0.5416  0.3155
  106OSM   H11S10851   2.112   5.562   9.408  1.1349 -1.6733  0.4924
  106OSM   H11T10852   1.949   5.645   9.404  1.4750 -0.3051 -2.0449
  106OSM   C12S10853   1.970   5.465   9.276  0.2747 -0.1485  0.1344
  106OSM   H12S10854   1.859   5.465   9.286  0.3144  0.7592  0.8175
  106OSM   H12T10855   2.010   5.362   9.279 -0.5889 -0.4685  1.0679
  106OSM   C13S10856   1.999   5.539   9.146 -0.3126  0.0392  0.0282
  106OSM   H13S10857   2.107   5.562   9.148 -0.1869 -0.3673 -1.1646
  106OSM   H13T10858   1.956   5.641   9.140  2.5538  1.2331 -2.8505
  106OSM   C14S10859   1.970   5.465   9.012  0.3519 -0.1679  0.1010
  106OSM   H14S10860   2.011   5.363   8.998 -1.0208 -0.7317 -0.0392
  106OSM   H14T10861   1.997   5.536   8.931  1.7726  1.0421  1.5834
  106OSM   C15S10862   1.816   5.437   8.992 -0.8128  0.0323  0.1958
  106OSM   H15S10863   1.743   5.518   9.012 -0.9482  0.3589 -1.5305
  106OSM   H15T10864   1.792   5.346   9.051  0.2513  0.1665  0.8766
  106OSM   C16S10865   1.792   5.401   8.841 -0.5353 -0.4068 -0.7798
  106OSM   H16S10866   1.843   5.305   8.820  0.2895 -0.0798 -0.3238
  106OSM   H16T10867   1.830   5.478   8.772 -0.4185 -0.8388 -1.1976
  106OSM   C17S10868   1.636   5.389   8.815 -0.3495 -1.4040 -0.5057
  106OSM   H17S10869   1.599   5.328   8.900  0.4952 -2.5880 -0.9564
  106OSM   H17T10870   1.624   5.333   8.720 -0.0180 -3.7323  0.7529
  106OSM   C18S10871   1.566   5.522   8.811 -0.2095  0.6120 -0.2279
  106OSM   H18S10872   1.564   5.577   8.907 -0.9193  1.3418 -0.6470
  106OSM   H18T10873   1.458   5.497   8.797 -0.5243  0.0133  2.6631
  106OSM   H18U10874   1.605   5.595   8.738 -0.5704  1.3404  0.3008
  106OSM    C1F10875   2.466   5.721  10.273 -0.4374  0.3667 -0.2471
  106OSM     OF10876   2.548   5.665  10.348 -0.0794  0.1464  0.2613
  106OSM    C2F10877   2.513   5.792  10.151 -0.0187 -0.4596  1.2107
  106OSM    H2F10878   2.623   5.781  10.160 -0.1686 -1.1577  2.3828
  106OSM    H2G10879   2.494   5.901  10.163 -1.7548 -0.5661 -0.1763
  106OSM    C3F10880   2.458   5.722  10.018  0.3373 -0.0818 -0.3242
  106OSM    H3F10881   2.348   5.732  10.012  0.0182 -2.8269 -0.2827
  106OSM    H3G10882   2.474   5.612  10.018 -1.3778 -0.3639 -1.1324
  106OSM    C4F10883   2.518   5.775   9.889 -0.0448  0.6066  0.7843
  106OSM    H4F10884   2.629   5.763   9.890 -0.2776 -2.2231  1.6272
  106OSM    H4G10885   2.489   5.882   9.895  1.5547  1.1445 -0.4495
  106OSM    C5F10886   2.463   5.707   9.765  0.1754 -0.0164  0.8158
  106OSM    H5F10887   2.353   5.720   9.773  0.1002 -0.0485 -0.0551
  106OSM    H5G10888   2.481   5.598   9.776 -0.6545 -0.1932  0.5262
  106OSM    C6F10889   2.511   5.771   9.636  0.4317 -0.7028 -0.0437
  106OSM    H6F10890   2.618   5.742   9.633  0.3387 -1.9417  3.5769
  106OSM    H6G10891   2.509   5.882   9.638  1.1004 -0.6897  0.2844
  106OSM    C7F10892   2.453   5.709   9.506 -0.6656 -0.2840 -1.0045
  106OSM    H7F10893   2.344   5.724   9.517 -0.6361 -1.4297  1.5871
  106OSM    H7G10894   2.499   5.607   9.511 -0.1583 -0.0645 -1.1100
  106OSM    C8F10895   2.495   5.791   9.376  0.1150 -0.1411 -0.3457
  106OSM    H8F10896   2.605   5.806   9.386  0.1236 -1.2472  1.9237
  106OSM    H8G10897   2.448   5.891   9.370 -1.0174 -0.6920 -0.8226
  106OSM    C9F10898   2.438   5.706   9.265 -0.4807 -0.1606  0.6500
  106OSM    H9F10899   2.331   5.722   9.245 -0.4500 -1.1604 -0.4009
  106OSM   C10F10900   2.507   5.629   9.170  0.7702 -0.0558 -0.1750
  106OSM   H10F10901   2.451   5.593   9.082  2.4022  2.0141 -2.1765
  106OSM   C11F10902   2.647   5.601   9.164 -0.0631  0.1832  0.1012
  106OSM   H11F10903   2.663   5.499   9.123 -1.6353  0.1651 -0.5043
  106OSM   H11G10904   2.707   5.608   9.258  1.1145  0.0112 -0.6236
  106OSM   C12F10905   2.725   5.694   9.063  0.4011  0.7813  0.3646
  106OSM   H12F10906   2.826   5.648   9.059  0.1013  0.1404  0.1682
  106OSM   H12G10907   2.728   5.799   9.099 -1.1119  0.9645  0.0291
  106OSM   C13F10908   2.668   5.677   8.924 -0.2343 -0.4277  0.5651
  106OSM   H13F10909   2.563   5.712   8.917 -0.0097  0.0845 -0.3843
  106OSM   H13G10910   2.673   5.571   8.890 -1.1104 -0.4085  0.3648
  106OSM   C14F10911   2.752   5.763   8.806  0.2450 -0.2701 -0.5454
  106OSM   H14F10912   2.847   5.716   8.774  0.9035  1.2991 -0.9911
  106OSM   H14G10913   2.769   5.871   8.827  0.3312 -0.6371  1.4351
  106OSM   C15F10914   2.662   5.765   8.681  0.7611  0.1467 -0.6367
  106OSM   H15F10915   2.552   5.763   8.697  1.0527 -0.4185  1.6305
  106OSM   H15G10916   2.684   5.671   8.626 -2.3971 -0.9342 -0.2407
  106OSM   C16F10917   2.703   5.887   8.586  0.3234 -0.1449  0.4363
  106OSM   H16F10918   2.804   5.862   8.548  0.8643  1.7630  0.5348
  106OSM   H16G10919   2.721   5.972   8.655  1.1232 -0.6781  0.9025
  106OSM   C17F10920   2.605   5.908   8.472 -0.2223 -0.1875  0.8301
  106OSM   H17F10921   2.503   5.891   8.512 -1.4012  0.0034 -1.8886
  106OSM   H17G10922   2.614   5.828   8.396  0.9949  0.1509  0.5849
  106OSM   C18F10923   2.616   6.039   8.400 -0.3092 -0.6202  1.5960
  106OSM   H18F10924   2.527   6.059   8.337  1.1440 -1.9300 -1.0152
  106OSM   H18G10925   2.712   6.067   8.351 -0.3100  0.3128  2.0842
  106OSM   H18H10926   2.621   6.117   8.479  0.5787  3.3178 -1.9962
  107OSM      N10927   2.615   3.541  11.253 -0.8797 -0.2366  0.1058
  107OSM    C1510928   2.518   3.658  11.238 -0.0796 -0.3984 -0.5382
  107OSM   H15A10929   2.433   3.649  11.304  0.3442  0.6629  0.1748
  107OSM   H15B10930   2.480   3.665  11.137 -0.4419 -1.1055 -0.4555
  107OSM   H15C10931   2.568   3.751  11.257  2.6789 -1.2813 -2.7704
  107OSM    C1410932   2.669   3.533  11.392 -0.2892  0.9385 -0.3724
  107OSM   H14A10933   2.592   3.507  11.463  1.6005  0.6069  1.6700
  107OSM   H14B10934   2.728   3.614  11.431  0.6936 -1.0136  2.5089
  107OSM   H14C10935   2.733   3.445  11.390  0.1896  1.2319 -3.6105
  107OSM    C1310936   2.550   3.412  11.220 -0.1102 -0.8641  0.2579
  107OSM   H13A10937   2.527   3.390  11.117 -1.1314 -2.1507  0.7282
  107OSM   H13B10938   2.474   3.380  11.290  0.5217 -2.1297  0.3948
  107OSM   H13C10939   2.619   3.333  11.244  0.0530 -1.5532 -2.2238
  107OSM    C1210940   2.743   3.553  11.163  0.8008 -0.5532 -0.1379
  107OSM   H12A10941   2.809   3.471  11.189  0.0465 -0.6111  1.8090
  107OSM   H12B10942   2.787   3.646  11.195  0.5729 -0.4764 -0.0427
  107OSM    C1110943   2.717   3.551  11.005 -0.0193 -0.2382 -0.2387
  107OSM   H11A10944   2.665   3.455  10.985  2.5283 -1.4473 -1.5616
  107OSM   H11B10945   2.813   3.556  10.950  2.3709 -0.4506  3.5119
  107OSM      P10946   2.670   3.793  10.904  0.1349  0.2819 -0.0222
  107OSM    O1310947   2.556   3.889  10.897 -0.0602  1.0738  0.0447
  107OSM    O1410948   2.795   3.841  10.969  0.7637  0.3477 -0.2197
  107OSM    O1110949   2.689   3.748  10.752 -0.3054  0.3712 -0.4248
  107OSM    O1210950   2.625   3.656  10.968 -0.0454 -0.2028 -0.0166
  107OSM    C1S10951   2.608   3.646  10.700 -0.5501 -0.8398 -0.3995
  107OSM    H1S10952   2.508   3.686  10.673  0.4041  2.1241  0.1114
  107OSM    H1T10953   2.609   3.560  10.771 -0.0737  1.0185  1.9775
  107OSM     NF10954   2.559   3.502  10.497 -0.2551  0.1476 -0.2235
  107OSM    HNF10955   2.571   3.403  10.499 -2.0601 -0.2539 -3.3238
  107OSM    C2S10956   2.662   3.587  10.558 -0.4443 -0.2951 -0.3573
  107OSM    H2S10957   2.676   3.679  10.497 -0.5998  1.0523  1.5441
  107OSM    C3S10958   2.799   3.515  10.585 -0.3260  0.3252 -0.2555
  107OSM    H3S10959   2.771   3.419  10.634  0.9444 -0.9617 -1.9401
  107OSM     O310960   2.894   3.585  10.675  0.3870  0.4349  0.1749
  107OSM    HO310961   2.828   3.630  10.729  0.7828  1.2739 -0.0328
  107OSM    C4S10962   2.868   3.471  10.455  0.6565 -0.2385  0.5125
  107OSM    H4S10963   2.851   3.362  10.450 -2.2232  0.0491  1.8317
  107OSM    C5S10964   2.926   3.542  10.354  0.1377 -0.5882 -0.9473
  107OSM    H5S10965   2.948   3.649  10.366  0.8778 -1.0286  2.7004
  107OSM    C6S10966   2.989   3.476  10.230 -0.7853  0.0063 -0.6792
  107OSM    H6S10967   3.003   3.367  10.242  0.2367  0.2220  0.2581
  107OSM    H6T10968   3.094   3.512  10.226 -1.1365  1.7405  2.4904
  107OSM    C7S10969   2.917   3.524  10.102 -0.3840  0.9435 -0.0991
  107OSM    H7S10970   2.931   3.633  10.084 -2.4197  1.1162 -0.8795
  107OSM    H7T10971   2.808   3.507  10.110 -0.4115  0.8870 -0.5854
  107OSM    C8S10972   2.968   3.446   9.979  0.2032  0.3081 -0.1513
  107OSM    H8S10973   2.976   3.338  10.003 -1.0056  0.1948 -0.2211
  107OSM    H8T10974   3.068   3.484   9.949 -0.6223 -0.2051 -4.2160
  107OSM    C9S10975   2.880   3.470   9.859  0.1126 -0.1009  0.8624
  107OSM    H9S10976   2.875   3.581   9.862 -0.0968 -0.0404 -0.8241
  107OSM    H9T10977   2.781   3.424   9.878 -0.6422  1.5338  1.0312
  107OSM   C10S10978   2.934   3.418   9.727  0.0650 -0.8951  0.6414
  107OSM   H10S10979   2.911   3.309   9.721 -1.4876 -0.6817  2.0705
  107OSM   H10T10980   3.045   3.430   9.723  0.1384 -1.8923 -1.3450
  107OSM   C11S10981   2.861   3.488   9.613  0.3364  0.0985  0.6716
  107OSM   H11S10982   2.873   3.598   9.608  2.8800  0.0138  2.8828
  107OSM   H11T10983   2.757   3.465   9.646  0.2204 -0.0107  0.2395
  107OSM   C12S10984   2.891   3.424   9.475 -0.9050  0.4394  0.0194
  107OSM   H12S10985   2.891   3.313   9.487 -0.7733  0.2500 -1.5442
  107OSM   H12T10986   2.988   3.462   9.436 -0.0526 -2.8012 -1.4132
  107OSM   C13S10987   2.780   3.440   9.377 -0.0668 -0.5806  0.3762
  107OSM   H13S10988   2.776   3.548   9.349  0.6500 -0.2603  1.4582
  107OSM   H13T10989   2.683   3.407   9.420 -0.0023  0.3925  1.3110
  107OSM   C14S10990   2.805   3.362   9.247  0.4017  0.5591 -0.1640
  107OSM   H14S10991   2.822   3.260   9.287 -1.0697  0.7651  1.0669
  107OSM   H14T10992   2.901   3.392   9.199 -0.0166 -0.2146 -1.5480
  107OSM   C15S10993   2.697   3.364   9.136  0.2066 -0.0108  0.0755
  107OSM   H15S10994   2.684   3.466   9.095 -3.0179 -0.8593 -1.3862
  107OSM   H15T10995   2.598   3.338   9.180  0.6722 -1.1597  0.5093
  107OSM   C16S10996   2.731   3.282   9.007 -0.0734 -0.1560 -0.4668
  107OSM   H16S10997   2.693   3.178   9.011 -0.1612 -0.1890 -1.8148
  107OSM   H16T10998   2.841   3.282   8.990  0.0301 -0.2101  0.1708
  107OSM   C17S10999   2.678   3.342   8.873 -0.0122 -0.1833 -0.2387
  107OSM   H17S11000   2.748   3.303   8.796 -0.0221 -0.5854 -0.0507
  107OSM   H17T11001   2.692   3.451   8.862  0.8818 -0.3733 -1.1831
  107OSM   C18S11002   2.530   3.306   8.836  0.0422  0.4731  0.0475
  107OSM   H18S11003   2.521   3.195   8.840  1.9617  0.0534 -3.2275
  107OSM   H18T11004   2.493   3.349   8.740  1.4419 -0.4075 -0.9376
  107OSM   H18U11005   2.456   3.331   8.915  2.3442  1.7170  1.9232
  107OSM    C1F11006   2.465   3.558  10.417  0.3627  0.4675 -0.8090
  107OSM     OF11007   2.435   3.677  10.420  0.2611  0.1987 -0.2841
  107OSM    C2F11008   2.406   3.467  10.316  0.3583  0.6273  0.3549
  107OSM    H2F11009   2.356   3.381  10.365  0.2169  1.1403  1.1216
  107OSM    H2G11010   2.486   3.432  10.246  0.8481  2.5851 -0.1314
  107OSM    C3F11011   2.312   3.544  10.220 -0.3249  0.2475 -0.4046
  107OSM    H3F11012   2.361   3.638  10.188  0.4434  0.3545  0.9934
  107OSM    H3G11013   2.222   3.569  10.280  0.2503  1.5040 -0.0181
  107OSM    C4F11014   2.273   3.450  10.101  0.6016 -0.4585  0.1615
  107OSM    H4F11015   2.176   3.492  10.069  0.9538  0.6068  0.4563
  107OSM    H4G11016   2.261   3.349  10.146  0.3123  0.3689  1.9979
  107OSM    C5F11017   2.382   3.454   9.989 -0.0714 -0.4241  0.0542
  107OSM    H5F11018   2.483   3.416  10.015 -0.3301 -0.9481  0.3200
  107OSM    H5G11019   2.386   3.557   9.947  1.8737  0.5953  2.4795
  107OSM    C6F11020   2.339   3.357   9.871 -0.8301 -0.2251 -0.7961
  107OSM    H6F11021   2.280   3.274   9.915 -0.7767 -1.1312 -2.3624
  107OSM    H6G11022   2.434   3.313   9.834 -0.5342 -0.4340  0.1715
  107OSM    C7F11023   2.262   3.419   9.745  0.3470  0.3639 -0.4340
  107OSM    H7F11024   2.321   3.504   9.703  0.4264  0.9413  0.7983
  107OSM    H7G11025   2.164   3.458   9.781 -0.7067 -0.4100 -2.3573
  107OSM    C8F11026   2.236   3.311   9.644  0.5360 -0.0216  0.3330
  107OSM    H8F11027   2.177   3.222   9.677  0.0130  0.1624 -0.0837
  107OSM    H8G11028   2.333   3.265   9.616 -0.5259 -1.7107 -0.8273
  107OSM    C9F11029   2.164   3.355   9.516 -0.0257  0.5736 -0.6038
  107OSM    H9F11030   2.062   3.393   9.535  0.4980  1.2618  0.9911
  107OSM   C10F11031   2.204   3.349   9.392  0.0347 -0.3603  0.3019
  107OSM   H10F11032   2.146   3.398   9.312  1.0353  0.6013  0.1452
  107OSM   C11F11033   2.339   3.299   9.342 -0.0962 -0.4664 -0.2074
  107OSM   H11F11034   2.381   3.234   9.422 -1.6091 -0.1742  0.8749
  107OSM   H11G11035   2.397   3.393   9.328  0.8166 -0.6864  1.7208
  107OSM   C12F11036   2.327   3.222   9.208 -0.3037  0.2424 -0.0044
  107OSM   H12F11037   2.427   3.200   9.164 -0.7463 -1.0249 -0.4176
  107OSM   H12G11038   2.269   3.287   9.141 -0.8885 -1.2030 -0.9536
  107OSM   C13F11039   2.258   3.087   9.224 -0.2065  0.6612  0.0508
  107OSM   H13F11040   2.158   3.096   9.272 -0.8166 -2.2087 -0.4870
  107OSM   H13G11041   2.317   3.020   9.289  2.1857  1.4299 -1.2029
  107OSM   C14F11042   2.232   3.022   9.090  0.7652 -0.9089  0.5513
  107OSM   H14F11043   2.330   3.010   9.039 -0.1278 -0.6049 -1.3178
  107OSM   H14G11044   2.187   3.084   9.010  0.6863 -3.2476 -1.2963
  107OSM   C15F11045   2.152   2.894   9.112  0.1805  0.0473  0.4849
  107OSM   H15F11046   2.062   2.906   9.176  0.2396  1.2389  0.3700
  107OSM   H15G11047   2.217   2.832   9.178  0.1413 -0.4832  0.0294
  107OSM   C16F11048   2.099   2.832   8.986  0.8790  1.1241  0.3808
  107OSM   H16F11049   2.179   2.818   8.911 -0.7545 -3.0769 -0.8489
  107OSM   H16G11050   2.015   2.894   8.951  0.5639  0.8307  0.6130
  107OSM   C17F11051   2.021   2.690   9.007  0.8353 -0.1949  0.2415
  107OSM   H17F11052   1.933   2.729   9.062  1.3826  1.9809 -0.3254
  107OSM   H17G11053   2.091   2.624   9.063  0.4459 -1.0438 -0.2610
  107OSM   C18F11054   1.968   2.631   8.872 -0.0019 -0.1669  0.5501
  107OSM   H18F11055   1.941   2.525   8.891  0.7516 -0.3008  0.9198
  107OSM   H18G11056   2.047   2.629   8.794  1.1998 -2.3394  1.7267
  107OSM   H18H11057   1.878   2.685   8.834  0.1027 -0.0403  0.4802
  108OSM      N11058   6.463   2.901  11.107 -0.4144  0.4489  0.5322
  108OSM    C1511059   6.483   3.041  11.166  0.4030 -0.5208 -0.0388
  108OSM   H15A11060   6.526   3.035  11.265  0.2724  2.2039  0.2439
  108OSM   H15B11061   6.391   3.098  11.168  1.0213  0.5725 -1.3145
  108OSM   H15C11062   6.550   3.096  11.102  3.4776 -1.1395  2.3921
  108OSM    C1411063   6.592   2.829  11.119  0.1152  0.5706  0.0504
  108OSM   H14A11064   6.668   2.875  11.058 -0.4667  1.8699  0.2789
  108OSM   H14B11065   6.589   2.725  11.089  1.7403  0.3691  0.4614
  108OSM   H14C11066   6.623   2.826  11.222 -2.4547 -1.5584  0.8677
  108OSM    C1311067   6.359   2.826  11.184  0.8104 -0.0057 -0.1071
  108OSM   H13A11068   6.372   2.813  11.291  0.5902  1.2162  0.0794
  108OSM   H13B11069   6.328   2.737  11.132  2.3720 -1.3812  1.1855
  108OSM   H13C11070   6.272   2.890  11.185 -1.0556 -2.4074  0.5138
  108OSM    C1211071   6.417   2.898  10.960 -0.1395  0.3302 -0.1868
  108OSM   H12A11072   6.457   2.979  10.901  1.2444  0.4206  0.8282
  108OSM   H12B11073   6.313   2.924  10.961 -0.9460 -2.4735  1.6796
  108OSM    C1111074   6.420   2.758  10.884  0.4226 -0.4480 -0.4067
  108OSM   H11A11075   6.524   2.724  10.867  0.9310  1.2229 -0.8387
  108OSM   H11B11076   6.379   2.775  10.782 -1.6615 -1.0920  0.2611
  108OSM      P11077   6.198   2.619  10.910  0.0674  0.2061 -0.4298
  108OSM    O1311078   6.151   2.511  10.998 -0.2718  0.4199  1.0794
  108OSM    O1411079   6.118   2.743  10.912 -0.3911  0.3139 -0.3329
  108OSM    O1111080   6.197   2.575  10.761 -0.2628  0.4164 -0.0281
  108OSM    O1211081   6.344   2.655  10.946 -0.2727  0.2870  0.5709
  108OSM    C1S11082   6.278   2.466  10.721 -0.7311  0.4454 -0.2667
  108OSM    H1S11083   6.274   2.381  10.793  1.4684  0.0222 -0.5773
  108OSM    H1T11084   6.386   2.489  10.715 -0.2103 -1.1349  1.6170
  108OSM     NF11085   6.293   2.289  10.531  0.0009  0.4347  0.3452
  108OSM    HNF11086   6.359   2.276  10.458 -2.0502 -0.8696 -1.3974
  108OSM    C2S11087   6.244   2.424  10.572 -0.0891 -0.4621  0.0880
  108OSM    H2S11088   6.132   2.426  10.570 -0.0679  0.9495 -0.4424
  108OSM    C3S11089   6.300   2.542  10.474  0.5148 -0.0003  0.3034
  108OSM    H3S11090   6.410   2.539  10.489  0.5377  2.1396  0.7984
  108OSM     O311091   6.249   2.665  10.513  0.5135  0.5699 -0.2502
  108OSM    HO311092   6.234   2.645  10.605  2.1404  0.8112  0.0960
  108OSM    C4S11093   6.248   2.511  10.338  0.4551 -0.0532  0.7541
  108OSM    H4S11094   6.139   2.506  10.328  0.4113 -1.2619  1.5010
  108OSM    C5S11095   6.312   2.484  10.220 -0.4869 -0.0723 -0.1102
  108OSM    H5S11096   6.422   2.494  10.216 -0.6578  1.9552 -0.6924
  108OSM    C6S11097   6.248   2.469  10.081 -0.8361 -0.0503  0.4667
  108OSM    H6S11098   6.176   2.385  10.078  0.4710 -1.1995 -1.1849
  108OSM    H6T11099   6.323   2.438  10.004 -1.2657 -1.7073  0.6822
  108OSM    C7S11100   6.201   2.604  10.028 -1.0428 -0.4262  0.5906
  108OSM    H7S11101   6.291   2.667  10.010 -0.0108 -1.9995  0.0307
  108OSM    H7T11102   6.132   2.661  10.094 -2.6780 -1.9923  0.3243
  108OSM    C8S11103   6.130   2.587   9.890 -0.2325  0.3321  0.4778
  108OSM    H8S11104   6.063   2.676   9.887  0.7789  1.1143  0.6020
  108OSM    H8T11105   6.063   2.499   9.897 -0.3324  0.4423  0.9781
  108OSM    C9S11106   6.223   2.565   9.772 -0.5717  0.2484  0.5357
  108OSM    H9S11107   6.268   2.463   9.772 -3.1879 -1.0622 -2.1537
  108OSM    H9T11108   6.303   2.641   9.772 -0.6139  0.3605 -1.5748
  108OSM   C10S11109   6.162   2.586   9.629  0.3613  0.0475 -0.0820
  108OSM   H10S11110   6.111   2.491   9.600  1.0376 -0.2934 -0.1696
  108OSM   H10T11111   6.242   2.588   9.552 -1.3444  2.4903 -1.9721
  108OSM   C11S11112   6.074   2.708   9.620  0.2291  0.4123  0.1138
  108OSM   H11S11113   6.135   2.799   9.637  0.3606  0.2425  0.5574
  108OSM   H11T11114   5.993   2.706   9.695  0.0854 -0.2648 -0.0496
  108OSM   C12S11115   6.009   2.731   9.482  0.7200  0.2452  0.0864
  108OSM   H12S11116   6.085   2.704   9.405  0.8936  0.5646  0.1424
  108OSM   H12T11117   5.981   2.836   9.460 -1.6348 -0.5690 -1.1524
  108OSM   C13S11118   5.880   2.645   9.465 -0.0750  0.7434 -0.0212
  108OSM   H13S11119   5.797   2.674   9.534  1.2389 -0.4332  2.1714
  108OSM   H13T11120   5.906   2.539   9.485 -1.0440  0.4681 -0.1408
  108OSM   C14S11121   5.816   2.652   9.327  0.0127  0.6070  0.4953
  108OSM   H14S11122   5.785   2.758   9.316  0.6758  0.9057  1.3959
  108OSM   H14T11123   5.719   2.599   9.327  0.6773 -0.6500  1.0357
  108OSM   C15S11124   5.893   2.594   9.205 -0.2638 -0.3218 -0.0443
  108OSM   H15S11125   5.925   2.491   9.232  2.2644  0.5334  0.4771
  108OSM   H15T11126   5.987   2.651   9.188 -0.1214 -0.2101  1.0637
  108OSM   C16S11127   5.804   2.583   9.077  0.2299  0.5717  0.0748
  108OSM   H16S11128   5.745   2.677   9.067  0.3103  0.7123  0.8324
  108OSM   H16T11129   5.729   2.502   9.083  1.0204 -0.2035 -0.3620
  108OSM   C17S11130   5.891   2.566   8.954  0.7661 -0.6695 -0.6147
  108OSM   H17S11131   5.959   2.481   8.976  1.7543  0.5798  1.4089
  108OSM   H17T11132   5.953   2.658   8.949 -1.1303  0.6811 -0.6781
  108OSM   C18S11133   5.806   2.551   8.832  0.2884  0.3850  0.8659
  108OSM   H18S11134   5.756   2.452   8.839 -1.4110  1.2866  2.9275
  108OSM   H18T11135   5.858   2.552   8.734 -2.9752  1.5147 -0.9978
  108OSM   H18U11136   5.738   2.637   8.815  1.4713  0.7380 -2.9845
  108OSM    C1F11137   6.269   2.183  10.605  0.7825  0.1389  0.1750
  108OSM     OF11138   6.191   2.189  10.698  0.5332 -0.1619  0.0895
  108OSM    C2F11139   6.350   2.063  10.572  0.1543 -0.9728  0.1661
  108OSM    H2F11140   6.431   2.049  10.647  2.5686  2.3888 -1.5154
  108OSM    H2G11141   6.405   2.096  10.481 -4.8251  1.8807 -2.1874
  108OSM    C3F11142   6.265   1.936  10.545 -0.0437  0.7562 -0.4370
  108OSM    H3F11143   6.228   1.892  10.641 -0.0377  1.2349 -0.2090
  108OSM    H3G11144   6.328   1.860  10.495 -0.5346  0.0580 -0.0173
  108OSM    C4F11145   6.157   1.959  10.441 -0.8322  0.1778 -0.0568
  108OSM    H4F11146   6.102   2.051  10.471 -0.5557  1.3759 -2.9740
  108OSM    H4G11147   6.096   1.866  10.431  0.8447 -1.0137  0.4291
  108OSM    C5F11148   6.205   1.995  10.305 -0.2867  0.2730 -0.0634
  108OSM    H5F11149   6.265   1.912  10.261  0.4362  0.9818 -0.4305
  108OSM    H5G11150   6.265   2.086  10.325  1.3221 -0.9437  0.8751
  108OSM    C6F11151   6.088   2.005  10.208  0.8379 -0.9464  0.5487
  108OSM    H6F11152   6.028   2.093  10.241  1.0126 -0.3503 -0.6810
  108OSM    H6G11153   6.025   1.913  10.207 -1.0631  0.2930  0.7068
  108OSM    C7F11154   6.126   2.019  10.061  0.5467 -0.6620 -0.6380
  108OSM    H7F11155   6.210   1.947  10.054  0.7409 -0.4571 -0.4461
  108OSM    H7G11156   6.169   2.114  10.024 -1.3015  0.4478 -0.0500
  108OSM    C8F11157   6.013   1.993   9.956  0.3319  0.4157  0.5659
  108OSM    H8F11158   5.978   1.889   9.968  3.4448 -0.9062 -0.5981
  108OSM    H8G11159   6.055   1.985   9.853  0.7553  1.0706  0.6805
  108OSM    C9F11160   5.897   2.081   9.980  0.2013 -0.3318  0.0903
  108OSM    H9F11161   5.868   2.104  10.083 -0.2340  0.4072 -0.1901
  108OSM   C10F11162   5.831   2.145   9.881 -0.0209 -0.8669  0.6642
  108OSM   H10F11163   5.737   2.198   9.903 -0.1018  0.7100 -2.8563
  108OSM   C11F11164   5.854   2.124   9.741 -0.1406  0.3256  0.5286
  108OSM   H11F11165   5.766   2.137   9.674  0.3842 -0.3155 -0.3083
  108OSM   H11G11166   5.902   2.027   9.715 -2.0695 -0.3150 -0.8899
  108OSM   C12F11167   5.938   2.239   9.687 -0.4248 -0.5821 -0.4155
  108OSM   H12F11168   6.038   2.225   9.733 -0.2392 -2.2317 -1.2395
  108OSM   H12G11169   5.893   2.334   9.723 -0.8224 -0.9980  0.1981
  108OSM   C13F11170   5.959   2.240   9.539  0.5754 -0.2086 -0.3770
  108OSM   H13F11171   5.985   2.343   9.504 -0.2395  0.1239 -0.0271
  108OSM   H13G11172   5.869   2.200   9.489  0.4453 -1.4549  0.7938
  108OSM   C14F11173   6.082   2.146   9.495  0.1654  0.0828 -0.8026
  108OSM   H14F11174   6.041   2.042   9.498 -1.2191  0.6402  1.4273
  108OSM   H14G11175   6.172   2.157   9.559 -0.1985 -2.6705  0.3161
  108OSM   C15F11176   6.143   2.183   9.362  0.5530  0.4962  0.4751
  108OSM   H15F11177   6.068   2.191   9.280  0.2085 -0.0567  0.7286
  108OSM   H15G11178   6.201   2.093   9.334 -0.5193 -0.6889  1.9078
  108OSM   C16F11179   6.235   2.305   9.362  0.0162 -0.8527 -0.4502
  108OSM   H16F11180   6.304   2.300   9.449 -1.1866 -1.6736  0.4922
  108OSM   H16G11181   6.175   2.397   9.378 -1.2514 -1.8287  0.6730
  108OSM   C17F11182   6.326   2.326   9.238 -0.6236  0.2729  0.1014
  108OSM   H17F11183   6.412   2.256   9.246  2.9646  4.4136  1.8168
  108OSM   H17G11184   6.381   2.422   9.242  1.8919 -1.0692 -0.0480
  108OSM   C18F11185   6.263   2.300   9.094  0.2200  0.2870  0.3502
  108OSM   H18F11186   6.203   2.207   9.102  1.1613 -0.2389  1.7890
  108OSM   H18G11187   6.331   2.291   9.007 -2.6115 -1.5866 -1.8135
  108OSM   H18H11188   6.187   2.376   9.068 -0.8477 -1.2245 -1.1031
  109OSM      N11189   6.534   2.064  11.074 -0.4235 -0.3181 -0.0070
  109OSM    C1511190   6.399   2.004  11.048  0.6007  0.3608  0.2026
  109OSM   H15A11191   6.330   2.070  11.097  1.5750  1.8881 -0.4128
  109OSM   H15B11192   6.377   1.904  11.082  0.0098 -0.4708 -2.4170
  109OSM   H15C11193   6.376   2.008  10.943 -2.3748 -0.9756  0.7098
  109OSM    C1411194   6.552   2.053  11.225 -0.5663  0.7159  0.3590
  109OSM   H14A11195   6.479   2.105  11.285  0.4255 -0.3441  2.6037
  109OSM   H14B11196   6.649   2.089  11.255 -0.0990  0.8396 -1.2228
  109OSM   H14C11197   6.549   1.948  11.248  1.0039  0.5677 -0.0364
  109OSM    C1311198   6.633   1.979  11.004 -0.0683  0.2454 -0.1239
  109OSM   H13A11199   6.622   1.876  11.035 -2.3294  0.8134  1.1930
  109OSM   H13B11200   6.735   2.012  11.006 -0.5718  2.0388 -1.5884
  109OSM   H13C11201   6.607   1.992  10.900  1.6255  0.8147 -0.4961
  109OSM    C1211202   6.523   2.205  11.026 -0.0284  0.2851 -0.3933
  109OSM   H12A11203   6.616   2.249  11.060  1.4711 -1.5381 -1.8533
  109OSM   H12B11204   6.436   2.252  11.069 -0.6935 -0.5430 -0.7879
  109OSM    C1111205   6.507   2.233  10.870 -0.0830  0.2481  0.1075
  109OSM   H11A11206   6.473   2.335  10.844 -1.6541 -0.1301  0.5593
  109OSM   H11B11207   6.423   2.167  10.839  0.1832 -1.1916  2.1959
  109OSM      P11208   6.741   2.303  10.787  0.5434  0.0044 -0.3107
  109OSM    O1311209   6.701   2.407  10.886 -0.0979 -0.2027  0.1423
  109OSM    O1411210   6.879   2.251  10.805  0.3051 -0.2929  0.0525
  109OSM    O1111211   6.715   2.364  10.637  0.4115 -0.2821 -0.2594
  109OSM    O1211212   6.634   2.187  10.802  0.8222  0.5683 -0.6009
  109OSM    C1S11213   6.721   2.303  10.510 -0.2804 -0.2672  0.1197
  109OSM    H1S11214   6.653   2.215  10.505 -1.8911  0.9817 -1.5101
  109OSM    H1T11215   6.823   2.267  10.485 -1.8374 -2.7017 -3.7182
  109OSM     NF11216   6.700   2.340  10.277  0.1776  0.0622  0.3389
  109OSM    HNF11217   6.785   2.345  10.226  0.5307 -2.5102  0.5458
  109OSM    C2S11218   6.681   2.406  10.403  0.3938 -0.5007 -0.1982
  109OSM    H2S11219   6.576   2.441  10.408  0.1280 -1.4504  1.0895
  109OSM    C3S11220   6.774   2.536  10.420 -0.1821  0.9809 -0.1635
  109OSM    H3S11221   6.881   2.505  10.418 -0.5213 -0.2280 -2.3190
  109OSM     O311222   6.749   2.615  10.540  0.1130  0.5866  0.2618
  109OSM    HO311223   6.699   2.548  10.587 -1.8517  0.5316 -1.7385
  109OSM    C4S11224   6.760   2.619  10.303  0.6192 -0.7440 -1.0619
  109OSM    H4S11225   6.836   2.591  10.228  0.1450 -1.7569 -1.1835
  109OSM    C5S11226   6.688   2.726  10.276  0.5877  0.1221  0.4496
  109OSM    H5S11227   6.626   2.760  10.360  1.8258 -1.3191  2.0273
  109OSM    C6S11228   6.682   2.791  10.140 -0.4773  0.0746  0.1944
  109OSM    H6S11229   6.746   2.881  10.151  0.4002 -0.5591  0.4767
  109OSM    H6T11230   6.585   2.825  10.100  0.4214  2.4686 -0.1319
  109OSM    C7S11231   6.742   2.708  10.027  0.1653  0.4650 -0.3150
  109OSM    H7S11232   6.834   2.650  10.049  0.1528  0.4751 -0.2357
  109OSM    H7T11233   6.763   2.770   9.938  1.1862 -0.0064 -0.4280
  109OSM    C8S11234   6.642   2.593   9.988  0.6913  0.3660 -0.5007
  109OSM    H8S11235   6.543   2.639   9.968 -0.1966 -0.4793  1.6755
  109OSM    H8T11236   6.630   2.538  10.084 -3.2644  0.9036 -0.5522
  109OSM    C9S11237   6.693   2.504   9.877  0.1674  0.0459  0.1299
  109OSM    H9S11238   6.631   2.413   9.884  0.9616 -0.4890  0.4157
  109OSM    H9T11239   6.795   2.467   9.901 -1.2984 -2.4694  3.2230
  109OSM   C10S11240   6.682   2.551   9.728 -0.0405 -0.4706 -0.5248
  109OSM   H10S11241   6.754   2.636   9.724  0.3048 -0.6300  1.3603
  109OSM   H10T11242   6.582   2.588   9.698  0.3618 -0.8575 -2.4981
  109OSM   C11S11243   6.725   2.439   9.636 -0.1584 -0.3518 -0.0374
  109OSM   H11S11244   6.685   2.340   9.667 -0.0131 -0.5359 -0.4240
  109OSM   H11T11245   6.835   2.425   9.641  0.4884  3.0036 -2.0087
  109OSM   C12S11246   6.696   2.470   9.484  0.9130 -0.4369 -0.2691
  109OSM   H12S11247   6.588   2.484   9.466  1.3639  0.8466 -2.4329
  109OSM   H12T11248   6.726   2.375   9.434 -0.9458 -1.6893  0.8751
  109OSM   C13S11249   6.776   2.591   9.426 -0.5176  0.0561  0.1645
  109OSM   H13S11250   6.880   2.601   9.463 -0.9030  1.7519  0.8824
  109OSM   H13T11251   6.725   2.684   9.460  0.6499  0.5725  0.5327
  109OSM   C14S11252   6.791   2.596   9.273  0.7691  0.3302  1.0083
  109OSM   H14S11253   6.892   2.556   9.248 -0.0240 -1.8717  1.0753
  109OSM   H14T11254   6.775   2.700   9.237 -2.8744 -0.5957 -0.5160
  109OSM   C15S11255   6.682   2.521   9.197  0.3179  0.1692 -0.1991
  109OSM   H15S11256   6.582   2.529   9.245  1.0461 -0.3786  1.4785
  109OSM   H15T11257   6.714   2.416   9.216 -0.0289 -0.0027 -0.5534
  109OSM   C16S11258   6.661   2.558   9.054 -0.0967  0.2906  0.2517
  109OSM   H16S11259   6.615   2.658   9.039  0.1474  0.1568 -1.7532
  109OSM   H16T11260   6.586   2.491   9.007  1.1326 -0.6901 -0.3994
  109OSM   C17S11261   6.797   2.551   8.969  0.0527 -0.0055 -0.1746
  109OSM   H17S11262   6.844   2.451   8.965 -2.3607 -1.1928 -1.6607
  109OSM   H17T11263   6.870   2.626   9.005  0.2578  0.4099 -1.4092
  109OSM   C18S11264   6.767   2.590   8.818 -0.2010 -0.0340 -0.4262
  109OSM   H18S11265   6.678   2.537   8.779 -0.5265 -0.3136  0.6610
  109OSM   H18T11266   6.857   2.557   8.762 -0.6265  1.2116 -1.9269
  109OSM   H18U11267   6.753   2.699   8.804  0.1545 -0.2808 -3.2084
  109OSM    C1F11268   6.605   2.253  10.233 -0.5140 -0.2241 -1.2838
  109OSM     OF11269   6.511   2.218  10.310 -0.1420 -0.2506  0.2228
  109OSM    C2F11270   6.631   2.180  10.106  0.1800  0.0359 -0.3109
  109OSM    H2F11271   6.703   2.096  10.104 -1.1327 -1.1589  0.7873
  109OSM    H2G11272   6.658   2.258  10.031 -0.2461 -1.7203 -2.4011
  109OSM    C3F11273   6.501   2.131  10.047  0.1194 -0.1907  0.7616
  109OSM    H3F11274   6.429   2.215  10.046 -1.2385 -1.3285  0.8630
  109OSM    H3G11275   6.452   2.046  10.099 -2.4945  0.7188 -0.0708
  109OSM    C4F11276   6.525   2.095   9.898 -0.6198  0.7262 -0.7951
  109OSM    H4F11277   6.596   2.009   9.897  0.3709  1.3027  2.7082
  109OSM    H4G11278   6.594   2.171   9.855  1.8502 -0.6294  0.4954
  109OSM    C5F11279   6.396   2.057   9.829 -0.1585 -0.1659  0.0951
  109OSM    H5F11280   6.322   2.136   9.854 -1.4190 -1.8383  1.9760
  109OSM    H5G11281   6.349   1.964   9.869  0.5398 -0.2721  0.7022
  109OSM    C6F11282   6.403   2.046   9.674  0.0430  0.4251 -0.1959
  109OSM    H6F11283   6.402   2.151   9.638  2.9480 -0.0957 -2.2129
  109OSM    H6G11284   6.317   1.989   9.631 -0.0990  1.9519 -2.0877
  109OSM    C7F11285   6.532   1.980   9.619 -0.5745 -0.7415 -0.4816
  109OSM    H7F11286   6.563   1.888   9.672 -0.4886 -0.1303  0.5477
  109OSM    H7G11287   6.614   2.055   9.624 -2.2175  1.1449 -0.3824
  109OSM    C8F11288   6.512   1.948   9.472  0.6855  0.5758 -0.3985
  109OSM    H8F11289   6.476   2.037   9.416  1.0851 -0.6719 -2.7727
  109OSM    H8G11290   6.434   1.868   9.472  1.1703  0.0936 -1.6398
  109OSM    C9F11291   6.641   1.891   9.411  0.2375 -0.0407 -0.8530
  109OSM    H9F11292   6.672   1.788   9.435  1.6651  0.6874  0.6463
  109OSM   C10F11293   6.723   1.952   9.326  0.7768  0.5346 -0.5556
  109OSM   H10F11294   6.802   1.889   9.284 -0.2018 -1.5480  0.5692
  109OSM   C11F11295   6.711   2.082   9.247  0.1092  0.1505 -0.4916
  109OSM   H11F11296   6.780   2.154   9.296 -0.8445  2.3256 -2.1584
  109OSM   H11G11297   6.606   2.117   9.245 -0.0496 -0.3405 -2.5594
  109OSM   C12F11298   6.758   2.068   9.100 -0.1487 -0.5844 -0.2455
  109OSM   H12F11299   6.855   2.016   9.112  0.9280  1.4596  0.4518
  109OSM   H12G11300   6.783   2.171   9.066 -0.0743 -0.2129  0.8879
  109OSM   C13F11301   6.671   1.997   9.002 -0.1931 -0.2647  0.6888
  109OSM   H13F11302   6.577   2.053   8.983  0.5510  1.9121  2.8484
  109OSM   H13G11303   6.653   1.896   9.044 -0.3625 -2.4310 -4.0265
  109OSM   C14F11304   6.740   1.980   8.855 -0.1149 -0.2313 -0.2151
  109OSM   H14F11305   6.850   1.964   8.860  0.0236  0.4553 -0.8369
  109OSM   H14G11306   6.732   2.076   8.799  0.9948  1.0882  1.7710
  109OSM   C15F11307   6.666   1.863   8.777  0.1477  0.3815 -0.3232
  109OSM   H15F11308   6.556   1.879   8.764  0.1836  0.7375 -0.2196
  109OSM   H15G11309   6.677   1.770   8.836  0.7855  1.0293  0.6108
  109OSM   C16F11310   6.723   1.853   8.635 -0.0393 -0.2594  0.3628
  109OSM   H16F11311   6.825   1.813   8.650  0.9363  0.5441 -3.1075
  109OSM   H16G11312   6.733   1.956   8.593 -0.8135  0.5357  1.9994
  109OSM   C17F11313   6.631   1.770   8.537  0.2221  0.2635  0.1338
  109OSM   H17F11314   6.530   1.816   8.532 -0.1600 -0.5307  0.4739
  109OSM   H17G11315   6.618   1.674   8.590 -2.6031 -0.3043 -1.3715
  109OSM   C18F11316   6.686   1.749   8.392  0.1681 -0.2721 -1.0205
  109OSM   H18F11317   6.782   1.693   8.395  1.6987  2.2580 -0.5148
  109OSM   H18G11318   6.705   1.839   8.330 -0.3346 -0.9433 -2.1929
  109OSM   H18H11319   6.610   1.693   8.333 -2.6325 -1.0843  2.9314
  110OSM      N11320   1.123   0.569  10.821  0.0871 -0.0682  0.1355
  110OSM    C1511321   1.198   0.581  10.950  0.1376 -0.4627 -0.6413
  110OSM   H15A11322   1.258   0.493  10.965  1.6485  0.6062 -0.1815
  110OSM   H15B11323   1.133   0.598  11.036 -3.0298  1.7607 -3.2063
  110OSM   H15C11324   1.270   0.662  10.950 -0.0939 -0.2511 -1.6036
  110OSM    C1411325   1.027   0.451  10.841 -0.2441  0.6345 -0.2994
  110OSM   H14A11326   0.955   0.472  10.918 -0.8436  0.4212 -0.7889
  110OSM   H14B11327   1.075   0.357  10.864  1.8967  1.8053  0.3112
  110OSM   H14C11328   0.977   0.424  10.749  2.4600 -0.7686 -1.4800
  110OSM    C1311329   1.039   0.691  10.796  0.8034  0.2670  0.3419
  110OSM   H13A11330   0.983   0.720  10.884 -0.5603  1.0512 -0.7538
  110OSM   H13B11331   0.970   0.669  10.717 -0.5735  0.4064  1.4649
  110OSM   H13C11332   1.103   0.777  10.778 -0.8204  0.7518 -4.1285
  110OSM    C1211333   1.213   0.535  10.706  0.6405  0.7497  0.4885
  110OSM   H12A11334   1.162   0.546  10.612  1.0176  2.6954  0.4753
  110OSM   H12B11335   1.228   0.428  10.713  0.0354  0.5404 -0.9949
  110OSM    C1111336   1.350   0.599  10.693  0.2006  0.6051  0.3919
  110OSM   H11A11337   1.402   0.555  10.605 -2.0118 -2.2473  0.3799
  110OSM   H11B11338   1.420   0.561  10.770  1.3608  1.2801 -0.2953
  110OSM      P11339   1.466   0.824  10.764  0.0692 -0.1286  0.0788
  110OSM    O1311340   1.461   0.800  10.910 -0.1440 -0.1405 -0.1115
  110OSM    O1411341   1.601   0.812  10.700 -0.0987 -0.1672  0.3968
  110OSM    O1111342   1.407   0.969  10.738  0.0012  0.3439 -0.0007
  110OSM    O1211343   1.348   0.745  10.691 -0.1867 -0.0887 -0.5487
  110OSM    C1S11344   1.401   1.040  10.617 -0.2905  0.3155 -0.3030
  110OSM    H1S11345   1.503   1.044  10.575 -0.7444  0.4868 -1.4294
  110OSM    H1T11346   1.372   1.143  10.645 -1.2137 -0.1331  0.4750
  110OSM     NF11347   1.330   1.040  10.365 -0.2215  0.1695  0.5555
  110OSM    HNF11348   1.255   1.082  10.315 -2.3615 -0.3910  3.0784
  110OSM    C2S11349   1.304   0.989  10.506 -0.3135  0.0621  0.2724
  110OSM    H2S11350   1.318   0.879  10.501 -0.1027  0.1009 -0.0253
  110OSM    C3S11351   1.161   0.991  10.556  0.1458  0.1132  0.4686
  110OSM    H3S11352   1.118   1.092  10.542  0.4073  0.2954  0.9719
  110OSM     O311353   1.143   0.949  10.690  0.4861 -0.0184  0.7504
  110OSM    HO311354   1.234   0.940  10.719  0.4169 -1.5639  0.5698
  110OSM    C4S11355   1.074   0.890  10.480  0.7696  0.2479  0.1363
  110OSM    H4S11356   1.112   0.789  10.461 -1.4039 -0.2419 -2.0450
  110OSM    C5S11357   0.947   0.917  10.428  0.1468  0.0014 -0.3214
  110OSM    H5S11358   0.901   1.017  10.429  0.2930  0.1107 -1.8432
  110OSM    C6S11359   0.865   0.817  10.354 -0.5912  0.0591 -0.2094
  110OSM    H6S11360   0.756   0.815  10.377 -0.3276 -1.8036  1.0587
  110OSM    H6T11361   0.901   0.714  10.372 -0.3354  0.1530 -0.1831
  110OSM    C7S11362   0.875   0.843  10.202 -0.1671 -0.3747 -0.2927
  110OSM    H7S11363   0.981   0.846  10.168  0.3217 -0.8955  1.1278
  110OSM    H7T11364   0.828   0.941  10.180 -0.1969 -0.6514 -1.5768
  110OSM    C8S11365   0.782   0.742  10.133  0.1723 -0.3663 -0.5176
  110OSM    H8S11366   0.677   0.771  10.154 -0.0784 -0.6921 -1.2989
  110OSM    H8T11367   0.810   0.644  10.177  2.7135  1.3857  2.2400
  110OSM    C9S11368   0.795   0.747   9.983 -1.0594 -0.0342  0.2161
  110OSM    H9S11369   0.901   0.718   9.965 -1.0955 -0.7578  1.0707
  110OSM    H9T11370   0.782   0.853   9.954  1.0939  0.1229 -0.2847
  110OSM   C10S11371   0.710   0.646   9.902 -0.2099  0.5274  0.6808
  110OSM   H10S11372   0.749   0.543   9.913 -1.7537 -0.0228  1.2094
  110OSM   H10T11373   0.735   0.664   9.795  0.2403  0.6070  0.7939
  110OSM   C11S11374   0.559   0.649   9.929 -0.4642 -0.3122  0.2859
  110OSM   H11S11375   0.531   0.755   9.914  1.6607  0.0181 -2.1181
  110OSM   H11T11376   0.562   0.629  10.038  1.1695  0.1024  0.3474
  110OSM   C12S11377   0.467   0.556   9.841 -1.0330 -0.8222 -0.0096
  110OSM   H12S11378   0.436   0.610   9.749  2.0992 -2.2720 -2.0966
  110OSM   H12T11379   0.379   0.531   9.904 -1.0079 -1.6239 -0.2776
  110OSM   C13S11380   0.527   0.431   9.780 -0.0562  0.5381 -0.6495
  110OSM   H13S11381   0.549   0.356   9.859  2.5874 -0.3591 -2.0978
  110OSM   H13T11382   0.619   0.472   9.734  0.2771 -0.5441 -0.9774
  110OSM   C14S11383   0.432   0.373   9.687 -0.1278  0.3920 -0.3060
  110OSM   H14S11384   0.396   0.453   9.619  0.0062  1.6547  1.0670
  110OSM   H14T11385   0.347   0.325   9.739 -0.4480  0.1855 -1.0043
  110OSM   C15S11386   0.488   0.268   9.593  0.4625  0.4345  0.0956
  110OSM   H15S11387   0.543   0.188   9.646  1.5220 -0.0096 -1.5906
  110OSM   H15T11388   0.562   0.321   9.529  0.1109  0.9597  0.1152
  110OSM   C16S11389   0.374   0.204   9.506  0.2231  0.1665 -0.3610
  110OSM   H16S11390   0.314   0.155   9.586  1.5380  0.1230  0.6379
  110OSM   H16T11391   0.424   0.137   9.433 -0.0029 -1.3874  0.8363
  110OSM   C17S11392   0.273   0.297   9.435 -0.1542  0.2320  0.3139
  110OSM   H17S11393   0.327   0.352   9.355 -0.7371 -0.6701 -0.7233
  110OSM   H17T11394   0.225   0.368   9.505 -0.2138 -0.8240  1.3759
  110OSM   C18S11395   0.151   0.226   9.375 -0.6220  0.6431  0.4020
  110OSM   H18S11396   0.186   0.141   9.312  0.5678  1.6286 -0.3139
  110OSM   H18T11397   0.090   0.297   9.315 -1.7648 -0.2641  0.4541
  110OSM   H18U11398   0.076   0.179   9.442  1.8173 -2.7891  1.0522
  110OSM    C1F11399   1.450   1.016  10.316 -0.1968  0.1756  0.4419
  110OSM     OF11400   1.527   0.937  10.368 -0.8909  0.3020  0.2792
  110OSM    C2F11401   1.482   1.102  10.197  0.4919 -0.3116  1.0057
  110OSM    H2F11402   1.424   1.196  10.202  0.2053 -0.4717  0.7511
  110OSM    H2G11403   1.466   1.035  10.109  2.8356 -0.3414  0.5269
  110OSM    C3F11404   1.633   1.145  10.200 -0.2390  0.3998  0.1129
  110OSM    H3F11405   1.705   1.061  10.209  0.4287  0.6671 -2.0518
  110OSM    H3G11406   1.652   1.215  10.285  1.4897  0.8969 -0.6272
  110OSM    C4F11407   1.697   1.195  10.067  0.2393  0.5157  0.5050
  110OSM    H4F11408   1.785   1.259  10.089  0.3477  0.5927 -0.1283
  110OSM    H4G11409   1.611   1.252  10.026  0.1070 -1.2044 -1.7677
  110OSM    C5F11410   1.759   1.088   9.975 -0.4738 -0.0160 -0.2487
  110OSM    H5F11411   1.698   0.996   9.968 -0.5273 -0.1234  1.2599
  110OSM    H5G11412   1.854   1.062  10.028  0.7031  0.8657 -1.8438
  110OSM    C6F11413   1.806   1.138   9.836  0.3819  0.2334 -0.1270
  110OSM    H6F11414   1.879   1.222   9.836 -0.7929  1.2944 -1.0167
  110OSM    H6G11415   1.719   1.168   9.773  0.2849 -1.2508 -0.7474
  110OSM    C7F11416   1.899   1.027   9.773 -0.4362 -0.0126 -0.4397
  110OSM    H7F11417   1.831   0.945   9.742  1.3004 -1.2196 -1.2554
  110OSM    H7G11418   1.962   0.984   9.854  1.7371  0.4561 -1.8009
  110OSM    C8F11419   1.998   1.082   9.669 -0.1282 -0.5027 -0.1247
  110OSM    H8F11420   2.050   1.167   9.718 -1.4117  1.0741 -1.3854
  110OSM    H8G11421   1.940   1.133   9.589 -1.1237 -0.2888  0.7147
  110OSM    C9F11422   2.089   0.985   9.607 -0.5465 -0.1419  0.9394
  110OSM    H9F11423   2.155   0.944   9.684  0.2985 -0.9670 -0.1827
  110OSM   C10F11424   2.097   0.947   9.478 -0.0267  0.3195 -0.1354
  110OSM   H10F11425   2.171   0.869   9.454 -0.7612 -0.5360  0.3331
  110OSM   C11F11426   2.014   0.999   9.359  0.3327  0.5156  0.6968
  110OSM   H11F11427   2.070   1.061   9.286 -1.3150 -0.8586 -1.9073
  110OSM   H11G11428   1.926   1.060   9.388  0.3373  0.9553 -0.1667
  110OSM   C12F11429   1.955   0.893   9.259 -0.0304  0.2373 -0.1460
  110OSM   H12F11430   2.037   0.857   9.193  1.0542 -0.0704  1.3143
  110OSM   H12G11431   1.882   0.946   9.194  0.3296  0.3738 -0.4421
  110OSM   C13F11432   1.884   0.767   9.314  0.0700  0.2156  0.4373
  110OSM   H13F11433   1.777   0.795   9.297  0.6160  0.8787 -2.5702
  110OSM   H13G11434   1.892   0.762   9.424 -2.7730 -3.5137  0.6902
  110OSM   C14F11435   1.914   0.647   9.233 -0.9678 -0.2881 -0.2924
  110OSM   H14F11436   2.015   0.614   9.263 -0.1654  1.2882 -1.1234
  110OSM   H14G11437   1.913   0.666   9.123 -1.3922 -0.0515 -0.2531
  110OSM   C15F11438   1.816   0.538   9.262 -0.0352 -0.6086 -1.1567
  110OSM   H15F11439   1.712   0.562   9.232 -0.5342 -0.8900  0.2482
  110OSM   H15G11440   1.817   0.514   9.371  2.7435 -0.1851 -1.0318
  110OSM   C16F11441   1.863   0.410   9.187 -0.4551  0.5798 -0.8564
  110OSM   H16F11442   1.953   0.363   9.233 -1.7920 -2.6589 -1.2495
  110OSM   H16G11443   1.884   0.433   9.080 -3.0865  0.7363 -1.4111
  110OSM   C17F11444   1.765   0.298   9.202  0.2802 -0.2831 -0.1396
  110OSM   H17F11445   1.804   0.217   9.136  1.6213 -1.1053  1.5640
  110OSM   H17G11446   1.666   0.320   9.158  1.2993  0.6868 -2.0394
  110OSM   C18F11447   1.739   0.230   9.337 -0.0056  1.2215  0.3344
  110OSM   H18F11448   1.679   0.137   9.335 -0.5624  1.5354 -2.8560
  110OSM   H18G11449   1.692   0.279   9.425 -0.9020  1.3593 -0.2135
  110OSM   H18H11450   1.838   0.204   9.381 -0.3651 -0.2835  0.3046
  111OSM      N11451   1.894   4.774  11.238 -0.1287 -0.3088 -0.4631
  111OSM    C1511452   1.987   4.740  11.346 -0.9046  0.8780 -1.5547
  111OSM   H15A11453   2.089   4.744  11.311  0.2041 -0.6800  1.2361
  111OSM   H15B11454   1.967   4.637  11.370 -2.4803  1.2477 -1.1600
  111OSM   H15C11455   1.989   4.796  11.439  2.4162 -0.9687 -0.3499
  111OSM    C1411456   1.754   4.748  11.282  0.8526 -0.4252 -0.2359
  111OSM   H14A11457   1.717   4.647  11.297 -2.9014  1.2202  3.8109
  111OSM   H14B11458   1.692   4.788  11.203  1.8334  0.5175 -0.5454
  111OSM   H14C11459   1.725   4.804  11.369  0.9897  1.4180 -1.3289
  111OSM    C1311460   1.926   4.919  11.213 -0.4719 -0.5589 -0.4505
  111OSM   H13A11461   2.015   4.930  11.154 -0.4066 -1.0243 -0.4436
  111OSM   H13B11462   1.941   4.982  11.300  2.5847 -0.9865 -0.5483
  111OSM   H13C11463   1.846   4.969  11.161  1.9806  0.9543 -3.0621
  111OSM    C1211464   1.925   4.690  11.119 -1.0794 -0.1975 -0.3327
  111OSM   H12A11465   1.903   4.588  11.148  1.1425 -0.4818  0.5703
  111OSM   H12B11466   2.030   4.682  11.098 -0.7598  1.6206  0.4223
  111OSM    C1111467   1.855   4.713  10.984 -0.0945  0.2862 -0.1543
  111OSM   H11A11468   1.894   4.638  10.912  0.4699  1.1106 -0.7090
  111OSM   H11B11469   1.894   4.802  10.932  0.0999  0.2807 -0.0172
  111OSM      P11470   1.633   4.572  10.985  0.2582 -0.0670  0.2620
  111OSM    O1311471   1.710   4.484  11.077 -0.6300 -0.1994  0.6884
  111OSM    O1411472   1.492   4.601  11.021 -0.2625 -0.8116 -0.3911
  111OSM    O1111473   1.660   4.529  10.834  0.7159 -0.1234 -0.7710
  111OSM    O1211474   1.706   4.711  10.991 -0.3144  0.0794  0.2607
  111OSM    C1S11475   1.596   4.599  10.726 -0.1734 -0.8016 -0.4624
  111OSM    H1S11476   1.543   4.688  10.765  0.1888 -1.6542  2.1778
  111OSM    H1T11477   1.521   4.530  10.682  0.6178 -2.0683  0.1153
  111OSM     NF11478   1.659   4.727  10.524  0.0928  0.0211  0.0163
  111OSM    HNF11479   1.617   4.687  10.442 -0.4816 -0.4639  0.5404
  111OSM    C2S11480   1.709   4.637  10.617 -0.4378 -0.7090  0.4528
  111OSM    H2S11481   1.795   4.685  10.669 -1.6494 -0.0375  1.9293
  111OSM    C3S11482   1.764   4.505  10.560 -0.6593  0.4313  0.1168
  111OSM    H3S11483   1.685   4.434  10.527 -2.2605  2.5270 -0.7838
  111OSM     O311484   1.844   4.433  10.663 -0.1484  0.1263  0.2501
  111OSM    HO311485   1.847   4.490  10.740  1.5859  0.2185  0.1631
  111OSM    C4S11486   1.849   4.525  10.438  0.1975 -0.4932 -0.1754
  111OSM    H4S11487   1.784   4.512  10.351 -1.8445 -0.2381  1.2395
  111OSM    C5S11488   1.982   4.546  10.432  0.1308 -0.5479  0.3198
  111OSM    H5S11489   2.037   4.555  10.526  2.4522 -1.5012 -0.8744
  111OSM    C6S11490   2.066   4.566  10.306  0.3526 -0.5506 -0.2198
  111OSM    H6S11491   2.123   4.471  10.299 -0.3051 -1.1706  2.0250
  111OSM    H6T11492   2.124   4.661  10.311 -1.2930  0.5953 -1.5030
  111OSM    C7S11493   1.988   4.581  10.175 -0.3754  0.6396  0.1360
  111OSM    H7S11494   1.911   4.661  10.169 -0.0864  1.0013  1.0672
  111OSM    H7T11495   1.926   4.489  10.162 -1.3138  1.2125  0.4381
  111OSM    C8S11496   2.090   4.589  10.053  0.3215  0.0584 -0.6788
  111OSM    H8S11497   2.172   4.522  10.086 -1.6560 -0.8983  2.8033
  111OSM    H8T11498   2.130   4.693  10.049  1.8314 -0.4710 -0.1173
  111OSM    C9S11499   2.028   4.540   9.929  0.0720 -0.0687 -0.3325
  111OSM    H9S11500   1.937   4.601   9.913 -0.2023 -0.0004  1.2993
  111OSM    H9T11501   2.002   4.434   9.947  0.5750 -0.2180 -0.4761
  111OSM   C10S11502   2.116   4.557   9.803  0.8864  0.1002  0.7763
  111OSM   H10S11503   2.222   4.544   9.833  0.9950 -1.7606 -0.3124
  111OSM   H10T11504   2.100   4.662   9.771  2.2845 -0.0655 -0.5763
  111OSM   C11S11505   2.070   4.464   9.682  0.7982 -0.6078 -0.4213
  111OSM   H11S11506   2.036   4.363   9.714  0.4081  0.5104  3.2409
  111OSM   H11T11507   2.166   4.447   9.629 -0.4662 -0.4149 -2.8922
  111OSM   C12S11508   1.976   4.532   9.580  0.2212 -0.3194 -0.1589
  111OSM   H12S11509   2.007   4.638   9.578 -0.1369  0.0317  3.8656
  111OSM   H12T11510   1.874   4.528   9.625 -0.1022 -0.9765 -0.9208
  111OSM   C13S11511   1.983   4.461   9.443  0.6341  0.1717 -0.6951
  111OSM   H13S11512   1.947   4.357   9.459 -0.3471  0.8450  2.1238
  111OSM   H13T11513   2.087   4.469   9.403  0.5904  1.4164 -0.6161
  111OSM   C14S11514   1.888   4.515   9.334 -0.0098  0.2667 -0.2635
  111OSM   H14S11515   1.877   4.625   9.324  0.6615  0.2904 -0.8327
  111OSM   H14T11516   1.782   4.482   9.332 -0.4149  1.5340 -0.7627
  111OSM   C15S11517   1.938   4.468   9.198  0.0202  0.4183 -0.0410
  111OSM   H15S11518   1.971   4.362   9.198 -1.4290 -0.1410 -2.9749
  111OSM   H15T11519   2.025   4.532   9.171 -0.8574  1.5699 -0.2416
  111OSM   C16S11520   1.832   4.476   9.084 -0.8878 -0.4952 -0.5618
  111OSM   H16S11521   1.792   4.580   9.088  1.0301  0.2465  2.1792
  111OSM   H16T11522   1.750   4.408   9.114 -1.0065  0.3696  1.2458
  111OSM   C17S11523   1.886   4.441   8.944 -0.2074  0.0157  0.0943
  111OSM   H17S11524   1.893   4.331   8.934  1.4335 -0.1039  1.8948
  111OSM   H17T11525   1.991   4.476   8.932 -0.2956  0.5876  0.9218
  111OSM   C18S11526   1.811   4.496   8.823  0.1381 -0.7570  0.1210
  111OSM   H18S11527   1.787   4.603   8.841  0.1195 -0.6684 -0.4379
  111OSM   H18T11528   1.709   4.455   8.805 -0.5253  0.6655  0.4999
  111OSM   H18U11529   1.878   4.490   8.735 -0.5716  0.8701 -0.5769
  111OSM    C1F11530   1.629   4.852  10.554  0.1306  0.2085 -0.0656
  111OSM     OF11531   1.657   4.898  10.665  0.3126  0.2830  0.0864
  111OSM    C2F11532   1.559   4.930  10.441 -0.4344  1.0970  0.8775
  111OSM    H2F11533   1.462   4.875  10.433  0.1923  0.0714  0.0468
  111OSM    H2G11534   1.621   4.901  10.353 -0.8340  1.1454  0.5745
  111OSM    C3F11535   1.533   5.081  10.462  0.5323 -0.4863  0.1541
  111OSM    H3F11536   1.616   5.135  10.513 -1.4465  1.6532  1.3715
  111OSM    H3G11537   1.446   5.091  10.531 -1.5085 -1.3103 -2.1628
  111OSM    C4F11538   1.484   5.160  10.335 -0.3583 -0.3444  0.1950
  111OSM    H4F11539   1.450   5.264  10.353  1.8053  0.3821  0.4303
  111OSM    H4G11540   1.393   5.103  10.306 -0.2566 -0.9561  1.0367
  111OSM    C5F11541   1.587   5.162  10.221  0.2209  0.0993  0.2861
  111OSM    H5F11542   1.648   5.069  10.211 -0.6904 -0.3683 -1.2364
  111OSM    H5G11543   1.661   5.233  10.264  1.3147 -0.1095 -1.1448
  111OSM    C6F11544   1.535   5.224  10.086 -0.1447 -0.1396 -0.2345
  111OSM    H6F11545   1.495   5.325  10.106  2.0402  1.0866 -1.7055
  111OSM    H6G11546   1.447   5.171  10.044  0.5712 -2.5322  1.0632
  111OSM    C7F11547   1.644   5.229   9.976  0.3147  0.5906  0.6461
  111OSM    H7F11548   1.678   5.123   9.969 -1.2159 -0.0352  2.0974
  111OSM    H7G11549   1.727   5.300   9.999 -0.7230  1.1949  2.7286
  111OSM    C8F11550   1.582   5.267   9.843 -0.2937  0.4224  0.4574
  111OSM    H8F11551   1.650   5.293   9.759 -1.1144 -0.2318 -0.4429
  111OSM    H8G11552   1.536   5.367   9.858  1.0352  1.3506 -1.2365
  111OSM    C9F11553   1.487   5.168   9.783  0.5724  0.2259 -0.3415
  111OSM    H9F11554   1.478   5.068   9.827 -0.5214 -0.4170 -1.9288
  111OSM   C10F11555   1.416   5.188   9.673  0.4919  0.5644 -0.3315
  111OSM   H10F11556   1.370   5.099   9.628  2.7031 -1.3730  1.0498
  111OSM   C11F11557   1.406   5.309   9.586  0.3515  0.1804 -0.0461
  111OSM   H11F11558   1.454   5.399   9.630 -0.8005  0.5259  0.5424
  111OSM   H11G11559   1.301   5.345   9.583  0.8384  1.6976  0.4464
  111OSM   C12F11560   1.459   5.283   9.439  0.1377 -0.3283 -0.1900
  111OSM   H12F11561   1.471   5.383   9.392 -1.8119 -0.5730 -1.3134
  111OSM   H12G11562   1.380   5.227   9.385 -0.1545 -1.4376  1.3128
  111OSM   C13F11563   1.597   5.213   9.432  0.1807 -0.1034 -0.5238
  111OSM   H13F11564   1.580   5.113   9.478  0.7141  0.9664  2.2100
  111OSM   H13G11565   1.661   5.273   9.500 -0.8017  0.6725 -0.2504
  111OSM   C14F11566   1.668   5.199   9.298 -0.3135  0.1290  0.3389
  111OSM   H14F11567   1.775   5.171   9.304  0.2052  2.2122  1.8351
  111OSM   H14G11568   1.670   5.301   9.254  1.4995  0.0178  0.0784
  111OSM   C15F11569   1.604   5.095   9.206  0.7482  0.0999  0.4738
  111OSM   H15F11570   1.503   5.133   9.180  0.4846  0.1432  1.5162
  111OSM   H15G11571   1.588   5.004   9.269  1.7326 -0.5340 -0.1581
  111OSM   C16F11572   1.687   5.058   9.088  0.1634  0.1767 -0.4914
  111OSM   H16F11573   1.782   5.012   9.125  1.1068  3.9285  2.2999
  111OSM   H16G11574   1.720   5.148   9.032  1.1014  0.7592  0.9393
  111OSM   C17F11575   1.611   4.965   8.995 -0.4528 -0.1301  0.1051
  111OSM   H17F11576   1.504   4.998   8.991 -0.2683  0.4021 -0.9359
  111OSM   H17G11577   1.600   4.872   9.054  1.8833  1.5054  3.4414
  111OSM   C18F11578   1.687   4.946   8.866 -0.4033 -0.0426 -0.2110
  111OSM   H18F11579   1.623   4.916   8.780  1.1464  1.3844 -1.9448
  111OSM   H18G11580   1.778   4.885   8.885 -0.8146  0.0412  2.4253
  111OSM   H18H11581   1.720   5.048   8.835 -1.3912  0.3964  0.1481
  112OSM      N11582   3.025   2.424  11.225  0.7853  0.0201 -0.5118
  112OSM    C1511583   2.995   2.413  11.374  0.5468  0.3697  0.3770
  112OSM   H15A11584   2.918   2.339  11.391  1.2439 -0.4136  0.1852
  112OSM   H15B11585   2.958   2.506  11.414 -1.9293 -0.5841  0.5233
  112OSM   H15C11586   3.080   2.384  11.434 -0.3818 -0.2961  1.4386
  112OSM    C1411587   2.892   2.474  11.167  0.1294 -0.6788 -0.5325
  112OSM   H14A11588   2.815   2.400  11.185  0.0104 -0.9764 -2.1456
  112OSM   H14B11589   2.879   2.501  11.063  0.7054 -3.1657 -1.3268
  112OSM   H14C11590   2.855   2.561  11.219 -1.5600 -2.2418  1.0758
  112OSM    C1311591   3.133   2.530  11.200 -0.3912  0.1126  0.3202
  112OSM   H13A11592   3.216   2.521  11.268 -1.3270 -0.6567  1.3880
  112OSM   H13B11593   3.092   2.630  11.196  1.1657  0.7412 -2.2565
  112OSM   H13C11594   3.174   2.513  11.101 -1.3587 -2.3884  0.2893
  112OSM    C1211595   3.059   2.290  11.175  0.0272 -0.1831  0.3361
  112OSM   H12A11596   2.994   2.215  11.219 -1.6790 -0.3047 -2.2051
  112OSM   H12B11597   3.159   2.278  11.214 -0.4932  1.7566  2.5431
  112OSM    C1111598   3.067   2.268  11.022  0.1281  0.0199  0.2956
  112OSM   H11A11599   2.965   2.269  10.979 -0.1383 -1.6326  0.8147
  112OSM   H11B11600   3.102   2.163  11.015  0.3524  0.0475  0.8938
  112OSM      P11601   3.308   2.330  10.953 -0.0413 -0.4049 -0.4750
  112OSM    O1311602   3.391   2.442  10.900 -0.1232  0.2129  0.1824
  112OSM    O1411603   3.342   2.283  11.090  0.5148 -0.4119 -0.3892
  112OSM    O1111604   3.328   2.211  10.851  0.3076  0.3901  0.2161
  112OSM    O1211605   3.156   2.363  10.959  0.2094  0.1660 -0.3506
  112OSM    C1S11606   3.271   2.221  10.721 -0.3870 -0.3898  0.4859
  112OSM    H1S11607   3.323   2.301  10.664 -1.4465  1.0375  1.4458
  112OSM    H1T11608   3.162   2.243  10.714 -0.5517 -1.6368 -2.4346
  112OSM     NF11609   3.220   2.110  10.510  0.6258  0.2397 -0.2447
  112OSM    HNF11610   3.121   2.107  10.496  0.3465  0.9110  1.3188
  112OSM    C2S11611   3.262   2.087  10.644 -0.5001  0.4690  0.3437
  112OSM    H2S11612   3.367   2.050  10.641 -0.2486  1.2393 -0.5547
  112OSM    C3S11613   3.182   1.985  10.720  0.5446  0.2926  0.3536
  112OSM    H3S11614   3.084   2.035  10.728  0.7564  0.4249  3.4370
  112OSM     O311615   3.216   1.952  10.855  0.1866  0.0133 -0.1459
  112OSM    HO311616   3.279   2.023  10.873 -3.8348  3.2780  2.9969
  112OSM    C4S11617   3.172   1.860  10.639  0.3056 -0.3962 -0.4770
  112OSM    H4S11618   3.266   1.804  10.635  0.0372 -1.1614  2.2020
  112OSM    C5S11619   3.059   1.804  10.588 -0.2025 -0.4378 -0.2219
  112OSM    H5S11620   2.964   1.856  10.604 -0.8884 -0.3276 -3.8413
  112OSM    C6S11621   3.052   1.669  10.520  0.7731 -0.0933  0.1990
  112OSM    H6S11622   2.980   1.615  10.586 -2.5242  2.1074 -1.2927
  112OSM    H6T11623   3.144   1.610  10.535  0.6269 -0.7743 -1.4076
  112OSM    C7S11624   3.002   1.668  10.373  0.2317 -0.1282  0.3716
  112OSM    H7S11625   2.903   1.718  10.369 -0.8625 -2.1122  1.4008
  112OSM    H7T11626   3.011   1.560  10.346 -0.2099 -0.4312  1.4087
  112OSM    C8S11627   3.088   1.742  10.275 -0.0263 -0.4441  0.3161
  112OSM    H8S11628   3.193   1.709  10.289 -0.4947 -1.0162  2.8869
  112OSM    H8T11629   3.074   1.850  10.297  0.4710 -0.3866  0.3566
  112OSM    C9S11630   3.046   1.709  10.124  0.4565 -0.0348 -0.3129
  112OSM    H9S11631   2.935   1.717  10.113  0.3685 -0.9015 -0.0745
  112OSM    H9T11632   3.080   1.604  10.117  1.2750  0.1307  0.9374
  112OSM   C10S11633   3.089   1.811  10.018 -0.2002 -0.4228  0.7115
  112OSM   H10S11634   3.196   1.791   9.994 -0.5213 -0.3245 -0.9103
  112OSM   H10T11635   3.092   1.912  10.063 -1.2742  0.3136 -0.8120
  112OSM   C11S11636   3.019   1.795   9.883  0.2331  0.3407  0.0477
  112OSM   H11S11637   2.915   1.833   9.899  0.7549  1.6444  0.4499
  112OSM   H11T11638   3.015   1.690   9.847 -2.4506  1.0474 -2.1310
  112OSM   C12S11639   3.088   1.869   9.771  0.3614 -0.1189 -0.4489
  112OSM   H12S11640   3.187   1.824   9.749  0.2835 -1.0586  0.9257
  112OSM   H12T11641   3.108   1.971   9.811  0.2130  0.3542 -1.5663
  112OSM   C13S11642   2.999   1.885   9.647 -0.3447  0.4341 -0.3060
  112OSM   H13S11643   2.916   1.950   9.681  0.6468  1.0451  1.0398
  112OSM   H13T11644   2.970   1.782   9.620 -2.4993  0.1012  2.7695
  112OSM   C14S11645   3.071   1.941   9.520 -0.1300  0.0363 -0.5091
  112OSM   H14S11646   3.161   1.879   9.499  0.0052  0.3982 -1.0371
  112OSM   H14T11647   3.111   2.041   9.546  1.4397 -0.4507 -0.9279
  112OSM   C15S11648   2.980   1.950   9.398  0.5217 -0.0598 -0.3095
  112OSM   H15S11649   2.886   2.004   9.422  0.4500 -0.7329  0.9806
  112OSM   H15T11650   2.956   1.841   9.388 -0.6001  0.0356  1.0392
  112OSM   C16S11651   3.039   2.025   9.279 -0.1840 -0.1144  0.6534
  112OSM   H16S11652   3.128   1.969   9.243  0.8786  0.8801  1.6692
  112OSM   H16T11653   3.077   2.124   9.309  0.6756 -0.6522  1.3934
  112OSM   C17S11654   2.941   2.040   9.153  0.4145 -0.4083  0.3704
  112OSM   H17S11655   2.860   2.107   9.188 -0.2246 -1.3114  0.6777
  112OSM   H17T11656   2.909   1.935   9.132  3.5014 -1.2745 -0.5685
  112OSM   C18S11657   2.999   2.085   9.019 -0.5197  0.0585  0.4629
  112OSM   H18S11658   3.088   2.028   8.987 -1.8626 -0.8019 -2.0480
  112OSM   H18T11659   3.024   2.193   9.016  0.5332 -0.1979 -0.7708
  112OSM   H18U11660   2.925   2.064   8.939  0.6164  0.2425 -0.6686
  112OSM    C1F11661   3.301   2.148  10.406 -0.9499  0.4785  0.5126
  112OSM     OF11662   3.420   2.174  10.431  0.1202 -0.1534  0.4369
  112OSM    C2F11663   3.244   2.155  10.265 -0.2555 -0.3813 -0.6143
  112OSM    H2F11664   3.163   2.228  10.244  0.0481  0.5244  1.1728
  112OSM    H2G11665   3.203   2.056  10.235 -3.5791  0.2316  1.4264
  112OSM    C3F11666   3.367   2.186  10.170  0.5410  0.9179  0.1647
  112OSM    H3F11667   3.453   2.116  10.176  0.1004  0.4643  1.5250
  112OSM    H3G11668   3.413   2.287  10.182 -3.5896  3.0180  0.4203
  112OSM    C4F11669   3.307   2.183  10.030 -0.0595 -0.8244  0.2479
  112OSM    H4F11670   3.214   2.244  10.032  0.7640  0.4780  1.3521
  112OSM    H4G11671   3.300   2.081   9.988  0.5566 -1.3157  1.3069
  112OSM    C5F11672   3.415   2.240   9.937 -0.1253  0.6498 -0.5927
  112OSM    H5F11673   3.505   2.184   9.968  0.6362  2.1180 -0.0254
  112OSM    H5G11674   3.440   2.344   9.969 -0.3740  0.2326  1.0276
  112OSM    C6F11675   3.378   2.234   9.791 -0.4144 -0.5399  0.1833
  112OSM    H6F11676   3.344   2.130   9.769 -1.8366 -0.1033  0.1620
  112OSM    H6G11677   3.468   2.258   9.731 -0.5756  1.2637  0.6125
  112OSM    C7F11678   3.268   2.324   9.747 -0.8943  0.0079 -0.1618
  112OSM    H7F11679   3.301   2.427   9.774  2.0892 -0.4224 -1.6934
  112OSM    H7G11680   3.181   2.294   9.809  0.2873  1.8505  2.5822
  112OSM    C8F11681   3.235   2.324   9.596  0.0483  0.1695 -0.6492
  112OSM    H8F11682   3.137   2.373   9.578 -0.1033  0.3835  0.6692
  112OSM    H8G11683   3.220   2.217   9.568 -2.6231 -0.2442  1.9635
  112OSM    C9F11684   3.331   2.402   9.514 -0.1946  0.5640  0.9406
  112OSM    H9F11685   3.349   2.507   9.539  1.8938  0.2462  0.9667
  112OSM   C10F11686   3.401   2.350   9.413  0.5008 -0.3613  0.1882
  112OSM   H10F11687   3.453   2.426   9.352 -1.5895  1.6743  0.7509
  112OSM   C11F11688   3.394   2.209   9.353  0.3869  0.1584 -0.2178
  112OSM   H11F11689   3.327   2.148   9.417 -0.3130 -0.7710 -1.7748
  112OSM   H11G11690   3.498   2.168   9.357  0.3743 -0.0231 -1.2953
  112OSM   C12F11691   3.344   2.197   9.207  0.8361 -0.7793  1.3647
  112OSM   H12F11692   3.279   2.285   9.186  0.2395 -1.9327 -2.2802
  112OSM   H12G11693   3.280   2.108   9.193  1.2886 -0.9254  0.1478
  112OSM   C13F11694   3.464   2.184   9.107  0.3529 -0.3312 -0.3430
  112OSM   H13F11695   3.514   2.085   9.099  0.2932 -0.5471  1.4526
  112OSM   H13G11696   3.530   2.271   9.130 -1.3520  1.1541 -0.8580
  112OSM   C14F11697   3.415   2.203   8.962 -0.7798  0.1500  1.2816
  112OSM   H14F11698   3.369   2.301   8.938 -1.1393 -0.3579 -0.2227
  112OSM   H14G11699   3.345   2.123   8.930  0.0999  0.2780 -1.1389
  112OSM   C15F11700   3.538   2.199   8.868  0.0700 -0.5197  0.0157
  112OSM   H15F11701   3.603   2.113   8.895  0.9428  0.6740  1.9243
  112OSM   H15G11702   3.591   2.297   8.866 -0.2038 -0.3705 -0.0568
  112OSM   C16F11703   3.494   2.166   8.720  0.1591 -0.0218  0.3053
  112OSM   H16F11704   3.452   2.064   8.706  0.6008 -0.1257 -0.2813
  112OSM   H16G11705   3.585   2.166   8.657 -0.4893  1.3446 -0.6900
  112OSM   C17F11706   3.399   2.273   8.657 -0.2187  0.2010  0.4485
  112OSM   H17F11707   3.443   2.373   8.677  0.4153  0.2152 -0.9244
  112OSM   H17G11708   3.302   2.272   8.713 -1.5613 -0.8975 -1.7541
  112OSM   C18F11709   3.366   2.232   8.516  0.7121  0.2828  0.3578
  112OSM   H18F11710   3.296   2.145   8.520  0.6229  0.2914 -0.6327
  112OSM   H18G11711   3.455   2.207   8.455  0.7088  1.5496 -0.2035
  112OSM   H18H11712   3.325   2.318   8.459  0.1056 -0.6337 -0.6337
  113OSM      N11713   5.897   1.067  11.229 -0.3211 -0.0561 -0.1079
  113OSM    C1511714   5.775   1.146  11.268 -0.1126 -0.0167  0.6587
  113OSM   H15A11715   5.764   1.239  11.214 -1.7069 -0.4472  0.1978
  113OSM   H15B11716   5.758   1.172  11.372  0.2204 -0.1439  0.7441
  113OSM   H15C11717   5.684   1.092  11.248 -0.2891  0.4847  0.0891
  113OSM    C1411718   6.018   1.148  11.268 -0.1967  0.4961 -0.1909
  113OSM   H14A11719   6.015   1.249  11.228  1.3307  1.2939  1.5506
  113OSM   H14B11720   6.112   1.104  11.237 -0.0863  1.1409 -0.7857
  113OSM   H14C11721   6.023   1.158  11.376  0.5172  1.5606 -0.3078
  113OSM    C1311722   5.884   0.944  11.313  0.3164  0.1237 -0.1810
  113OSM   H13A11723   5.796   0.892  11.281  0.5878  0.6689 -1.9314
  113OSM   H13B11724   5.869   0.958  11.419  1.0887 -0.9823  0.0864
  113OSM   H13C11725   5.965   0.874  11.298  0.0609 -0.1081 -0.4923
  113OSM    C1211726   5.910   1.035  11.077 -0.5112  0.2648 -0.8382
  113OSM   H12A11727   6.001   0.978  11.071 -0.0006  0.8690  0.5874
  113OSM   H12B11728   5.922   1.124  11.016 -1.1503  0.2992 -0.9249
  113OSM    C1111729   5.793   0.955  11.017  0.2418 -0.0530  0.2852
  113OSM   H11A11730   5.790   0.967  10.906  0.8827  0.0363  0.2743
  113OSM   H11B11731   5.701   1.010  11.047 -0.8840 -0.9299 -1.3370
  113OSM      P11732   5.860   0.701  10.980 -0.0665  0.0579 -0.0062
  113OSM    O1311733   5.947   0.628  11.074 -0.6683 -0.6968 -0.2038
  113OSM    O1411734   5.760   0.623  10.904 -0.1799  0.0908  0.0326
  113OSM    O1111735   5.948   0.782  10.885 -0.0854 -0.7345  0.2412
  113OSM    O1211736   5.791   0.818  11.066  0.1087 -0.5700  0.0238
  113OSM    C1S11737   6.005   0.721  10.768 -0.5194  0.0444  0.1134
  113OSM    H1S11738   5.937   0.647  10.720  0.9016 -0.9813 -0.3563
  113OSM    H1T11739   6.109   0.688  10.783  0.6260  2.9852 -0.6033
  113OSM     NF11740   6.028   0.769  10.528 -0.5278  0.2177 -0.1032
  113OSM    HNF11741   6.116   0.771  10.482  0.1242 -2.1986  0.8587
  113OSM    C2S11742   6.016   0.830  10.662  0.2185  0.5289 -0.1201
  113OSM    H2S11743   5.920   0.884  10.675  0.3249  0.6614  0.1380
  113OSM    C3S11744   6.130   0.937  10.696  0.0800 -0.5247  0.1631
  113OSM    H3S11745   6.230   0.894  10.717  2.8783  5.0742  0.0627
  113OSM     O311746   6.094   1.007  10.817  0.0349  0.0194  0.5079
  113OSM    HO311747   6.038   0.939  10.854  2.5948 -2.5028  0.1019
  113OSM    C4S11748   6.135   1.043  10.587  0.4614 -0.0824  0.2493
  113OSM    H4S11749   6.056   1.120  10.583  0.0925 -0.5066 -1.9026
  113OSM    C5S11750   6.235   1.054  10.502 -0.5969 -0.0051  0.3615
  113OSM    H5S11751   6.324   0.989  10.507 -0.1809  0.3591 -1.6517
  113OSM    C6S11752   6.240   1.162  10.391 -0.1419 -0.3730 -0.7205
  113OSM    H6S11753   6.338   1.212  10.379 -0.7299  0.4673 -2.2358
  113OSM    H6T11754   6.161   1.234  10.420 -0.7733 -1.2232 -0.2824
  113OSM    C7S11755   6.225   1.102  10.254  0.4087 -0.4638 -0.5344
  113OSM    H7S11756   6.134   1.039  10.241  0.5185 -1.1132  1.5554
  113OSM    H7T11757   6.308   1.033  10.227  0.0585 -0.2471 -2.2580
  113OSM    C8S11758   6.205   1.210  10.151  0.0777  0.4761  0.9457
  113OSM    H8S11759   6.292   1.279  10.143  1.3545 -1.2033 -0.5558
  113OSM    H8T11760   6.115   1.267  10.182  0.9048  2.3993  0.0008
  113OSM    C9S11761   6.191   1.159  10.012  0.3604  0.1857  0.0704
  113OSM    H9S11762   6.114   1.080  10.014 -1.5461  1.9267 -0.8985
  113OSM    H9T11763   6.285   1.105   9.989  0.8801  0.8172  0.6356
  113OSM   C10S11764   6.173   1.258   9.900 -0.2092  0.1934  0.1104
  113OSM   H10S11765   6.248   1.339   9.909 -0.2333  0.1269  0.9445
  113OSM   H10T11766   6.073   1.305   9.908  0.0951  0.5174  2.6820
  113OSM   C11S11767   6.174   1.190   9.762 -0.1801  0.6166  0.5343
  113OSM   H11S11768   6.110   1.102   9.742 -0.0787  0.5030  0.7061
  113OSM   H11T11769   6.277   1.152   9.744 -0.7808 -0.4520 -0.7866
  113OSM   C12S11770   6.148   1.289   9.649  0.1962 -0.2973 -0.1670
  113OSM   H12S11771   6.220   1.372   9.665  0.0916 -0.2408  0.0147
  113OSM   H12T11772   6.046   1.331   9.661  0.0778 -0.5848 -0.1513
  113OSM   C13S11773   6.169   1.233   9.516 -0.0458 -0.4824 -0.1112
  113OSM   H13S11774   6.108   1.141   9.502 -1.3283  0.5695 -1.7140
  113OSM   H13T11775   6.279   1.222   9.503 -0.1156 -0.4062 -0.8193
  113OSM   C14S11776   6.110   1.315   9.405  0.1633  0.5792  0.6746
  113OSM   H14S11777   6.132   1.420   9.434  0.5521  0.5656  0.4390
  113OSM   H14T11778   6.001   1.295   9.398 -0.4448  3.4594  0.4420
  113OSM   C15S11779   6.173   1.276   9.269  0.1865 -0.5937 -0.1224
  113OSM   H15S11780   6.137   1.178   9.233 -0.0734 -0.2000 -0.9792
  113OSM   H15T11781   6.280   1.257   9.292 -0.7054 -1.5162  3.9584
  113OSM   C16S11782   6.146   1.381   9.162  0.8398 -0.0566  0.1576
  113OSM   H16S11783   6.207   1.363   9.071 -1.7419 -1.6313 -1.3805
  113OSM   H16T11784   6.175   1.482   9.198 -0.2549  0.1906  0.3733
  113OSM   C17S11785   5.993   1.380   9.125 -0.4788  0.0590 -0.3055
  113OSM   H17S11786   5.936   1.411   9.215  1.2943  1.0114  0.5457
  113OSM   H17T11787   5.969   1.273   9.105 -0.7461  0.1799 -0.6341
  113OSM   C18S11788   5.941   1.454   8.998  0.2737  0.4837  0.2344
  113OSM   H18S11789   5.831   1.441   8.992  0.5363 -2.1372 -0.1477
  113OSM   H18T11790   5.987   1.407   8.909  1.5824  0.2564  1.0110
  113OSM   H18U11791   5.974   1.560   9.009  1.7603 -0.1537  2.6507
  113OSM    C1F11792   5.921   0.714  10.468 -0.1215 -0.1801  0.1022
  113OSM     OF11793   5.809   0.719  10.511  0.0071 -0.5920  0.1270
  113OSM    C2F11794   5.949   0.648  10.336  0.2052  0.1751  0.3227
  113OSM    H2F11795   5.899   0.549  10.343  2.0335 -0.7865  0.4244
  113OSM    H2G11796   6.057   0.634  10.313  0.2956  1.9230 -0.4461
  113OSM    C3F11797   5.883   0.724  10.219 -0.0402 -0.3620  0.4836
  113OSM    H3F11798   5.932   0.822  10.201 -0.8823 -0.4223 -2.7564
  113OSM    H3G11799   5.777   0.751  10.239 -0.0704  0.3942 -0.6347
  113OSM    C4F11800   5.895   0.660  10.083 -0.3200 -0.2172  0.4876
  113OSM    H4F11801   5.819   0.580  10.073 -0.3830 -0.0395 -0.6298
  113OSM    H4G11802   5.989   0.601  10.080 -0.2880 -0.1272 -1.8612
  113OSM    C5F11803   5.901   0.760   9.968  0.1444  0.1527  1.2104
  113OSM    H5F11804   5.986   0.829   9.982  1.0547 -0.3914 -1.1617
  113OSM    H5G11805   5.801   0.807   9.957 -0.1662 -0.6453  0.4328
  113OSM    C6F11806   5.957   0.699   9.834 -0.7327 -0.3670  0.2739
  113OSM    H6F11807   6.048   0.637   9.846 -0.9251 -0.7109 -0.0396
  113OSM    H6G11808   5.986   0.792   9.780 -1.4793 -0.3440 -0.1036
  113OSM    C7F11809   5.849   0.645   9.745 -0.1529  0.2377 -0.2197
  113OSM    H7F11810   5.763   0.714   9.760  0.9219  1.6237 -0.2082
  113OSM    H7G11811   5.816   0.548   9.790  0.1458  1.0586  1.9125
  113OSM    C8F11812   5.886   0.647   9.593  0.2388 -0.0977 -0.0393
  113OSM    H8F11813   5.917   0.745   9.551  1.6805 -0.4589  0.1455
  113OSM    H8G11814   5.784   0.626   9.554  1.2319 -1.2730 -2.1351
  113OSM    C9F11815   5.980   0.535   9.543  0.3704 -0.0370 -0.3299
  113OSM    H9F11816   6.067   0.516   9.608  0.8921  0.0093 -0.9967
  113OSM   C10F11817   5.970   0.463   9.432  0.1371  1.7985 -0.1499
  113OSM   H10F11818   6.044   0.386   9.403 -1.3679  0.8037 -1.6038
  113OSM   C11F11819   5.857   0.479   9.326 -0.0450  0.0943 -0.0211
  113OSM   H11F11820   5.843   0.588   9.317 -0.6567  0.0472  0.2942
  113OSM   H11G11821   5.764   0.433   9.368 -0.8099 -0.4319 -2.1859
  113OSM   C12F11822   5.898   0.423   9.194  0.0498  0.1705  0.5718
  113OSM   H12F11823   5.827   0.472   9.123 -0.0614  0.1331  0.6555
  113OSM   H12G11824   5.878   0.314   9.180  1.0133  0.0528  0.0670
  113OSM   C13F11825   6.043   0.457   9.144 -0.3465 -0.2127 -0.1112
  113OSM   H13F11826   6.105   0.382   9.197 -1.1943 -0.2644  0.8502
  113OSM   H13G11827   6.075   0.562   9.163 -0.2987  0.0379 -1.4757
  113OSM   C14F11828   6.069   0.420   8.997 -0.2359 -0.0122  0.9663
  113OSM   H14F11829   6.023   0.321   8.976  1.0912 -0.9775  2.4774
  113OSM   H14G11830   6.177   0.422   8.972 -0.4819  0.1463 -0.1736
  113OSM   C15F11831   6.002   0.525   8.903 -1.0737 -0.1013  0.5616
  113OSM   H15F11832   6.031   0.629   8.930 -0.9030  0.1061 -0.3862
  113OSM   H15G11833   5.894   0.507   8.920 -1.0882  0.9787  1.7282
  113OSM   C16F11834   6.015   0.513   8.751  0.0203 -0.3467 -0.0568
  113OSM   H16F11835   6.123   0.514   8.725  0.4194 -1.4040  1.4562
  113OSM   H16G11836   5.983   0.613   8.714 -1.3184 -1.5208 -2.3383
  113OSM   C17F11837   5.934   0.398   8.690 -0.3337 -0.1962  0.6171
  113OSM   H17F11838   5.831   0.389   8.730  0.1745 -2.2563  1.5722
  113OSM   H17G11839   5.979   0.303   8.724 -2.9264 -1.4691  0.6743
  113OSM   C18F11840   5.920   0.399   8.539  0.0118 -0.4621  0.5355
  113OSM   H18F11841   5.888   0.500   8.506  0.8554 -0.0772  0.8783
  113OSM   H18G11842   5.842   0.322   8.517 -0.1590 -0.6283  1.6562
  113OSM   H18H11843   6.002   0.362   8.474  0.0230  0.5627 -0.0685
  114OSM      N11844   1.741   1.242  10.912 -0.0993 -0.0478 -0.4643
  114OSM    C1511845   1.726   1.100  10.864 -0.7688  0.0416 -0.1502
  114OSM   H15A11846   1.623   1.066  10.864  0.3942 -3.9587  0.5988
  114OSM   H15B11847   1.780   1.026  10.921 -0.6606 -1.5372 -2.1776
  114OSM   H15C11848   1.763   1.085  10.764  0.3671 -0.4960  0.3290
  114OSM    C1411849   1.725   1.238  11.063  0.3616 -0.0723  0.6911
  114OSM   H14A11850   1.633   1.185  11.081  0.1712 -0.8605 -2.1317
  114OSM   H14B11851   1.717   1.336  11.108 -0.4785  0.7758 -1.1933
  114OSM   H14C11852   1.805   1.176  11.100 -0.4535 -0.9923  0.9663
  114OSM    C1311853   1.879   1.291  10.889  0.0401 -0.1021  0.1101
  114OSM   H13A11854   1.916   1.269  10.790  1.9809 -0.7427  0.9217
  114OSM   H13B11855   1.956   1.256  10.956  0.7117  0.3355 -0.4122
  114OSM   H13C11856   1.882   1.399  10.896 -0.3507 -0.1521  1.1565
  114OSM    C1211857   1.634   1.344  10.851  0.0070 -0.0464 -0.3854
  114OSM   H12A11858   1.530   1.320  10.860  0.2074 -0.8339 -0.1322
  114OSM   H12B11859   1.654   1.337  10.745  0.1644  2.0133 -0.5300
  114OSM    C1111860   1.654   1.501  10.870  0.0334  0.1549 -0.2284
  114OSM   H11A11861   1.640   1.504  10.980  2.5098 -0.3127  0.1585
  114OSM   H11B11862   1.569   1.560  10.829 -0.5120  1.0482  2.0149
  114OSM      P11863   1.817   1.706  10.880  0.4023 -0.0453  0.0280
  114OSM    O1311864   1.789   1.722  11.025 -0.5760  0.0932 -0.0590
  114OSM    O1411865   1.948   1.747  10.835  0.1218 -0.4533  0.1411
  114OSM    O1111866   1.702   1.788  10.810 -0.2012 -0.0833  0.7809
  114OSM    O1211867   1.783   1.554  10.835 -0.3749 -0.2843 -0.0166
  114OSM    C1S11868   1.701   1.929  10.792  0.3759 -0.3401 -0.2018
  114OSM    H1S11869   1.741   1.971  10.887 -0.8878  2.4691 -0.7977
  114OSM    H1T11870   1.602   1.977  10.776 -0.6437 -2.1205  0.5062
  114OSM     NF11871   1.805   2.124  10.668 -0.4725  0.5058  0.3437
  114OSM    HNF11872   1.740   2.170  10.609 -0.5759  0.8661  0.7392
  114OSM    C2S11873   1.787   1.977  10.670  0.2119 -1.3712  0.2030
  114OSM    H2S11874   1.890   1.937  10.685 -0.2169 -2.6028 -0.0676
  114OSM    C3S11875   1.722   1.922  10.536  0.2502  0.0026 -0.6633
  114OSM    H3S11876   1.630   1.979  10.512 -0.1878 -0.9541 -1.2893
  114OSM     O311877   1.667   1.788  10.541  0.0269  0.0054  0.1961
  114OSM    HO311878   1.676   1.762  10.633 -2.8122 -1.3276  0.1924
  114OSM    C4S11879   1.816   1.942  10.424  0.1846  0.8756 -0.1422
  114OSM    H4S11880   1.914   1.900  10.451 -0.1534  0.2353  0.1001
  114OSM    C5S11881   1.797   2.019  10.312  0.6823 -0.1705 -0.7184
  114OSM    H5S11882   1.699   2.064  10.290 -0.4942 -2.6227 -0.8468
  114OSM    C6S11883   1.900   2.041  10.215 -0.0734 -0.3831 -0.4928
  114OSM    H6S11884   1.999   1.996  10.235  0.8883  2.2737  1.2164
  114OSM    H6T11885   1.932   2.147  10.212 -0.6788 -0.0881  1.4799
  114OSM    C7S11886   1.855   1.995  10.079 -0.1345 -0.0941  0.5078
  114OSM    H7S11887   1.751   2.029  10.059  0.3039 -0.0490 -2.1122
  114OSM    H7T11888   1.859   1.884  10.075 -0.3543 -0.0765 -0.9821
  114OSM    C8S11889   1.939   2.044   9.965  0.8716  0.2861 -0.5474
  114OSM    H8S11890   2.040   2.050  10.011  2.5199  4.3585 -4.0274
  114OSM    H8T11891   1.925   2.151   9.939  1.7429  0.5916  0.1665
  114OSM    C9S11892   1.930   1.952   9.841  0.5627 -1.1825 -0.1266
  114OSM    H9S11893   1.946   1.845   9.868  1.4324 -0.8693  0.6653
  114OSM    H9T11894   2.011   1.979   9.770  0.8006 -2.0338 -0.1919
  114OSM   C10S11895   1.799   1.956   9.763 -0.1115 -0.8030 -0.0057
  114OSM   H10S11896   1.774   2.062   9.741  1.3435 -0.2954  0.7013
  114OSM   H10T11897   1.713   1.924   9.826 -0.9405  1.4716  0.1024
  114OSM   C11S11898   1.795   1.870   9.642 -0.2414 -0.2502  0.0588
  114OSM   H11S11899   1.788   1.763   9.673 -1.2947 -0.5319 -1.0570
  114OSM   H11T11900   1.892   1.871   9.587  0.1747  1.7596  0.7688
  114OSM   C12S11901   1.693   1.911   9.542 -0.4988 -0.7381 -0.1665
  114OSM   H12S11902   1.716   2.013   9.505  1.5651 -0.9173  0.5295
  114OSM   H12T11903   1.596   1.898   9.595 -0.3097  0.9590  0.6606
  114OSM   C13S11904   1.695   1.819   9.431  0.7995  0.6389 -0.0479
  114OSM   H13S11905   1.680   1.715   9.466  0.6661  0.9251  0.7678
  114OSM   H13T11906   1.800   1.822   9.395  0.8972  0.2391  0.1988
  114OSM   C14S11907   1.594   1.867   9.323  0.2124  0.1174 -0.0996
  114OSM   H14S11908   1.602   1.977   9.306  0.1086  0.0597 -0.5164
  114OSM   H14T11909   1.498   1.839   9.371  0.4811  0.4308  0.6452
  114OSM   C15S11910   1.620   1.786   9.197  0.2491  0.3825 -1.0867
  114OSM   H15S11911   1.524   1.798   9.142 -0.4350  0.3179  0.0577
  114OSM   H15T11912   1.623   1.678   9.224  1.5182  0.4801 -0.8003
  114OSM   C16S11913   1.745   1.832   9.131  0.2936  0.5742  0.4464
  114OSM   H16S11914   1.836   1.827   9.195  1.2276  2.8679 -0.5907
  114OSM   H16T11915   1.742   1.937   9.097  1.1019  0.5078  0.1282
  114OSM   C17S11916   1.757   1.762   8.991 -0.2480 -0.2829 -0.5205
  114OSM   H17S11917   1.664   1.764   8.930 -0.2965  0.0922 -0.4391
  114OSM   H17T11918   1.778   1.654   9.003  2.1874  0.2713  1.1160
  114OSM   C18S11919   1.877   1.805   8.909  0.0227 -0.3457 -0.0406
  114OSM   H18S11920   1.969   1.830   8.966 -1.0186  0.6427  1.2454
  114OSM   H18T11921   1.854   1.899   8.855  3.5276  0.4410 -0.3755
  114OSM   H18U11922   1.895   1.732   8.827 -1.2594 -2.2096  1.2625
  114OSM    C1F11923   1.880   2.184  10.762  0.3448 -0.6901 -0.1321
  114OSM     OF11924   1.945   2.120  10.839 -0.3186  0.5604 -0.7480
  114OSM    C2F11925   1.879   2.335  10.759  0.0454 -0.1703 -0.1619
  114OSM    H2F11926   1.883   2.377  10.862 -0.3042 -1.7444  0.5117
  114OSM    H2G11927   1.796   2.383  10.704  1.2970  0.5372 -1.5179
  114OSM    C3F11928   2.014   2.394  10.717 -0.4517  0.0260  0.4802
  114OSM    H3F11929   2.094   2.347  10.777 -0.2324 -0.8875 -0.4986
  114OSM    H3G11930   2.018   2.503  10.735 -2.0519 -0.2411  2.9157
  114OSM    C4F11931   2.036   2.372  10.571 -0.0470  0.3080  0.4205
  114OSM    H4F11932   1.961   2.431  10.514  0.5164  1.3464  0.7120
  114OSM    H4G11933   2.019   2.268  10.536  1.0514  0.4636 -0.6476
  114OSM    C5F11934   2.182   2.412  10.539  0.3052  0.0762 -0.2226
  114OSM    H5F11935   2.247   2.342  10.597  0.9767 -1.4725 -2.7112
  114OSM    H5G11936   2.195   2.519  10.562 -0.1993  0.0552  0.1708
  114OSM    C6F11937   2.218   2.389  10.391 -0.0465 -0.2631 -0.4724
  114OSM    H6F11938   2.147   2.456  10.339 -1.3702 -1.5809 -0.4262
  114OSM    H6G11939   2.185   2.285  10.372 -1.8337  0.2963 -0.5715
  114OSM    C7F11940   2.365   2.407  10.355 -0.1417 -0.0406  0.0237
  114OSM    H7F11941   2.375   2.371  10.250 -1.1614  0.4742 -0.2607
  114OSM    H7G11942   2.424   2.352  10.431 -0.4470 -1.4854 -0.7444
  114OSM    C8F11943   2.405   2.555  10.363  0.4077  0.0426  0.4994
  114OSM    H8F11944   2.359   2.587  10.459 -0.6227 -0.7205  0.2670
  114OSM    H8G11945   2.342   2.593  10.280 -2.5531  0.9903  3.0025
  114OSM    C9F11946   2.553   2.584  10.351 -0.6944 -0.3930 -0.1087
  114OSM    H9F11947   2.610   2.586  10.445 -0.4132 -1.6050 -0.2379
  114OSM   C10F11948   2.622   2.627  10.240 -0.1775 -0.3060  0.6267
  114OSM   H10F11949   2.727   2.657  10.250 -0.5257  1.9773 -1.4199
  114OSM   C11F11950   2.570   2.650  10.103 -0.0799  0.9153  0.8108
  114OSM   H11F11951   2.556   2.758  10.081 -0.6367  0.5286 -0.8813
  114OSM   H11G11952   2.466   2.612  10.089  0.3598  0.5655 -2.1519
  114OSM   C12F11953   2.660   2.595   9.992 -0.8211  0.8804  0.4718
  114OSM   H12F11954   2.634   2.496   9.949  3.4707 -0.6919  1.0068
  114OSM   H12G11955   2.770   2.591  10.003 -0.7410  0.0471 -0.4434
  114OSM   C13F11956   2.662   2.685   9.862  0.6347  0.0048  0.3324
  114OSM   H13F11957   2.733   2.639   9.791 -1.0616 -0.0927 -1.3986
  114OSM   H13G11958   2.692   2.789   9.890 -0.1616  0.2653  0.2645
  114OSM   C14F11959   2.532   2.704   9.786  0.4292 -0.4717  0.0005
  114OSM   H14F11960   2.517   2.809   9.753  0.2986 -1.2336 -2.6026
  114OSM   H14G11961   2.444   2.668   9.843  0.5850 -1.1061 -0.1449
  114OSM   C15F11962   2.528   2.618   9.658  0.6809 -0.1494  0.2915
  114OSM   H15F11963   2.544   2.510   9.674  1.0781 -0.3568 -1.3454
  114OSM   H15G11964   2.607   2.664   9.595 -0.6633  2.9736  0.6933
  114OSM   C16F11965   2.391   2.634   9.583  0.3843  0.2255  0.5537
  114OSM   H16F11966   2.366   2.742   9.587  1.0435  0.3654  4.1449
  114OSM   H16G11967   2.313   2.579   9.640 -0.7538 -0.0773 -1.2221
  114OSM   C17F11968   2.388   2.574   9.440 -1.0546  0.1994 -0.4941
  114OSM   H17F11969   2.389   2.463   9.445  1.1205  0.1281 -1.5029
  114OSM   H17G11970   2.483   2.604   9.390 -0.4912 -1.3513 -0.4211
  114OSM   C18F11971   2.276   2.620   9.348 -0.9004  0.4023  0.1207
  114OSM   H18F11972   2.306   2.582   9.248  1.7589 -0.1099  1.0256
  114OSM   H18G11973   2.273   2.731   9.350 -0.6059  0.4229 -0.2970
  114OSM   H18H11974   2.180   2.576   9.382 -2.0364  3.0797  0.6338
  115OSM      N11975   4.366   2.396  10.772 -0.1148  0.1366 -0.4742
  115OSM    C1511976   4.297   2.434  10.645 -0.8316  0.1248  0.0770
  115OSM   H15A11977   4.354   2.381  10.570  0.0420  1.0466  0.0601
  115OSM   H15B11978   4.309   2.541  10.633  0.2953 -0.0806 -0.7624
  115OSM   H15C11979   4.197   2.394  10.640 -0.9092  0.0472  1.6737
  115OSM    C1411980   4.302   2.474  10.884  0.0702 -0.4432  0.2391
  115OSM   H14A11981   4.318   2.427  10.979  0.9033  0.2187  0.4448
  115OSM   H14B11982   4.194   2.482  10.877  0.0402  0.1200  1.2234
  115OSM   H14C11983   4.352   2.568  10.900  0.2926 -0.7185  1.1815
  115OSM    C1311984   4.338   2.253  10.807 -0.3002 -0.5130 -0.0689
  115OSM   H13A11985   4.381   2.181  10.738 -1.3321  0.0352 -1.3410
  115OSM   H13B11986   4.233   2.231  10.795  0.1817 -2.0831 -2.0000
  115OSM   H13C11987   4.378   2.222  10.902 -0.8927 -0.0521  0.3442
  115OSM    C1211988   4.519   2.418  10.763  0.0061  0.7821 -0.0978
  115OSM   H12A11989   4.554   2.513  10.728  0.2156  1.7773  2.5543
  115OSM   H12B11990   4.556   2.342  10.696  1.0326 -2.2825  3.5465
  115OSM    C1111991   4.602   2.397  10.894  0.1224  0.5571  0.4798
  115OSM   H11A11992   4.572   2.477  10.966 -2.0732  0.3233 -0.0993
  115OSM   H11B11993   4.710   2.406  10.871  0.0047  0.9422  0.0460
  115OSM      P11994   4.685   2.180  11.017  0.0566 -0.1964 -0.0022
  115OSM    O1311995   4.802   2.259  11.056 -0.1029 -0.3459 -0.5476
  115OSM    O1411996   4.633   2.086  11.118  0.1015 -0.8833 -0.3621
  115OSM    O1111997   4.723   2.086  10.900  0.0583  0.0561  0.1548
  115OSM    O1211998   4.568   2.271  10.959 -0.2573 -0.0117 -0.5464
  115OSM    C1S11999   4.652   2.044  10.785  0.4526 -0.0957  0.1902
  115OSM    H1S12000   4.554   2.096  10.774 -0.3649 -1.8006 -1.0489
  115OSM    H1T12001   4.625   1.937  10.795 -0.5034  0.2435  1.5614
  115OSM     NF12002   4.652   2.034  10.547  0.2260 -0.0458  0.6389
  115OSM    HNF12003   4.649   1.940  10.512 -0.2419  0.4799 -0.7958
  115OSM    C2S12004   4.732   2.065  10.659 -0.4111 -0.1787  0.6418
  115OSM    H2S12005   4.767   2.170  10.656  0.9917 -0.6025  1.3201
  115OSM    C3S12006   4.865   1.969  10.664 -0.2025 -0.4100 -0.0220
  115OSM    H3S12007   4.836   1.862  10.653  1.7199 -1.0174  0.4040
  115OSM     O312008   4.932   1.968  10.792 -0.6210 -0.4946  0.7145
  115OSM    HO312009   4.866   2.009  10.849 -0.4960  1.7042 -0.5904
  115OSM    C4S12010   4.959   1.990  10.549  0.1635  0.3770  1.0198
  115OSM    H4S12011   4.926   1.922  10.469  2.1284 -0.6846  1.0502
  115OSM    C5S12012   5.071   2.055  10.536  0.4134 -0.0915  0.2246
  115OSM    H5S12013   5.100   2.093  10.635 -0.8607 -0.1912  0.6580
  115OSM    C6S12014   5.172   2.068  10.419  0.9989 -0.0062  0.2327
  115OSM    H6S12015   5.273   2.041  10.458  2.1173  1.8212 -1.1776
  115OSM    H6T12016   5.176   2.175  10.388 -0.5283 -0.1976 -0.7013
  115OSM    C7S12017   5.137   1.972  10.305  0.2469 -0.7084  0.1022
  115OSM    H7S12018   5.035   2.002  10.273  0.7645  0.2856 -0.6716
  115OSM    H7T12019   5.129   1.875  10.359  1.0230 -0.7425  0.1710
  115OSM    C8S12020   5.225   1.955  10.183  0.5507  0.1330  0.1192
  115OSM    H8S12021   5.171   1.888  10.113 -2.3984  1.1190  1.2909
  115OSM    H8T12022   5.324   1.914  10.211  1.0130  0.5865 -0.8384
  115OSM    C9S12023   5.245   2.079  10.095 -0.4901 -0.3069  0.0417
  115OSM    H9S12024   5.262   2.167  10.161  0.4992 -1.9773  2.1015
  115OSM    H9T12025   5.158   2.100  10.029 -1.0965 -0.3052  0.8329
  115OSM   C10S12026   5.378   2.059  10.017  0.2983 -0.2651  0.6842
  115OSM   H10S12027   5.450   2.015  10.090  0.2652 -1.6678 -0.0861
  115OSM   H10T12028   5.415   2.158   9.984  1.4652 -1.0153 -0.3684
  115OSM   C11S12029   5.352   1.974   9.890 -0.6282  1.0621  1.0890
  115OSM   H11S12030   5.250   1.997   9.852  0.5430 -0.4564 -3.6576
  115OSM   H11T12031   5.359   1.865   9.913 -1.4392  0.7797  0.0707
  115OSM   C12S12032   5.453   1.996   9.780 -0.6173  0.4669 -0.2523
  115OSM   H12S12033   5.551   1.954   9.811 -0.6348 -0.4691 -1.3773
  115OSM   H12T12034   5.471   2.101   9.748 -0.2797  0.0569 -1.4772
  115OSM   C13S12035   5.397   1.928   9.647 -0.1927  0.5119  0.1450
  115OSM   H13S12036   5.302   1.979   9.622  0.6974  2.7453  1.0224
  115OSM   H13T12037   5.381   1.825   9.687 -0.1384  0.6375  0.4980
  115OSM   C14S12038   5.493   1.920   9.530 -0.1591  0.4285 -0.4306
  115OSM   H14S12039   5.479   1.830   9.467  0.9238 -1.3847  1.7532
  115OSM   H14T12040   5.595   1.897   9.568 -0.2497 -0.6547 -0.8161
  115OSM   C15S12041   5.508   2.055   9.462 -0.5308  0.0762 -0.1112
  115OSM   H15S12042   5.535   2.141   9.527  1.2363 -0.9868  0.6462
  115OSM   H15T12043   5.407   2.069   9.417 -1.3224 -0.9817  1.2560
  115OSM   C16S12044   5.602   2.052   9.344 -0.5860  0.1336  0.1272
  115OSM   H16S12045   5.587   1.972   9.268 -0.2836  0.9856 -0.8568
  115OSM   H16T12046   5.702   2.029   9.386 -1.1582 -2.0308  0.4206
  115OSM   C17S12047   5.609   2.177   9.254  0.2600 -0.5076 -0.4208
  115OSM   H17S12048   5.604   2.255   9.333 -0.3519 -2.9787  2.1354
  115OSM   H17T12049   5.513   2.190   9.199 -0.3580 -0.2414  0.6922
  115OSM   C18S12050   5.730   2.190   9.162 -0.7298  0.1120 -0.4444
  115OSM   H18S12051   5.745   2.289   9.113  0.0348 -0.4426 -1.3527
  115OSM   H18T12052   5.733   2.101   9.096 -0.1026 -0.1680 -0.0506
  115OSM   H18U12053   5.810   2.196   9.238 -3.1133  1.7904  2.1459
  115OSM    C1F12054   4.543   2.101  10.509  0.6826 -0.1206  0.5008
  115OSM     OF12055   4.540   2.211  10.553 -0.8890 -0.1265  0.1736
  115OSM    C2F12056   4.432   2.032  10.433  0.1426  0.2653  0.8606
  115OSM    H2F12057   4.393   1.946  10.491  1.0865  0.4127  1.7448
  115OSM    H2G12058   4.481   1.995  10.340  0.8635 -0.6248  1.5847
  115OSM    C3F12059   4.306   2.119  10.400  0.4452 -0.2904 -0.3345
  115OSM    H3F12060   4.280   2.172  10.494  1.1118 -0.2353 -0.1725
  115OSM    H3G12061   4.220   2.055  10.372  1.8737 -2.1800 -0.5938
  115OSM    C4F12062   4.320   2.225  10.285 -0.1727  0.1097 -0.9026
  115OSM    H4F12063   4.419   2.276  10.291  0.9595 -1.8585 -2.0068
  115OSM    H4G12064   4.242   2.303  10.297  0.7507  0.6715  2.6640
  115OSM    C5F12065   4.318   2.159  10.155  0.4290 -0.7903  0.0275
  115OSM    H5F12066   4.233   2.089  10.144  0.4502 -0.9759  0.9186
  115OSM    H5G12067   4.412   2.107  10.125  1.5042  0.1249  1.6225
  115OSM    C6F12068   4.283   2.260  10.041  0.1289 -0.4354  0.0120
  115OSM    H6F12069   4.363   2.334  10.022  0.2669 -0.8346 -1.0379
  115OSM    H6G12070   4.204   2.327  10.082  2.5977  2.0919  0.9635
  115OSM    C7F12071   4.233   2.194   9.908  0.2414  0.2285 -0.2223
  115OSM    H7F12072   4.139   2.137   9.926  0.9586 -1.5339 -1.7751
  115OSM    H7G12073   4.312   2.121   9.881 -1.0584 -1.3546  0.1045
  115OSM    C8F12074   4.202   2.292   9.791 -0.9613 -0.1858 -0.3309
  115OSM    H8F12075   4.142   2.370   9.842  0.0317  0.5411 -0.2264
  115OSM    H8G12076   4.130   2.249   9.718 -0.2443  0.8578 -1.7013
  115OSM    C9F12077   4.308   2.364   9.720 -0.7154 -0.1397  0.0578
  115OSM    H9F12078   4.348   2.452   9.772 -1.8447  0.2147  0.3582
  115OSM   C10F12079   4.350   2.348   9.591 -0.4039  0.3541  0.4804
  115OSM   H10F12080   4.444   2.397   9.562 -0.3779 -0.1846 -0.3512
  115OSM   C11F12081   4.296   2.240   9.498  0.6428 -0.0008  0.5080
  115OSM   H11F12082   4.240   2.165   9.557  1.0775 -1.4857 -0.8800
  115OSM   H11G12083   4.386   2.192   9.453 -1.0475 -2.2919 -0.6257
  115OSM   C12F12084   4.218   2.291   9.375  0.1911  0.1955  0.5333
  115OSM   H12F12085   4.118   2.326   9.408 -1.7576 -1.5007 -3.0386
  115OSM   H12G12086   4.190   2.202   9.314 -0.6458  0.1550  0.9666
  115OSM   C13F12087   4.288   2.393   9.291  0.4863 -0.4672  0.1147
  115OSM   H13F12088   4.303   2.492   9.339  2.0571 -0.8153  0.3998
  115OSM   H13G12089   4.219   2.410   9.206 -0.5153  0.4150  1.0685
  115OSM   C14F12090   4.418   2.347   9.218 -0.5792 -0.7096  0.0957
  115OSM   H14F12091   4.491   2.333   9.301 -0.5722  0.3859  0.2977
  115OSM   H14G12092   4.465   2.431   9.162 -1.3096  1.6949  2.8057
  115OSM   C15F12093   4.398   2.227   9.121  0.3471  0.3663  0.4354
  115OSM   H15F12094   4.305   2.238   9.062  0.7100  1.5496  0.0564
  115OSM   H15G12095   4.379   2.133   9.178  0.5817 -0.6391 -1.1097
  115OSM   C16F12096   4.520   2.219   9.038  0.0839 -0.7447  0.4929
  115OSM   H16F12097   4.613   2.243   9.093 -0.5610  0.9470  0.9235
  115OSM   H16G12098   4.513   2.301   8.963 -2.6409 -1.4567 -0.1716
  115OSM   C17F12099   4.536   2.082   8.976 -0.0021  0.8540 -0.1163
  115OSM   H17F12100   4.606   2.086   8.890 -0.1973  0.1112 -0.3159
  115OSM   H17G12101   4.448   2.030   8.933  0.5672 -2.2866  2.1140
  115OSM   C18F12102   4.585   1.984   9.088  1.0531 -0.2015  0.5782
  115OSM   H18F12103   4.510   1.977   9.170  1.9770  0.7122  1.5271
  115OSM   H18G12104   4.676   2.025   9.137  0.0254  2.2304  0.5952
  115OSM   H18H12105   4.596   1.882   9.046 -2.8845  0.1203 -1.7144
  116OSM      N12106   1.261   4.183  11.452  0.0304 -0.3435 -0.0509
  116OSM    C1512107   1.226   4.057  11.520  0.1653 -0.2839 -0.2409
  116OSM   H15A12108   1.218   4.065  11.628  0.7976 -1.1688 -0.1195
  116OSM   H15B12109   1.302   3.983  11.504  0.2971 -0.3073  0.4688
  116OSM   H15C12110   1.132   4.017  11.485 -0.1522  0.9502 -0.8540
  116OSM    C1412111   1.135   4.269  11.440 -0.1947  1.0012 -0.3427
  116OSM   H14A12112   1.142   4.347  11.366  0.1928  0.0396 -1.3442
  116OSM   H14B12113   1.126   4.311  11.540  0.8100 -0.6769  0.4951
  116OSM   H14C12114   1.051   4.202  11.423  2.3325 -2.6138  0.2762
  116OSM    C1312115   1.362   4.254  11.534 -0.0373  0.7571 -0.7082
  116OSM   H13A12116   1.396   4.345  11.487  1.4073  0.1554 -0.8828
  116OSM   H13B12117   1.452   4.196  11.551 -0.1494  1.0910  1.2765
  116OSM   H13C12118   1.333   4.283  11.635  0.5095  2.8152 -1.0908
  116OSM    C1212119   1.312   4.159  11.309  0.0922  0.2486  0.4348
  116OSM   H12A12120   1.245   4.099  11.250  0.9365  0.8986 -1.2742
  116OSM   H12B12121   1.407   4.108  11.313  1.2251  1.9782 -1.7336
  116OSM    C1112122   1.340   4.277  11.211 -0.3595  0.2118  0.3597
  116OSM   H11A12123   1.414   4.248  11.133  0.3506  1.0080  0.7166
  116OSM   H11B12124   1.397   4.352  11.270  1.1297  0.7158 -1.5811
  116OSM      P12125   1.136   4.253  11.052 -0.7039 -0.2247 -0.1026
  116OSM    O1312126   1.177   4.109  11.054  0.2110 -0.5059  0.4209
  116OSM    O1412127   0.992   4.283  11.072 -0.1574 -0.1979 -0.1055
  116OSM    O1112128   1.180   4.315  10.909  0.2631 -0.1861 -0.2496
  116OSM    O1212129   1.223   4.342  11.162  0.6095  0.1230 -0.4801
  116OSM    C1S12130   1.121   4.261  10.784 -0.2317  0.1606 -0.1566
  116OSM    H1S12131   1.016   4.294  10.772 -0.3492 -0.1964 -0.0928
  116OSM    H1T12132   1.110   4.151  10.786 -0.4177  0.1622 -0.7343
  116OSM     NF12133   1.137   4.280  10.531 -0.2414  0.2670 -0.1679
  116OSM    HNF12134   1.166   4.196  10.486  1.2763  0.6823 -0.0279
  116OSM    C2S12135   1.212   4.305  10.660  0.1810 -0.5347  1.4999
  116OSM    H2S12136   1.234   4.413  10.674  1.4931 -0.7400  1.1117
  116OSM    C3S12137   1.341   4.223  10.669 -0.0073 -0.4859 -0.1406
  116OSM    H3S12138   1.307   4.118  10.672 -1.4635 -0.0333 -0.3375
  116OSM     O312139   1.418   4.247  10.785 -0.1856 -0.0253 -0.5187
  116OSM    HO312140   1.363   4.283  10.855  0.5669  1.2075 -0.5138
  116OSM    C4S12141   1.428   4.247  10.546 -0.6060 -0.4276 -0.3687
  116OSM    H4S12142   1.437   4.351  10.511  2.3339  0.2824  2.0486
  116OSM    C5S12143   1.491   4.146  10.481  0.0593 -0.0420 -0.5761
  116OSM    H5S12144   1.485   4.039  10.502  0.5720 -0.1820 -1.0932
  116OSM    C6S12145   1.582   4.186  10.363  0.1559 -0.4433 -0.7765
  116OSM    H6S12146   1.683   4.142  10.377  0.1941  0.1960  1.2504
  116OSM    H6T12147   1.595   4.296  10.350  3.2424 -0.5046  0.7144
  116OSM    C7S12148   1.539   4.143  10.220  0.5771  0.5966 -1.2164
  116OSM    H7S12149   1.455   4.205  10.185  0.5700  0.1640 -1.9877
  116OSM    H7T12150   1.507   4.038  10.203 -0.7386  0.9590 -1.0744
  116OSM    C8S12151   1.650   4.164  10.119 -0.1814  0.2448  0.0575
  116OSM    H8S12152   1.701   4.068  10.094 -1.8176 -0.4406 -0.7656
  116OSM    H8T12153   1.719   4.237  10.165 -3.7436  2.6393  2.0487
  116OSM    C9S12154   1.605   4.223   9.984 -0.3532  0.2670 -0.7143
  116OSM    H9S12155   1.574   4.328  10.001 -1.4601 -0.2838  0.9586
  116OSM    H9T12156   1.512   4.185   9.937 -0.5981  0.5758 -0.4878
  116OSM   C10S12157   1.725   4.232   9.887 -0.2314  0.3070  0.0639
  116OSM   H10S12158   1.770   4.132   9.866  1.5375  1.1870 -0.5628
  116OSM   H10T12159   1.802   4.294   9.937  1.0386 -1.5004  0.4859
  116OSM   C11S12160   1.699   4.302   9.745  0.6846  0.1052 -1.1263
  116OSM   H11S12161   1.791   4.336   9.693 -0.3333  1.1865 -2.3107
  116OSM   H11T12162   1.648   4.399   9.761 -0.4878 -0.2906 -2.2721
  116OSM   C12S12163   1.620   4.216   9.645  0.1233 -0.2037 -0.3800
  116OSM   H12S12164   1.521   4.177   9.679  1.0451  0.0836  2.8723
  116OSM   H12T12165   1.674   4.119   9.633 -0.6861 -0.6325 -0.7220
  116OSM   C13S12166   1.611   4.286   9.507  0.1042  0.1726  0.3213
  116OSM   H13S12167   1.673   4.378   9.511 -0.4702  0.5567  0.8223
  116OSM   H13T12168   1.504   4.318   9.497  0.1640  0.1057 -0.5707
  116OSM   C14S12169   1.631   4.193   9.387  0.5450 -0.1192  0.2928
  116OSM   H14S12170   1.572   4.102   9.407 -1.2901  1.3734  2.0706
  116OSM   H14T12171   1.740   4.175   9.376  1.1347  2.5581  1.0373
  116OSM   C15S12172   1.571   4.258   9.259  0.2785 -0.3353  0.0505
  116OSM   H15S12173   1.606   4.363   9.246 -2.1565  0.3794 -1.2499
  116OSM   H15T12174   1.464   4.275   9.280  0.6150  0.9777  0.8657
  116OSM   C16S12175   1.611   4.181   9.129 -0.5776 -0.5050  0.4996
  116OSM   H16S12176   1.587   4.078   9.165  0.7735 -0.5046  1.4529
  116OSM   H16T12177   1.721   4.191   9.118 -0.7046  1.1774  0.6306
  116OSM   C17S12178   1.543   4.219   8.994 -0.5894 -0.4178  0.4834
  116OSM   H17S12179   1.569   4.321   8.958 -2.1040  0.3072  1.3461
  116OSM   H17T12180   1.432   4.216   9.005 -0.7672 -0.9789 -1.1135
  116OSM   C18S12181   1.573   4.123   8.881 -0.2365  0.2934 -0.4616
  116OSM   H18S12182   1.532   4.027   8.921  1.3987 -0.2980 -0.1260
  116OSM   H18T12183   1.681   4.111   8.860 -0.0951  1.1101 -0.2233
  116OSM   H18U12184   1.522   4.151   8.786  0.8836  0.5558 -0.9949
  116OSM    C1F12185   1.036   4.352  10.482 -0.0695  0.4461  0.1083
  116OSM     OF12186   0.987   4.445  10.545  0.0277 -0.1662 -0.0034
  116OSM    C2F12187   0.998   4.322  10.342 -0.4435  0.3394 -0.6960
  116OSM    H2F12188   0.918   4.246  10.338 -0.4508  0.1962  1.1735
  116OSM    H2G12189   1.089   4.280  10.295 -0.5744 -1.1182  0.2901
  116OSM    C3F12190   0.953   4.450  10.267 -0.2337 -0.1919 -0.8213
  116OSM    H3F12191   1.030   4.530  10.275  0.7919 -1.1957 -0.2296
  116OSM    H3G12192   0.857   4.479  10.314 -0.2828 -1.1356 -0.3169
  116OSM    C4F12193   0.932   4.413  10.114 -0.3340 -0.4402  0.4333
  116OSM    H4F12194   0.872   4.319  10.113  1.4386 -1.6739  1.9065
  116OSM    H4G12195   1.034   4.389  10.076 -1.0902  0.1574 -2.1621
  116OSM    C5F12196   0.879   4.526  10.025  0.3203 -0.4986  0.3987
  116OSM    H5F12197   0.951   4.610  10.035 -1.5956  1.5798 -1.9488
  116OSM    H5G12198   0.779   4.555  10.063  0.3688  1.4883 -0.8294
  116OSM    C6F12199   0.869   4.491   9.870  0.6559 -0.3813  0.6069
  116OSM    H6F12200   0.829   4.387   9.872 -0.2252 -0.0336  1.4223
  116OSM    H6G12201   0.969   4.483   9.822  0.9025 -0.6245  1.1597
  116OSM    C7F12202   0.775   4.586   9.792 -0.7608  0.1470  0.2740
  116OSM    H7F12203   0.848   4.647   9.736  1.2230 -2.8857 -0.6683
  116OSM    H7G12204   0.719   4.649   9.864 -1.6902 -0.3175 -0.0244
  116OSM    C8F12205   0.668   4.520   9.707  0.0080  0.4957 -0.2829
  116OSM    H8F12206   0.589   4.478   9.771 -0.8679 -1.3059 -2.4095
  116OSM    H8G12207   0.710   4.427   9.662  0.6066  1.5371 -2.0058
  116OSM    C9F12208   0.604   4.615   9.607  0.2239  0.7835 -0.4052
  116OSM    H9F12209   0.528   4.689   9.637 -0.8778 -0.0805 -0.9781
  116OSM   C10F12210   0.610   4.586   9.472  0.0587 -0.1991 -0.7122
  116OSM   H10F12211   0.557   4.655   9.406 -0.3322 -0.5007 -0.7170
  116OSM   C11F12212   0.687   4.481   9.397 -0.0667  0.3596 -0.0891
  116OSM   H11F12213   0.622   4.396   9.366 -1.6179  1.2395  0.6395
  116OSM   H11G12214   0.769   4.437   9.459  1.7151  0.2344 -2.3895
  116OSM   C12F12215   0.756   4.545   9.276 -0.2324 -0.2266 -0.1620
  116OSM   H12F12216   0.835   4.614   9.315  0.4899  0.7475 -3.0748
  116OSM   H12G12217   0.688   4.612   9.218  0.5332  0.2695 -0.5142
  116OSM   C13F12218   0.823   4.436   9.188  0.3040  0.1738 -0.2200
  116OSM   H13F12219   0.741   4.369   9.154  0.0212  0.1847  0.4127
  116OSM   H13G12220   0.886   4.368   9.249  0.4630  0.8555  0.3972
  116OSM   C14F12221   0.907   4.500   9.084 -0.6752  0.8430  0.2023
  116OSM   H14F12222   0.970   4.419   9.040 -1.0133  0.2484  0.7868
  116OSM   H14G12223   0.962   4.582   9.134  2.4533 -1.2361  0.4537
  116OSM   C15F12224   0.832   4.574   8.972  0.1692  0.2621 -0.0691
  116OSM   H15F12225   0.894   4.650   8.921 -0.9268  1.5314  0.4173
  116OSM   H15G12226   0.744   4.629   9.013  0.7042  0.3668  0.9713
  116OSM   C16F12227   0.781   4.485   8.858  0.8979 -0.0521 -0.2553
  116OSM   H16F12228   0.717   4.412   8.912 -0.5556  1.4546  0.1409
  116OSM   H16G12229   0.857   4.429   8.800  1.2802  1.0525 -0.8527
  116OSM   C17F12230   0.677   4.558   8.763  0.2584  0.2580 -0.2721
  116OSM   H17F12231   0.608   4.613   8.831 -0.1547  0.7189 -1.0583
  116OSM   H17G12232   0.612   4.494   8.700 -1.4630  2.6017 -1.0270
  116OSM   C18F12233   0.750   4.655   8.672 -0.3642 -0.0208 -0.0620
  116OSM   H18F12234   0.833   4.713   8.716  1.3342 -1.3551 -1.3632
  116OSM   H18G12235   0.674   4.721   8.625 -1.9009 -0.1559  2.0577
  116OSM   H18H12236   0.784   4.610   8.576  0.6066  0.2691  0.1374
  117OSM      N12237   0.044   6.707  10.743 -0.3401  0.6449  0.2472
  117OSM    C1512238   0.100   6.625  10.854 -0.5756  0.5327 -0.4471
  117OSM   H15A12239   0.041   6.644  10.942 -0.8967 -0.5032 -0.4283
  117OSM   H15B12240   0.204   6.638  10.880 -1.5636  2.4649  3.2796
  117OSM   H15C12241   0.083   6.522  10.827 -0.3564  1.1089 -3.0350
  117OSM    C1412242   0.054   6.855  10.776  0.7199 -0.1510 -0.3372
  117OSM   H14A12243  -0.003   6.917  10.709 -0.1144 -0.7880 -0.2395
  117OSM   H14B12244   0.159   6.881  10.776  1.1642 -1.7688  0.8682
  117OSM   H14C12245   0.021   6.876  10.877  0.6396 -0.6312 -0.2599
  117OSM    C1312246   0.126   6.677  10.623 -0.7308 -0.2435  0.5080
  117OSM   H13A12247   0.082   6.723  10.535 -0.5366  0.5434  0.8076
  117OSM   H13B12248   0.138   6.571  10.607 -0.0374 -0.0615 -0.2033
  117OSM   H13C12249   0.229   6.709  10.633 -1.0414  0.8679  0.3490
  117OSM    C1212250  -0.105   6.687  10.713  0.0234  0.2630 -0.0706
  117OSM   H12A12251  -0.117   6.611  10.637 -1.0454 -2.1086  2.3102
  117OSM   H12B12252  -0.132   6.778  10.662  3.1860 -0.1245 -2.7125
  117OSM    C1112253  -0.194   6.661  10.832 -0.1967  0.2747 -0.7797
  117OSM   H11A12254  -0.149   6.568  10.874  1.0014  1.3820  0.4960
  117OSM   H11B12255  -0.295   6.635  10.795 -0.2474 -0.5441 -0.1019
  117OSM      P12256  -0.335   6.822  10.991  0.0401 -0.0790 -0.1839
  117OSM    O1312257  -0.391   6.713  11.074  0.2978  0.0113  0.0614
  117OSM    O1412258  -0.302   6.949  11.057 -0.4224 -0.4016  0.1580
  117OSM    O1112259  -0.425   6.845  10.860 -0.0000 -0.1471  0.3094
  117OSM    O1212260  -0.202   6.770  10.927 -0.2104 -0.3402 -0.0339
  117OSM    C1S12261  -0.374   6.936  10.765 -0.5462 -0.2151 -0.1512
  117OSM    H1S12262  -0.268   6.912  10.744 -1.2094 -1.2615 -2.6445
  117OSM    H1T12263  -0.384   7.038  10.808  2.4162  0.2067 -0.2864
  117OSM     NF12264  -0.392   7.012  10.535  0.3563  0.2068 -0.2981
  117OSM    HNF12265  -0.430   7.104  10.539  0.5225  0.2448  1.0934
  117OSM    C2S12266  -0.452   6.922  10.634  0.3831  0.3618 -0.1078
  117OSM    H2S12267  -0.437   6.818  10.598  0.7442 -0.0318  1.1010
  117OSM    C3S12268  -0.604   6.949  10.658  0.5335  0.1152  0.3512
  117OSM    H3S12269  -0.620   7.055  10.689  0.4891  0.1326  0.2700
  117OSM     O312270  -0.667   6.865  10.753 -0.5718 -0.0275 -0.4479
  117OSM    HO312271  -0.588   6.833  10.797  0.7995  0.9212 -2.1044
  117OSM    C4S12272  -0.696   6.924  10.534 -0.1787 -0.3540  0.0582
  117OSM    H4S12273  -0.718   6.820  10.507 -0.3905 -0.7651  1.7321
  117OSM    C5S12274  -0.768   7.016  10.465 -0.1897 -0.2170  0.0785
  117OSM    H5S12275  -0.768   7.123  10.490 -1.3829  0.0503 -0.9639
  117OSM    C6S12276  -0.854   6.980  10.349 -0.2568 -0.1687  0.0302
  117OSM    H6S12277  -0.836   6.882  10.300 -0.2610 -0.2516  0.1936
  117OSM    H6T12278  -0.837   7.060  10.274  1.3667  0.2345  0.7833
  117OSM    C7S12279  -1.002   6.978  10.386  0.0545 -0.0923 -0.4985
  117OSM    H7S12280  -1.046   7.075  10.416 -0.7514 -0.5690 -0.1308
  117OSM    H7T12281  -1.014   6.904  10.468 -0.6793  0.9012  0.3053
  117OSM    C8S12282  -1.087   6.917  10.270 -0.1434 -0.4909 -0.2002
  117OSM    H8S12283  -1.165   6.855  10.321  0.6354 -0.9576  0.4582
  117OSM    H8T12284  -1.019   6.843  10.222 -0.8305 -0.2744 -1.5233
  117OSM    C9S12285  -1.147   7.022  10.177 -0.0922 -0.0353 -0.1094
  117OSM    H9S12286  -1.058   7.083  10.151  0.6318  0.2707  2.6750
  117OSM    H9T12287  -1.203   7.088  10.247  0.6879  0.2712  0.2409
  117OSM   C10S12288  -1.222   6.976  10.058 -0.1816 -0.3219  0.3840
  117OSM   H10S12289  -1.312   6.925  10.098 -1.3487 -0.7836 -2.5386
  117OSM   H10T12290  -1.167   6.903   9.995 -0.1009  1.4919 -1.7961
  117OSM   C11S12291  -1.256   7.090   9.959  0.7110  0.3450  0.2209
  117OSM   H11S12292  -1.162   7.142   9.931 -0.4209  1.0642 -2.5238
  117OSM   H11T12293  -1.331   7.159  10.005 -0.9508 -1.5331  0.4547
  117OSM   C12S12294  -1.312   7.043   9.823 -0.6210 -0.4526  0.4707
  117OSM   H12S12295  -1.400   6.982   9.850 -1.0882  0.5917  1.3683
  117OSM   H12T12296  -1.239   6.975   9.773  0.9376  0.0728  1.9237
  117OSM   C13S12297  -1.352   7.146   9.715 -0.1956  0.1663  0.1214
  117OSM   H13S12298  -1.266   7.211   9.689 -0.4054  0.8207  0.9953
  117OSM   H13T12299  -1.433   7.209   9.758 -1.0543  0.4474 -1.8025
  117OSM   C14S12300  -1.402   7.075   9.588  0.3604 -0.0605  0.0371
  117OSM   H14S12301  -1.475   7.145   9.542 -0.2775  0.2947  1.5352
  117OSM   H14T12302  -1.464   6.986   9.607  1.0318 -0.7088 -0.7272
  117OSM   C15S12303  -1.301   7.036   9.481  0.6611  0.2774  0.6642
  117OSM   H15S12304  -1.235   6.957   9.522 -1.5014 -0.7598  2.4220
  117OSM   H15T12305  -1.236   7.119   9.447  0.3036 -0.5638 -2.2862
  117OSM   C16S12306  -1.370   6.972   9.361 -0.4296 -0.3226  0.6789
  117OSM   H16S12307  -1.428   6.888   9.405 -0.8236 -1.1201 -1.2128
  117OSM   H16T12308  -1.288   6.920   9.306  0.6296  1.8453  0.1039
  117OSM   C17S12309  -1.448   7.058   9.257 -0.2788 -0.0575  0.5169
  117OSM   H17S12310  -1.533   7.101   9.316 -0.9015 -1.6210  0.8182
  117OSM   H17T12311  -1.493   6.981   9.191  0.1283  0.6652 -0.6263
  117OSM   C18S12312  -1.358   7.155   9.178  0.4537  0.5087 -0.0172
  117OSM   H18S12313  -1.278   7.202   9.240  1.7787  1.4736 -2.3138
  117OSM   H18T12314  -1.422   7.226   9.121 -1.1011  0.5879  1.7383
  117OSM   H18U12315  -1.311   7.097   9.096 -2.1060 -0.7499 -0.6838
  117OSM    C1F12316  -0.277   7.004  10.472  0.1042  0.1298  0.1329
  117OSM     OF12317  -0.203   6.909  10.484  0.5237 -0.2147  0.3414
  117OSM    C2F12318  -0.230   7.123  10.403 -0.1190 -0.6287  0.0061
  117OSM    H2F12319  -0.119   7.127  10.405 -0.0383 -1.8145 -0.8167
  117OSM    H2G12320  -0.259   7.212  10.463 -0.2957  0.0273 -1.0299
  117OSM    C3F12321  -0.271   7.151  10.259 -0.4175 -0.0318  0.1813
  117OSM    H3F12322  -0.189   7.111  10.196 -0.9100 -1.7472  0.6009
  117OSM    H3G12323  -0.279   7.261  10.244 -2.0235  0.0684  1.5043
  117OSM    C4F12324  -0.398   7.090  10.216  0.2525  0.1883 -0.6346
  117OSM    H4F12325  -0.469   7.105  10.300  0.5597  1.1757 -0.5322
  117OSM    H4G12326  -0.393   6.982  10.193 -0.6357  0.1760 -0.8027
  117OSM    C5F12327  -0.446   7.153  10.080  0.8345  0.3116  0.5445
  117OSM    H5F12328  -0.384   7.114   9.997  0.2834  0.5950 -0.0033
  117OSM    H5G12329  -0.425   7.262  10.092 -0.5866  0.4639  2.0930
  117OSM    C6F12330  -0.595   7.111  10.064 -0.1575 -0.6680  0.1745
  117OSM    H6F12331  -0.648   7.168  10.143  0.7030  0.1381  0.1964
  117OSM    H6G12332  -0.604   7.003  10.088 -0.0126 -0.6442  0.3426
  117OSM    C7F12333  -0.660   7.143   9.928 -0.3784  0.0944 -0.1938
  117OSM    H7F12334  -0.599   7.101   9.845  1.0593  0.8584  0.4487
  117OSM    H7G12335  -0.678   7.252   9.922 -3.0813 -0.3091 -0.8872
  117OSM    C8F12336  -0.801   7.089   9.911  0.4828 -0.5587 -0.3280
  117OSM    H8F12337  -0.842   7.135   9.819  1.4525  1.8851  0.3806
  117OSM    H8G12338  -0.866   7.119   9.996  2.3481 -1.1384  1.3808
  117OSM    C9F12339  -0.805   6.947   9.910 -0.0259  0.7749  0.1461
  117OSM    H9F12340  -0.773   6.896  10.003 -1.4808 -0.7296 -0.1124
  117OSM   C10F12341  -0.847   6.866   9.813 -0.0209  0.3032 -0.4196
  117OSM   H10F12342  -0.845   6.758   9.834 -0.7675  0.4380  0.4234
  117OSM   C11F12343  -0.908   6.912   9.682  0.0626 -0.2181  0.5702
  117OSM   H11F12344  -0.922   7.023   9.681  1.0750 -0.0777  0.1058
  117OSM   H11G12345  -1.008   6.865   9.683 -0.1367  0.2063  1.4552
  117OSM   C12F12346  -0.840   6.867   9.551 -0.4108  0.3668  0.1555
  117OSM   H12F12347  -0.804   6.763   9.562  1.6989  1.0234 -0.0932
  117OSM   H12G12348  -0.745   6.923   9.538 -0.0033  0.2045  2.1111
  117OSM   C13F12349  -0.922   6.873   9.418 -0.3189 -0.3565 -0.1517
  117OSM   H13F12350  -0.956   6.977   9.397 -1.1321 -0.6692 -0.4061
  117OSM   H13G12351  -1.006   6.803   9.434 -0.4143  0.1573  1.8777
  117OSM   C14F12352  -0.837   6.842   9.291 -0.3537 -0.7847 -0.1645
  117OSM   H14F12353  -0.775   6.754   9.319  0.3420 -0.3151 -0.1875
  117OSM   H14G12354  -0.766   6.927   9.277  0.5542 -1.1196  1.9913
  117OSM   C15F12355  -0.927   6.831   9.165 -0.3488 -0.1616 -0.2398
  117OSM   H15F12356  -0.993   6.919   9.149 -0.2690 -0.0109  0.2538
  117OSM   H15G12357  -0.982   6.735   9.175 -0.1834 -0.0458  2.7502
  117OSM   C16F12358  -0.840   6.814   9.040 -0.0847 -0.2553 -0.0731
  117OSM   H16F12359  -0.792   6.717   9.065  0.2356 -0.0990 -0.0731
  117OSM   H16G12360  -0.761   6.891   9.029 -0.1859 -0.4881 -4.6470
  117OSM   C17F12361  -0.918   6.805   8.905 -0.8572  0.2035  0.3094
  117OSM   H17F12362  -0.961   6.703   8.902  0.9923 -0.7895  3.0928
  117OSM   H17G12363  -0.841   6.817   8.826 -0.8896 -0.7055  0.1366
  117OSM   C18F12364  -1.023   6.912   8.871 -0.3302 -0.0139 -0.0460
  117OSM   H18F12365  -1.118   6.898   8.926  0.2909 -0.1059  1.0322
  117OSM   H18G12366  -1.043   6.914   8.761 -1.3840  1.0909  0.1447
  117OSM   H18H12367  -0.994   7.017   8.895  0.6037 -0.1601 -0.4838
  118OSM      N12368   0.071   1.258  11.072 -0.3486 -0.5105 -0.6174
  118OSM    C1512369   0.218   1.238  11.079 -0.6453 -0.8622  0.0374
  118OSM   H15A12370   0.267   1.335  11.085 -1.6744 -0.4183  2.1322
  118OSM   H15B12371   0.257   1.186  10.993  0.2266 -0.1374 -0.0336
  118OSM   H15C12372   0.250   1.192  11.172 -2.1703  3.1476  2.8229
  118OSM    C1412373   0.005   1.304  11.194 -0.0543  0.0551  0.2083
  118OSM   H14A12374   0.041   1.402  11.222  4.1938 -1.2846  0.1282
  118OSM   H14B12375   0.007   1.224  11.268 -0.1097 -1.3281 -1.2330
  118OSM   H14C12376  -0.102   1.317  11.182 -0.0702 -0.5961 -0.4186
  118OSM    C1312377   0.053   1.347  10.951 -0.0213  0.2401 -0.4040
  118OSM   H13A12378   0.099   1.302  10.864  0.3437 -0.4312  0.1296
  118OSM   H13B12379   0.111   1.436  10.968  0.6132 -0.4451  1.1751
  118OSM   H13C12380  -0.049   1.369  10.923  0.2398  1.4662 -0.4291
  118OSM    C1212381   0.008   1.119  11.031 -0.1467 -0.0458 -0.3700
  118OSM   H12A12382   0.046   1.033  11.084  1.4953 -0.4399 -2.0495
  118OSM   H12B12383   0.043   1.102  10.930  1.0912 -1.3662  0.2421
  118OSM    C1112384  -0.145   1.120  11.028  0.6742 -0.2740  0.0192
  118OSM   H11A12385  -0.189   1.147  11.127  0.9443  0.1712  0.0227
  118OSM   H11B12386  -0.185   1.018  11.010 -0.5144  0.0386  0.7219
  118OSM      P12387  -0.303   1.317  10.947 -0.1557 -0.3003  0.5731
  118OSM    O1312388  -0.432   1.252  10.981  0.4730  0.5801  0.9892
  118OSM    O1412389  -0.243   1.412  11.048  0.3124 -0.6136  0.1807
  118OSM    O1112390  -0.320   1.398  10.820  0.3255 -0.0265  0.1873
  118OSM    O1212391  -0.190   1.207  10.922  0.7518 -0.7658 -0.5126
  118OSM    C1S12392  -0.221   1.405  10.715  0.9362  0.5607  0.4704
  118OSM    H1S12393  -0.162   1.314  10.690 -1.8820 -0.4409 -3.4679
  118OSM    H1T12394  -0.153   1.491  10.729 -0.2844  1.7656 -0.7069
  118OSM     NF12395  -0.203   1.386  10.466  0.1156 -0.1064  0.6250
  118OSM    HNF12396  -0.183   1.466  10.410 -2.2687 -0.6361 -1.1416
  118OSM    C2S12397  -0.295   1.417  10.580 -0.0603  0.2492 -0.4113
  118OSM    H2S12398  -0.370   1.335  10.579  0.6145 -0.4050 -2.9496
  118OSM    C3S12399  -0.365   1.550  10.567 -0.3996 -0.3214  0.7375
  118OSM    H3S12400  -0.279   1.618  10.548  2.4213 -3.6443  0.4743
  118OSM     O312401  -0.447   1.596  10.680 -0.1672  0.2003  0.0183
  118OSM    HO312402  -0.447   1.534  10.753 -0.8948  0.7288  0.4811
  118OSM    C4S12403  -0.448   1.569  10.438 -0.3489  0.0142  0.0414
  118OSM    H4S12404  -0.400   1.613  10.349 -1.1303  0.7025 -0.0655
  118OSM    C5S12405  -0.580   1.537  10.431 -0.5653  0.4993  0.0096
  118OSM    H5S12406  -0.620   1.478  10.515  0.9878  0.0553  0.4776
  118OSM    C6S12407  -0.667   1.559  10.308  0.2133  0.5443 -0.0910
  118OSM    H6S12408  -0.725   1.650  10.334  1.9556  1.7594 -0.3225
  118OSM    H6T12409  -0.742   1.477  10.302 -1.9093  2.3960 -0.0750
  118OSM    C7S12410  -0.605   1.585  10.168  1.0224 -0.5874  0.8036
  118OSM    H7S12411  -0.540   1.501  10.134 -2.0032 -2.2616 -1.2199
  118OSM    H7T12412  -0.554   1.684  10.174 -1.0291  0.4800  1.4457
  118OSM    C8S12413  -0.705   1.586  10.043  0.3743 -0.3280 -0.3320
  118OSM    H8S12414  -0.780   1.666  10.064  2.2617  0.7165  3.2834
  118OSM    H8T12415  -0.759   1.491  10.025  0.1479 -0.4588  0.9427
  118OSM    C9S12416  -0.630   1.624   9.918 -0.8723  0.1239  0.3583
  118OSM    H9S12417  -0.548   1.550   9.907  0.1253  1.0735  1.2541
  118OSM    H9T12418  -0.590   1.727   9.923 -0.7551  0.2052 -1.6886
  118OSM   C10S12419  -0.713   1.608   9.789  0.0804  0.2792 -0.2246
  118OSM   H10S12420  -0.798   1.677   9.811  0.0134 -0.1715  1.0139
  118OSM   H10T12421  -0.748   1.504   9.772  0.8196  0.1594 -1.1048
  118OSM   C11S12422  -0.641   1.658   9.664  0.9536  0.0050  0.4693
  118OSM   H11S12423  -0.544   1.606   9.651  2.1091  1.8312  1.3029
  118OSM   H11T12424  -0.604   1.762   9.681  0.6283  0.2810 -0.4446
  118OSM   C12S12425  -0.734   1.668   9.540 -0.0482  0.7618 -0.1477
  118OSM   H12S12426  -0.818   1.738   9.558 -1.8967 -0.7097 -2.4283
  118OSM   H12T12427  -0.775   1.566   9.522  3.5752 -0.6781 -1.1560
  118OSM   C13S12428  -0.654   1.703   9.418 -0.0080  0.1101  0.3176
  118OSM   H13S12429  -0.585   1.629   9.371  2.6999  0.8057  2.9152
  118OSM   H13T12430  -0.584   1.784   9.448 -1.1336  1.2958 -0.1898
  118OSM   C14S12431  -0.739   1.768   9.304  0.2334  0.3131  0.2189
  118OSM   H14S12432  -0.780   1.856   9.357 -1.9806  0.8268 -2.1613
  118OSM   H14T12433  -0.819   1.696   9.277  1.6009 -1.0247 -0.4074
  118OSM   C15S12434  -0.668   1.812   9.175  0.1223  0.0534  0.7399
  118OSM   H15S12435  -0.642   1.727   9.108  0.0747 -0.2862  1.1476
  118OSM   H15T12436  -0.576   1.869   9.202  0.2749  0.3223 -0.2950
  118OSM   C16S12437  -0.761   1.908   9.100 -0.7986 -0.0985  0.1265
  118OSM   H16S12438  -0.764   1.991   9.175  0.5520 -0.3285  0.4564
  118OSM   H16T12439  -0.859   1.859   9.081 -0.6529 -0.3138 -0.0771
  118OSM   C17S12440  -0.704   1.980   8.977  1.0736  0.3058  0.8555
  118OSM   H17S12441  -0.676   1.895   8.911 -2.7344 -0.6845  0.2806
  118OSM   H17T12442  -0.605   2.025   9.003  3.3755 -3.0076 -1.3359
  118OSM   C18S12443  -0.794   2.082   8.900 -0.5093 -0.1498 -0.7054
  118OSM   H18S12444  -0.836   2.162   8.964  0.6404 -0.0459 -0.0633
  118OSM   H18T12445  -0.882   2.025   8.863  0.0120 -1.4253 -0.0429
  118OSM   H18U12446  -0.730   2.123   8.819  2.3418  0.8004  1.8706
  118OSM    C1F12447  -0.160   1.265  10.425  0.1858 -0.3574 -0.7499
  118OSM     OF12448  -0.144   1.173  10.503 -0.2764 -0.2388 -0.1177
  118OSM    C2F12449  -0.110   1.248  10.285 -0.3804 -1.1697 -0.0237
  118OSM    H2F12450  -0.001   1.234  10.303 -0.2172 -1.0489 -0.8964
  118OSM    H2G12451  -0.127   1.344  10.232 -1.0179 -0.0036  2.1614
  118OSM    C3F12452  -0.173   1.131  10.208 -0.1086 -0.2848  0.0365
  118OSM    H3F12453  -0.282   1.129  10.227  0.1839 -2.4565  1.9750
  118OSM    H3G12454  -0.139   1.031  10.244 -1.7055 -2.1697 -3.2546
  118OSM    C4F12455  -0.163   1.158  10.058  0.0175 -0.8642 -0.0968
  118OSM    H4F12456  -0.214   1.253  10.032  2.0299  0.0584 -0.8857
  118OSM    H4G12457  -0.215   1.075  10.006 -1.0333 -0.6994  0.6625
  118OSM    C5F12458  -0.024   1.177   9.986 -0.0083  0.4397 -0.3734
  118OSM    H5F12459   0.044   1.099  10.027 -0.7979 -0.7679 -1.2730
  118OSM    H5G12460   0.026   1.274  10.006 -0.0282  0.5130 -0.6714
  118OSM    C6F12461  -0.033   1.148   9.833  0.5422 -0.3263 -0.2581
  118OSM    H6F12462  -0.080   1.241   9.795  0.0548 -0.2122  0.6096
  118OSM    H6G12463  -0.096   1.058   9.816 -0.0314  0.1389 -0.6305
  118OSM    C7F12464   0.098   1.119   9.759  0.1435  0.7043 -0.3012
  118OSM    H7F12465   0.147   1.033   9.809  0.0225  1.2132  0.7389
  118OSM    H7G12466   0.180   1.193   9.747  2.6046 -1.6016  1.1415
  118OSM    C8F12467   0.067   1.061   9.622 -0.2686  0.7262 -0.5678
  118OSM    H8F12468  -0.013   0.984   9.636 -0.7229  1.4953  1.3131
  118OSM    H8G12469   0.150   1.002   9.577 -0.4663 -0.5360  0.6575
  118OSM    C9F12470   0.016   1.166   9.526 -0.4847  0.3511 -0.2213
  118OSM    H9F12471  -0.058   1.233   9.572 -1.7520 -1.5292  0.6020
  118OSM   C10F12472   0.057   1.176   9.394 -0.3579  0.2146 -0.4683
  118OSM   H10F12473   0.018   1.254   9.328 -1.6167  0.3628  0.4140
  118OSM   C11F12474   0.147   1.084   9.316  0.0733 -0.2734 -0.3794
  118OSM   H11F12475   0.088   1.026   9.242 -0.7903  0.9305 -0.6706
  118OSM   H11G12476   0.210   1.017   9.378 -0.0977 -0.7911 -0.7599
  118OSM   C12F12477   0.255   1.166   9.246 -0.5970  0.2017  0.0162
  118OSM   H12F12478   0.340   1.096   9.228 -0.9698 -0.8916  2.1252
  118OSM   H12G12479   0.294   1.243   9.316  4.0134 -1.6835 -0.0820
  118OSM   C13F12480   0.212   1.245   9.119 -0.4786 -0.2324  0.1391
  118OSM   H13F12481   0.294   1.297   9.066 -1.0919  1.6772  0.9972
  118OSM   H13G12482   0.132   1.320   9.138 -0.7667 -0.3677 -0.5168
  118OSM   C14F12483   0.159   1.145   9.010 -0.7213 -0.6479 -0.0418
  118OSM   H14F12484   0.071   1.093   9.052 -1.9265  0.7148 -0.7804
  118OSM   H14G12485   0.241   1.073   8.991 -0.7172 -0.3507 -1.2521
  118OSM   C15F12486   0.127   1.205   8.872 -0.9664 -1.0694  0.0400
  118OSM   H15F12487   0.224   1.238   8.828 -1.5537  1.1447  0.2853
  118OSM   H15G12488   0.071   1.301   8.879 -0.2637 -0.5303 -1.2303
  118OSM   C16F12489   0.057   1.111   8.771  0.5244 -0.0757  0.3690
  118OSM   H16F12490  -0.051   1.115   8.799  0.1791  1.1801 -0.9797
  118OSM   H16G12491   0.097   1.008   8.767  3.3506  0.9637 -0.5546
  118OSM   C17F12492   0.060   1.158   8.621 -0.4574 -0.0940 -0.1271
  118OSM   H17F12493   0.030   1.067   8.564  2.3751 -1.6098  0.5900
  118OSM   H17G12494   0.165   1.192   8.603 -1.4235  4.5133  1.5213
  118OSM   C18F12495  -0.028   1.270   8.584 -0.3864 -0.5898 -0.3133
  118OSM   H18F12496   0.017   1.364   8.624 -2.3287  0.8445 -1.3104
  118OSM   H18G12497  -0.126   1.258   8.634  0.0858 -1.7266  0.3845
  118OSM   H18H12498  -0.043   1.281   8.475  0.4024 -0.6909 -0.4425
  119OSM      N12499   1.383   6.438  11.229  0.2366  0.3183  0.4996
  119OSM    C1512500   1.381   6.287  11.266  0.0847 -1.3049  0.2646
  119OSM   H15A12501   1.380   6.270  11.372 -1.2635  1.0530  0.7017
  119OSM   H15B12502   1.454   6.227  11.213  1.6070  0.3494  0.3897
  119OSM   H15C12503   1.278   6.260  11.249 -1.3913  2.7710  1.4885
  119OSM    C1412504   1.265   6.509  11.282  0.0518 -0.7475 -0.4718
  119OSM   H14A12505   1.288   6.525  11.386  2.3747  1.6727 -1.2285
  119OSM   H14B12506   1.178   6.446  11.273  1.4826 -2.6760 -1.5900
  119OSM   H14C12507   1.262   6.611  11.247 -0.5522 -0.0685  1.4313
  119OSM    C1312508   1.504   6.497  11.292  0.2151  0.1706 -0.1019
  119OSM   H13A12509   1.497   6.492  11.399  0.5700 -0.4564 -0.1035
  119OSM   H13B12510   1.527   6.597  11.257  1.5214 -0.5898 -1.5714
  119OSM   H13C12511   1.588   6.436  11.262 -0.9574 -0.3540 -2.6084
  119OSM    C1212512   1.396   6.449  11.080 -0.2139  0.4144  0.2366
  119OSM   H12A12513   1.301   6.439  11.030  1.8112 -2.5866 -3.5148
  119OSM   H12B12514   1.434   6.355  11.043  2.4611  1.5162 -0.0597
  119OSM    C1112515   1.476   6.565  11.019 -0.3380  0.0110 -0.0412
  119OSM   H11A12516   1.493   6.536  10.913  0.6667 -0.6582  0.2793
  119OSM   H11B12517   1.583   6.564  11.050  0.8304 -0.8791 -3.6297
  119OSM      P12518   1.275   6.718  10.944 -0.2867 -0.1067 -0.0007
  119OSM    O1312519   1.225   6.594  10.879 -0.0023 -0.6539 -0.3682
  119OSM    O1412520   1.183   6.808  11.016  0.2705  0.1324 -0.4250
  119OSM    O1112521   1.333   6.821  10.838  0.1795  0.3017 -0.3057
  119OSM    O1212522   1.411   6.688  11.024 -0.2787  1.2873 -0.0155
  119OSM    C1S12523   1.360   6.785  10.700  0.6664 -0.0583 -0.2793
  119OSM    H1S12524   1.376   6.678  10.678 -2.3189 -0.4824 -0.8183
  119OSM    H1T12525   1.452   6.841  10.673  1.5473 -0.3504  1.8654
  119OSM     NF12526   1.295   6.797  10.454 -0.7194  0.4438 -0.6560
  119OSM    HNF12527   1.351   6.866  10.408 -2.5196  2.9645  0.7297
  119OSM    C2S12528   1.250   6.835  10.593 -0.2655  0.5862  0.1359
  119OSM    H2S12529   1.159   6.774  10.609  0.5744 -0.9868 -0.8558
  119OSM    C3S12530   1.215   6.987  10.609  0.0734 -0.3099  0.8335
  119OSM    H3S12531   1.307   7.044  10.586  1.3526 -2.1941  1.0297
  119OSM     O312532   1.180   7.016  10.744  0.2602 -0.2808 -0.5530
  119OSM    HO312533   1.238   6.957  10.793  1.0040 -1.4230 -2.6839
  119OSM    C4S12534   1.103   7.027  10.518  0.0668 -0.5701 -0.3295
  119OSM    H4S12535   1.004   6.990  10.548  0.7487 -1.6014  0.7498
  119OSM    C5S12536   1.115   7.115  10.415 -0.5679 -0.5872 -0.6951
  119OSM    H5S12537   1.215   7.149  10.384 -0.4490 -0.2276  0.0752
  119OSM    C6S12538   1.012   7.167  10.319  0.1041  0.3131 -0.2124
  119OSM    H6S12539   0.999   7.275  10.297 -0.4826  0.1063 -0.8925
  119OSM    H6T12540   0.918   7.118  10.350  0.3938  0.3507  0.7758
  119OSM    C7S12541   1.044   7.098  10.187  0.7012  0.5896  0.3128
  119OSM    H7S12542   1.053   6.989  10.209 -0.1122  0.8396  2.1011
  119OSM    H7T12543   1.137   7.141  10.144  0.5439  0.0323 -0.6077
  119OSM    C8S12544   0.938   7.128  10.080  0.3845  0.2434 -0.2071
  119OSM    H8S12545   0.920   7.237  10.068 -0.9463  0.1717  0.9422
  119OSM    H8T12546   0.843   7.077  10.106  0.1329  2.0118  2.8481
  119OSM    C9S12547   0.974   7.067   9.945 -0.4719 -0.1241 -0.5092
  119OSM    H9S12548   0.987   6.959   9.966  0.2923  0.2409  1.0460
  119OSM    H9T12549   1.069   7.111   9.908 -0.4400 -0.0689 -0.3627
  119OSM   C10S12550   0.871   7.085   9.833  0.4634 -0.7341 -0.5629
  119OSM   H10S12551   0.873   7.192   9.803 -2.3464 -0.8570 -1.5114
  119OSM   H10T12552   0.766   7.080   9.871 -0.0404  2.1474 -1.3052
  119OSM   C11S12553   0.879   6.995   9.705 -0.0624 -0.8367  0.1505
  119OSM   H11S12554   0.985   7.013   9.676  0.0199  0.2636  1.0274
  119OSM   H11T12555   0.802   7.037   9.637  1.0740 -0.7669 -1.1367
  119OSM   C12S12556   0.836   6.848   9.721 -0.8691 -0.5348  0.8293
  119OSM   H12S12557   0.725   6.855   9.718 -1.0479 -2.5363 -2.1901
  119OSM   H12T12558   0.863   6.802   9.819  1.5906 -0.8163  0.0822
  119OSM   C13S12559   0.876   6.760   9.602  0.2613  0.1409 -0.6316
  119OSM   H13S12560   0.806   6.674   9.595 -0.9792  0.9757  0.8033
  119OSM   H13T12561   0.985   6.739   9.613  0.4265  0.9882 -0.5975
  119OSM   C14S12562   0.870   6.828   9.467  0.2015 -0.7326 -0.1382
  119OSM   H14S12563   0.935   6.918   9.463 -0.7743 -0.0005  0.0539
  119OSM   H14T12564   0.765   6.860   9.451 -0.0054 -1.3781 -0.1120
  119OSM   C15S12565   0.909   6.745   9.342  0.2223  0.3826  0.6779
  119OSM   H15S12566   0.831   6.667   9.333 -0.5759  1.2380  0.0229
  119OSM   H15T12567   1.001   6.687   9.366  1.1385  1.1097 -0.9221
  119OSM   C16S12568   0.936   6.819   9.213 -1.2532 -0.2026  0.5735
  119OSM   H16S12569   0.955   6.745   9.133 -1.0547  1.7408 -1.2903
  119OSM   H16T12570   1.032   6.875   9.223 -1.9062  0.7296  1.9903
  119OSM   C17S12571   0.833   6.925   9.184  0.6220  0.5909 -0.2987
  119OSM   H17S12572   0.837   7.000   9.266 -4.7989  0.2810  0.6203
  119OSM   H17T12573   0.729   6.886   9.183 -0.3690  3.0392 -0.4707
  119OSM   C18S12574   0.868   6.998   9.058  0.1943 -0.0699 -0.2986
  119OSM   H18S12575   0.977   7.021   9.060  0.5945 -1.8547 -0.1931
  119OSM   H18T12576   0.814   7.094   9.043 -0.2082 -0.0884  0.9426
  119OSM   H18U12577   0.854   6.939   8.965  1.7916  3.0945 -2.7641
  119OSM    C1F12578   1.289   6.676  10.396  0.8040 -0.0592  0.3942
  119OSM     OF12579   1.246   6.582  10.457 -0.2374  0.0714  0.2957
  119OSM    C2F12580   1.340   6.663  10.257  0.4919  0.0554  0.7830
  119OSM    H2F12581   1.428   6.595  10.248 -0.6042 -1.2458 -0.5721
  119OSM    H2G12582   1.364   6.763  10.216  0.8493  0.7443  2.5461
  119OSM    C3F12583   1.230   6.596  10.163 -0.1382 -0.5141  0.5042
  119OSM    H3F12584   1.136   6.655  10.153  0.0762 -0.2190  0.2229
  119OSM    H3G12585   1.212   6.496  10.209  3.5117 -0.2744  2.8414
  119OSM    C4F12586   1.281   6.597  10.020  0.1425 -0.2086 -0.4505
  119OSM    H4F12587   1.311   6.697   9.981  1.7757  0.0649  1.3823
  119OSM    H4G12588   1.201   6.557   9.954  0.3196  0.2618 -0.9541
  119OSM    C5F12589   1.392   6.492   9.991  0.0299 -0.0679  0.2500
  119OSM    H5F12590   1.366   6.396  10.039  0.0968  0.6567  1.8126
  119OSM    H5G12591   1.477   6.520  10.058 -0.0453 -0.6187  0.5771
  119OSM    C6F12592   1.427   6.471   9.843  0.4554  0.2484 -0.4094
  119OSM    H6F12593   1.528   6.425   9.830  1.0094  1.5182 -0.7587
  119OSM    H6G12594   1.438   6.569   9.792  3.6439 -0.2030 -0.7904
  119OSM    C7F12595   1.325   6.400   9.748 -0.3068  0.3629 -0.3452
  119OSM    H7F12596   1.374   6.386   9.649  0.5506 -2.1143  0.3608
  119OSM    H7G12597   1.233   6.459   9.725 -1.7230 -1.7582 -0.3989
  119OSM    C8F12598   1.276   6.259   9.791 -0.3512 -0.1965 -1.0452
  119OSM    H8F12599   1.206   6.222   9.713 -0.0260 -1.5836 -0.7072
  119OSM    H8G12600   1.217   6.271   9.885 -1.3584 -1.0675 -1.5420
  119OSM    C9F12601   1.379   6.155   9.816  0.0572 -0.4558  0.0576
  119OSM    H9F12602   1.405   6.139   9.921 -1.1484 -1.2398  0.2580
  119OSM   C10F12603   1.449   6.088   9.722 -0.3188 -0.3217 -0.7904
  119OSM   H10F12604   1.506   6.005   9.766 -0.5084  0.3931  0.8875
  119OSM   C11F12605   1.448   6.102   9.573 -0.4831  0.4301 -0.5802
  119OSM   H11F12606   1.372   6.169   9.527 -0.0840 -1.1337 -3.7841
  119OSM   H11G12607   1.422   6.001   9.536  1.0997 -0.8156  1.4807
  119OSM   C12F12608   1.592   6.134   9.511  1.6685 -0.3114 -0.6937
  119OSM   H12F12609   1.660   6.061   9.559 -0.9446 -1.8431  0.9254
  119OSM   H12G12610   1.621   6.234   9.549  2.4569 -1.1202  0.9212
  119OSM   C13F12611   1.587   6.125   9.353 -0.5166  0.2847 -0.0926
  119OSM   H13F12612   1.515   6.203   9.320 -0.2385  0.0255 -1.3644
  119OSM   H13G12613   1.539   6.033   9.314  0.6536 -0.2207 -0.3715
  119OSM   C14F12614   1.725   6.154   9.281  0.2285  0.2812  0.2559
  119OSM   H14F12615   1.800   6.088   9.330 -0.2375  0.4327  1.1891
  119OSM   H14G12616   1.757   6.256   9.309 -0.5639  1.4641 -2.7837
  119OSM   C15F12617   1.728   6.133   9.129 -0.3660  0.6407  0.0482
  119OSM   H15F12618   1.713   6.026   9.104  1.2459  0.1547  0.9776
  119OSM   H15G12619   1.831   6.154   9.093  0.0469 -1.7626 -0.3910
  119OSM   C16F12620   1.620   6.218   9.052  0.5569  0.1813  0.2478
  119OSM   H16F12621   1.636   6.326   9.072 -4.0376  0.7757  1.6924
  119OSM   H16G12622   1.521   6.193   9.095  0.6366  0.0530  0.3560
  119OSM   C17F12623   1.629   6.183   8.901  0.2983  0.0337 -0.0820
  119OSM   H17F12624   1.552   6.241   8.847  0.0813 -1.1125 -1.0295
  119OSM   H17G12625   1.604   6.075   8.895  0.3228 -0.0039  0.4168
  119OSM   C18F12626   1.774   6.207   8.843  0.6333  0.2598 -0.1678
  119OSM   H18F12627   1.773   6.167   8.740 -0.6533 -2.2485  0.7310
  119OSM   H18G12628   1.855   6.155   8.899  0.5256  1.0824  0.8005
  119OSM   H18H12629   1.785   6.318   8.837  0.4593  0.3513  0.9606
  120OSM      N12630   5.744   3.939  10.832 -0.2025  0.1627 -0.3148
  120OSM    C1512631   5.666   3.809  10.855 -0.3134  0.1711 -0.4853
  120OSM   H15A12632   5.590   3.830  10.928  0.5943  3.0288 -0.2155
  120OSM   H15B12633   5.726   3.727  10.892  1.2614  0.1196 -2.9279
  120OSM   H15C12634   5.613   3.779  10.766 -3.5855  4.1062 -0.1251
  120OSM    C1412635   5.814   3.977  10.965  0.7388 -0.1273  0.4937
  120OSM   H14A12636   5.734   4.011  11.029  1.7968  2.3461  0.6087
  120OSM   H14B12637   5.892   4.051  10.955 -0.6740  1.3702 -0.1017
  120OSM   H14C12638   5.854   3.895  11.022 -1.5932 -0.7579  1.3416
  120OSM    C1312639   5.845   3.928  10.727 -0.2287  0.4979 -0.6311
  120OSM   H13A12640   5.912   3.848  10.756 -2.6838 -1.1896  0.7318
  120OSM   H13B12641   5.902   4.019  10.717  0.9069 -0.2563 -1.3108
  120OSM   H13C12642   5.804   3.888  10.635  0.2822 -0.6656 -0.3685
  120OSM    C1212643   5.651   4.050  10.778 -0.4774  0.5434  0.2918
  120OSM   H12A12644   5.718   4.133  10.764 -0.6859  0.3470 -2.5231
  120OSM   H12B12645   5.590   4.073  10.864  0.8953 -2.8104  2.3883
  120OSM    C1112646   5.558   4.023  10.655  0.2622  0.1742  0.1923
  120OSM   H11A12647   5.585   3.922  10.619 -0.4376  0.0648 -0.0348
  120OSM   H11B12648   5.574   4.094  10.571  0.8354  0.0068  0.1533
  120OSM      P12649   5.345   4.173  10.688  0.0308  0.0672  0.2974
  120OSM    O1312650   5.214   4.162  10.756  0.5924  0.2114 -0.4754
  120OSM    O1412651   5.447   4.267  10.741  0.0537 -0.5091 -0.0948
  120OSM    O1112652   5.323   4.205  10.533  0.2643  0.1896 -0.1283
  120OSM    O1212653   5.418   4.028  10.679  0.3011 -0.0198 -0.4311
  120OSM    C1S12654   5.262   4.111  10.446 -0.1178  0.3837  0.0347
  120OSM    H1S12655   5.152   4.100  10.462  0.0101 -0.1452  0.5923
  120OSM    H1T12656   5.309   4.012  10.465  0.5957  0.5088 -0.9915
  120OSM     NF12657   5.226   4.035  10.211  0.0163  0.6293  0.1531
  120OSM    HNF12658   5.278   3.990  10.139 -1.3510 -0.0790 -0.4207
  120OSM    C2S12659   5.287   4.132  10.295  0.1241 -0.3017 -0.3294
  120OSM    H2S12660   5.245   4.232  10.272 -2.5563 -1.5950 -1.4476
  120OSM    C3S12661   5.442   4.139  10.267 -0.4529 -0.1638  0.7799
  120OSM    H3S12662   5.482   4.037  10.287 -1.1923 -0.7043 -0.3541
  120OSM     O312663   5.518   4.214  10.358 -0.3142 -0.3593 -0.4892
  120OSM    HO312664   5.446   4.231  10.420 -0.2530  0.9109 -0.7480
  120OSM    C4S12665   5.471   4.182  10.123  1.1591 -0.6733  0.4856
  120OSM    H4S12666   5.434   4.282  10.096  0.4215 -0.5023  2.0169
  120OSM    C5S12667   5.522   4.115  10.023  0.3782 -0.4916 -0.1032
  120OSM    H5S12668   5.558   4.013  10.043  0.8909  0.1195  2.3895
  120OSM    C6S12669   5.537   4.156   9.878 -0.0727  0.2089 -0.2377
  120OSM    H6S12670   5.515   4.264   9.861  0.9786  0.2847 -1.1991
  120OSM    H6T12671   5.468   4.088   9.824  0.1005 -1.6227  1.7302
  120OSM    C7S12672   5.670   4.117   9.813 -0.8402 -0.7620  0.6786
  120OSM    H7S12673   5.700   4.013   9.838 -2.4407 -1.5982 -0.7120
  120OSM    H7T12674   5.747   4.187   9.853 -0.1792  0.0238 -1.8176
  120OSM    C8S12675   5.667   4.128   9.663 -0.0648 -0.9111 -0.0261
  120OSM    H8S12676   5.772   4.153   9.639 -0.0036 -0.7390  0.4067
  120OSM    H8T12677   5.606   4.215   9.633 -0.4152 -1.3692 -0.6486
  120OSM    C9S12678   5.618   4.005   9.587 -0.4445  0.0648  0.3493
  120OSM    H9S12679   5.518   3.973   9.625 -0.6555  1.1483  0.7289
  120OSM    H9T12680   5.683   3.916   9.600  1.9826  1.4857 -1.3671
  120OSM   C10S12681   5.596   4.016   9.435 -0.0099 -0.0655 -0.5206
  120OSM   H10S12682   5.496   4.060   9.414 -0.3397  0.2034  1.3791
  120OSM   H10T12683   5.594   3.917   9.385  2.0637 -0.4251  0.0383
  120OSM   C11S12684   5.704   4.101   9.372 -0.0429 -0.1045 -0.0961
  120OSM   H11S12685   5.807   4.064   9.395  0.5839  0.7257 -1.4540
  120OSM   H11T12686   5.701   4.204   9.411  1.9237  0.1366 -0.4786
  120OSM   C12S12687   5.688   4.104   9.220 -0.5312  0.2559 -0.4431
  120OSM   H12S12688   5.589   4.152   9.207 -1.1577 -0.9688 -0.3309
  120OSM   H12T12689   5.682   4.003   9.175 -0.6619 -0.5750  1.3540
  120OSM   C13S12690   5.808   4.168   9.154  0.0608 -0.5308 -0.2402
  120OSM   H13S12691   5.893   4.107   9.191 -0.1111 -2.5590 -2.8645
  120OSM   H13T12692   5.824   4.272   9.189 -1.5889 -0.4322  0.3072
  120OSM   C14S12693   5.806   4.156   9.000  0.3916 -0.2511 -0.0599
  120OSM   H14S12694   5.759   4.248   8.960 -0.1973  1.2712  3.7061
  120OSM   H14T12695   5.755   4.067   8.958 -0.2706 -0.1715  0.5488
  120OSM   C15S12696   5.955   4.137   8.939  0.4995  0.0065  0.1122
  120OSM   H15S12697   6.012   4.059   8.993  2.2650  0.6887 -0.6871
  120OSM   H15T12698   6.021   4.227   8.941  1.4126 -0.6362 -0.5393
  120OSM   C16S12699   5.950   4.070   8.799  0.1632 -0.2409 -0.0984
  120OSM   H16S12700   5.908   4.148   8.732  0.2781  0.7898  0.9959
  120OSM   H16T12701   5.894   3.974   8.795 -2.2312  1.1126 -1.9540
  120OSM   C17S12702   6.094   4.043   8.745  0.0025 -0.2176  0.2927
  120OSM   H17S12703   6.077   4.005   8.641 -1.2180  1.2526 -0.0796
  120OSM   H17T12704   6.130   3.963   8.814  1.0076 -1.4777 -1.5824
  120OSM   C18S12705   6.187   4.161   8.734 -0.3354 -0.6988 -0.1855
  120OSM   H18S12706   6.132   4.256   8.711 -1.1022 -0.5000  2.1445
  120OSM   H18T12707   6.263   4.171   8.654  0.2268  0.1202  0.4341
  120OSM   H18U12708   6.242   4.167   8.831 -0.0743  0.0660 -0.3704
  120OSM    C1F12709   5.100   4.016  10.200 -0.2110  0.3339 -0.0512
  120OSM     OF12710   5.015   4.064  10.267  0.4573  0.4478  0.3362
  120OSM    C2F12711   5.062   3.912  10.094 -0.1017 -0.0045  0.3244
  120OSM    H2F12712   5.111   3.813  10.113 -2.3384 -1.1016  0.6802
  120OSM    H2G12713   5.104   3.951   9.999  0.3039 -1.1402  0.0180
  120OSM    C3F12714   4.901   3.896  10.078 -0.4633 -0.1394  0.0867
  120OSM    H3F12715   4.860   3.999  10.075 -0.1831  0.1183  2.7173
  120OSM    H3G12716   4.857   3.843  10.165 -0.2173 -1.1566 -0.3907
  120OSM    C4F12717   4.862   3.819   9.950 -0.0930 -0.2295 -0.5249
  120OSM    H4F12718   4.918   3.724   9.960  2.6680  1.4102  0.8043
  120OSM    H4G12719   4.910   3.867   9.862  0.2051  0.1528 -0.1643
  120OSM    C5F12720   4.710   3.813   9.928 -0.1448 -0.8886 -0.3401
  120OSM    H5F12721   4.673   3.918   9.924  1.0016 -0.4751 -3.6080
  120OSM    H5G12722   4.670   3.765  10.019  2.1601 -0.9253  0.7277
  120OSM    C6F12723   4.665   3.726   9.806  0.2008 -0.9419 -0.2479
  120OSM    H6F12724   4.554   3.730   9.805  0.1260 -2.4875 -0.3760
  120OSM    H6G12725   4.683   3.617   9.819  0.1484 -1.0079 -0.6942
  120OSM    C7F12726   4.702   3.784   9.666  0.1187  0.7409  0.0637
  120OSM    H7F12727   4.803   3.746   9.639 -0.3424 -1.6789  1.5126
  120OSM    H7G12728   4.707   3.895   9.672  0.7519  0.7242 -0.0992
  120OSM    C8F12729   4.605   3.739   9.551  0.2972  0.1331  0.5107
  120OSM    H8F12730   4.599   3.821   9.476  1.9098 -1.3258 -1.3280
  120OSM    H8G12731   4.498   3.734   9.580  0.3731  2.1201  1.2252
  120OSM    C9F12732   4.642   3.613   9.479 -0.1422  0.3650 -0.0041
  120OSM    H9F12733   4.602   3.516   9.512  3.7001 -1.0047  1.1245
  120OSM   C10F12734   4.706   3.605   9.355 -0.2214  0.8313 -0.2039
  120OSM   H10F12735   4.732   3.505   9.318 -1.8186  0.7282 -1.1436
  120OSM   C11F12736   4.754   3.725   9.274 -0.8158  0.5797  0.4697
  120OSM   H11F12737   4.793   3.802   9.345 -0.6913 -0.7049  1.8325
  120OSM   H11G12738   4.671   3.767   9.212  2.5745  1.2403 -4.2114
  120OSM   C12F12739   4.858   3.676   9.171  0.4697  0.2493  0.2221
  120OSM   H12F12740   4.932   3.617   9.229 -0.4572 -1.4256 -0.2132
  120OSM   H12G12741   4.910   3.762   9.125  0.6359 -1.0284 -2.1563
  120OSM   C13F12742   4.804   3.596   9.055  0.5164 -0.3807 -0.1341
  120OSM   H13F12743   4.763   3.498   9.087 -1.9363  0.3187 -0.9463
  120OSM   H13G12744   4.886   3.571   8.983 -0.5771  1.9007 -2.3370
  120OSM   C14F12745   4.709   3.672   8.960  0.5432  0.1970 -0.6249
  120OSM   H14F12746   4.669   3.765   9.006 -0.1091 -1.1303  1.6830
  120OSM   H14G12747   4.615   3.613   8.949 -0.5380  0.8365  3.5266
  120OSM   C15F12748   4.775   3.706   8.823  0.0740 -0.1468 -0.6503
  120OSM   H15F12749   4.692   3.702   8.749 -0.2724  0.3094 -0.2864
  120OSM   H15G12750   4.857   3.646   8.777  0.6674  0.0910  0.0806
  120OSM   C16F12751   4.830   3.848   8.834 -0.2601  0.0179 -0.2735
  120OSM   H16F12752   4.913   3.840   8.907 -0.3188  1.9003  0.0317
  120OSM   H16G12753   4.758   3.923   8.872 -0.1393 -0.4543  0.9206
  120OSM   C17F12754   4.905   3.897   8.716 -0.6813 -0.2214 -0.0129
  120OSM   H17F12755   4.835   3.896   8.629 -1.9051 -0.3850  0.9514
  120OSM   H17G12756   4.983   3.822   8.689  1.7287  2.7931 -2.0820
  120OSM   C18F12757   4.970   4.032   8.735 -0.0355  0.5940 -0.0108
  120OSM   H18F12758   5.011   4.049   8.837 -0.3196 -0.5411  0.3075
  120OSM   H18G12759   4.894   4.113   8.730 -2.7946 -1.4307  3.7556
  120OSM   H18H12760   5.062   4.048   8.675  1.1984  2.9680  2.2844
  121OSM      N12761   5.081   1.332  10.972 -0.4721 -0.7322 -0.2271
  121OSM    C1512762   4.992   1.350  10.851  0.1467  0.1803  0.6169
  121OSM   H15A12763   5.039   1.282  10.781  0.6948  2.1452 -1.0110
  121OSM   H15B12764   4.988   1.448  10.807  3.4338 -0.6099 -1.9137
  121OSM   H15C12765   4.891   1.319  10.871 -0.7287  1.3577 -1.6685
  121OSM    C1412766   5.038   1.429  11.075  0.2343 -0.1788  0.0436
  121OSM   H14A12767   4.938   1.403  11.107 -0.1027  1.4316  0.4027
  121OSM   H14B12768   5.036   1.531  11.040 -0.1587 -0.7895 -1.8038
  121OSM   H14C12769   5.106   1.429  11.159  0.9397 -1.8022 -0.4821
  121OSM    C1312770   5.055   1.199  11.041  0.6965 -1.0189  0.0627
  121OSM   H13A12771   5.083   1.119  10.974  1.3913 -0.1090 -0.7601
  121OSM   H13B12772   4.949   1.196  11.059  0.5152  1.9938  0.0351
  121OSM   H13C12773   5.108   1.190  11.134 -2.2513 -0.9267  1.8888
  121OSM    C1212774   5.233   1.353  10.942 -0.4253  0.3757  0.5254
  121OSM   H12A12775   5.304   1.376  11.020  2.6287  1.2065 -2.2452
  121OSM   H12B12776   5.244   1.438  10.876  0.8400 -1.8989 -2.4328
  121OSM    C1112777   5.291   1.234  10.857 -0.1514 -0.4627  0.0936
  121OSM   H11A12778   5.393   1.259  10.820 -0.2490  0.0136  0.1390
  121OSM   H11B12779   5.237   1.220  10.762  0.9372 -1.9180 -0.3523
  121OSM      P12780   5.418   1.066  11.002  0.1625 -0.1568  0.1477
  121OSM    O1312781   5.462   1.178  11.087  0.2506 -0.1066 -0.2733
  121OSM    O1412782   5.382   0.933  11.063 -0.3232  0.1124 -0.8740
  121OSM    O1112783   5.519   1.046  10.883 -0.4386  0.5512  0.4232
  121OSM    O1212784   5.295   1.111  10.924  0.4506  0.1377 -0.4282
  121OSM    C1S12785   5.520   0.935  10.791  0.6425 -0.3112  0.5119
  121OSM    H1S12786   5.426   0.877  10.803 -1.3582  3.0054  2.3998
  121OSM    H1T12787   5.608   0.870  10.811 -0.4464 -1.8628  0.4309
  121OSM     NF12788   5.547   0.867  10.556 -0.4984  0.2570 -0.1951
  121OSM    HNF12789   5.631   0.822  10.530 -1.3130 -1.5642  0.1851
  121OSM    C2S12790   5.542   0.982  10.638  0.7719 -0.0338 -0.3701
  121OSM    H2S12791   5.460   1.049  10.606 -0.3111  0.1995  2.5639
  121OSM    C3S12792   5.667   1.069  10.624 -0.3328 -0.4577  0.2329
  121OSM    H3S12793   5.758   1.029  10.673 -1.3980 -0.0827  2.6594
  121OSM     O312794   5.649   1.191  10.689  0.0908  0.0613 -0.5652
  121OSM    HO312795   5.589   1.155  10.754  0.6224 -1.3919 -0.8552
  121OSM    C4S12796   5.699   1.101  10.482  0.5004  0.2822  0.2971
  121OSM    H4S12797   5.624   1.170  10.440  1.0230  1.2702  0.9547
  121OSM    C5S12798   5.803   1.054  10.406 -0.4555  0.2775  0.4437
  121OSM    H5S12799   5.865   0.977  10.453  0.2688  0.1595 -0.6560
  121OSM    C6S12800   5.815   1.092  10.261  0.4706  0.1733 -0.1932
  121OSM    H6S12801   5.740   1.024  10.216  0.2727  0.1658  0.1455
  121OSM    H6T12802   5.914   1.064  10.220  1.3949  2.3799  0.4230
  121OSM    C7S12803   5.787   1.234  10.216 -0.9983  0.6154  0.3781
  121OSM    H7S12804   5.858   1.301  10.270 -0.7098  1.3137 -0.8217
  121OSM    H7T12805   5.684   1.270  10.235 -2.1961 -1.3032 -2.0231
  121OSM    C8S12806   5.811   1.272  10.069 -0.5328 -0.3568 -0.0853
  121OSM    H8S12807   5.915   1.241  10.044  0.4625  3.5039 -1.4003
  121OSM    H8T12808   5.797   1.381  10.058  3.3427  0.2809  0.1078
  121OSM    C9S12809   5.731   1.183   9.978 -0.3161  1.2625  0.0536
  121OSM    H9S12810   5.630   1.169  10.022 -1.2645  1.2127 -2.0178
  121OSM    H9T12811   5.770   1.079   9.986 -0.9807  1.0264  0.3820
  121OSM   C10S12812   5.713   1.226   9.830 -0.4280 -0.0011 -0.0075
  121OSM   H10S12813   5.815   1.235   9.785 -0.5681  1.6455 -0.0828
  121OSM   H10T12814   5.665   1.325   9.814 -0.0569  0.4383  1.4278
  121OSM   C11S12815   5.637   1.117   9.756  1.0215  0.0798  0.3370
  121OSM   H11S12816   5.532   1.117   9.794  0.6738 -1.2817 -0.5743
  121OSM   H11T12817   5.674   1.016   9.781  1.7473 -0.1345 -1.4292
  121OSM   C12S12818   5.622   1.138   9.608 -0.0062  0.3387 -0.4239
  121OSM   H12S12819   5.596   1.245   9.592  0.4311  0.5084 -0.0264
  121OSM   H12T12820   5.553   1.057   9.579  2.4790 -2.1277  0.1510
  121OSM   C13S12821   5.745   1.115   9.517 -0.0731  0.4863 -0.8275
  121OSM   H13S12822   5.800   1.025   9.554 -0.0891 -0.0137 -1.9631
  121OSM   H13T12823   5.810   1.202   9.537 -0.5257  1.2799 -2.5868
  121OSM   C14S12824   5.708   1.105   9.370  0.2004  0.2431  0.2693
  121OSM   H14S12825   5.679   1.206   9.333  0.0579  0.5040  1.0748
  121OSM   H14T12826   5.614   1.050   9.351 -0.8686  1.9515  0.4116
  121OSM   C15S12827   5.820   1.031   9.293  0.0665 -0.4695  0.2062
  121OSM   H15S12828   5.837   0.928   9.330  0.9460 -0.0070  1.1341
  121OSM   H15T12829   5.921   1.061   9.328  0.5752 -0.4787 -1.2093
  121OSM   C16S12830   5.806   1.048   9.139  0.0041  0.2087 -0.3095
  121OSM   H16S12831   5.785   1.155   9.115 -0.4112  0.8756  2.7221
  121OSM   H16T12832   5.717   0.988   9.109 -0.1529 -1.2099  2.7064
  121OSM   C17S12833   5.917   0.976   9.068 -0.9910 -0.0088  0.7963
  121OSM   H17S12834   6.018   1.015   9.090  0.0633 -0.5618 -2.5141
  121OSM   H17T12835   5.904   0.987   8.958  1.9631 -2.9321  0.0174
  121OSM   C18S12836   5.923   0.823   9.101 -0.1803  0.2919  0.6530
  121OSM   H18S12837   5.925   0.797   9.209  1.6440 -0.6028  0.4509
  121OSM   H18T12838   6.017   0.772   9.069 -0.6330  0.7843 -1.6044
  121OSM   H18U12839   5.837   0.772   9.054 -2.4543  3.8192  0.6715
  121OSM    C1F12840   5.431   0.820  10.518  1.3964  0.1348  0.5077
  121OSM     OF12841   5.323   0.877  10.551  0.1517  0.6324  0.0826
  121OSM    C2F12842   5.437   0.682  10.446  0.0452 -0.3294  0.2716
  121OSM    H2F12843   5.391   0.612  10.519  1.2008 -1.9844 -0.5295
  121OSM    H2G12844   5.544   0.652  10.445  0.0892 -0.9947  4.6861
  121OSM    C3F12845   5.372   0.653  10.300 -0.4449 -0.8794  0.6271
  121OSM    H3F12846   5.265   0.683  10.305  0.0625  1.0596  0.7623
  121OSM    H3G12847   5.392   0.547  10.273  1.4290 -0.3229 -0.4009
  121OSM    C4F12848   5.419   0.748  10.186 -0.6123 -0.0616 -0.1395
  121OSM    H4F12849   5.529   0.758  10.169 -0.6502  1.4362  0.2874
  121OSM    H4G12850   5.387   0.853  10.206 -0.4736 -0.0431 -0.0087
  121OSM    C5F12851   5.348   0.705  10.061  0.6587  0.0763 -0.2036
  121OSM    H5F12852   5.240   0.707  10.087  1.0144 -1.2185  1.5560
  121OSM    H5G12853   5.364   0.598  10.034  1.5565  0.0426  0.4115
  121OSM    C6F12854   5.366   0.797   9.945 -0.0223 -0.5108 -0.3688
  121OSM    H6F12855   5.449   0.862   9.979  0.1469 -1.4183  1.0444
  121OSM    H6G12856   5.273   0.856   9.930 -0.4074 -1.2331 -0.8904
  121OSM    C7F12857   5.393   0.717   9.819  0.5044  0.3506  0.5224
  121OSM    H7F12858   5.316   0.643   9.789  1.2433 -0.3893  0.4140
  121OSM    H7G12859   5.484   0.658   9.842 -0.7483 -2.2970 -0.9611
  121OSM    C8F12860   5.429   0.813   9.703  0.0270  0.8625  0.5941
  121OSM    H8F12861   5.512   0.881   9.730  0.9920  0.2477 -0.6728
  121OSM    H8G12862   5.337   0.871   9.681 -0.5700  0.1142  1.0752
  121OSM    C9F12863   5.474   0.737   9.578  0.2531 -0.3803 -0.1229
  121OSM    H9F12864   5.554   0.665   9.602  1.1661  0.7896  0.4634
  121OSM   C10F12865   5.426   0.746   9.453  0.3139 -0.2312  0.2992
  121OSM   H10F12866   5.474   0.689   9.371  0.4082  0.5642 -0.2069
  121OSM   C11F12867   5.320   0.844   9.402 -0.6436 -0.1811 -0.3182
  121OSM   H11F12868   5.377   0.909   9.333  3.3328 -1.7575  1.1448
  121OSM   H11G12869   5.269   0.889   9.490 -2.0757  1.4836 -1.9252
  121OSM   C12F12870   5.205   0.759   9.336  0.2759  0.7109  0.3457
  121OSM   H12F12871   5.111   0.817   9.331 -0.5610 -0.6779 -1.0445
  121OSM   H12G12872   5.190   0.665   9.394 -0.8250  1.7755  1.8545
  121OSM   C13F12873   5.243   0.717   9.193  0.4459  0.4090 -0.7844
  121OSM   H13F12874   5.181   0.633   9.153  0.3841 -1.1808  2.3418
  121OSM   H13G12875   5.345   0.676   9.182  0.7353  1.2040 -1.1261
  121OSM   C14F12876   5.216   0.828   9.095  0.7938  0.5017  0.6524
  121OSM   H14F12877   5.304   0.894   9.109  1.3098 -0.6915  3.6795
  121OSM   H14G12878   5.128   0.888   9.125  0.5386  0.9214 -0.8148
  121OSM   C15F12879   5.204   0.783   8.947 -0.6696  1.2383 -0.2339
  121OSM   H15F12880   5.106   0.731   8.940  0.9334 -2.4075  1.7925
  121OSM   H15G12881   5.287   0.712   8.929  0.7132  1.9477  2.7017
  121OSM   C16F12882   5.211   0.904   8.848 -0.1857  0.6914 -0.6327
  121OSM   H16F12883   5.287   0.969   8.895  1.2924 -0.6831 -1.0192
  121OSM   H16G12884   5.114   0.955   8.869  0.2461  0.7437  1.4319
  121OSM   C17F12885   5.252   0.880   8.698  0.2256 -0.0400 -0.5120
  121OSM   H17F12886   5.197   0.793   8.657  0.3852 -0.3983  0.0178
  121OSM   H17G12887   5.355   0.839   8.712 -0.0336 -0.3638  0.5273
  121OSM   C18F12888   5.265   1.016   8.633  0.3204  0.4615  0.3251
  121OSM   H18F12889   5.168   1.065   8.655  0.1302 -0.2210  1.0524
  121OSM   H18G12890   5.276   1.003   8.524  0.1569  1.6629  0.1617
  121OSM   H18H12891   5.349   1.076   8.675  0.0250  1.8758 -1.0527
  122OSM      N12892   6.318   5.478  10.945  0.1171 -0.1796  0.4305
  122OSM    C1512893   6.408   5.417  10.846  0.0977 -0.2753  0.2565
  122OSM   H15A12894   6.440   5.323  10.888  0.9902  1.1411  2.9683
  122OSM   H15B12895   6.490   5.485  10.826 -0.6796  0.3735 -0.8632
  122OSM   H15C12896   6.359   5.404  10.750  2.6099 -0.7470 -1.0365
  122OSM    C1412897   6.402   5.517  11.066  0.2808  0.7294 -0.7014
  122OSM   H14A12898   6.449   5.427  11.102  0.4497 -0.6006 -3.8882
  122OSM   H14B12899   6.348   5.576  11.139 -1.0219  0.6693 -1.5833
  122OSM   H14C12900   6.488   5.575  11.036  0.0578  0.7743 -1.2811
  122OSM    C1312901   6.255   5.601  10.880  0.2414 -0.0297 -0.4667
  122OSM   H13A12902   6.199   5.657  10.953 -3.0903 -1.5908 -1.6350
  122OSM   H13B12903   6.196   5.563  10.798 -1.2584 -0.1927  0.6458
  122OSM   H13C12904   6.327   5.673  10.842  2.3103 -1.4999  0.4712
  122OSM    C1212905   6.215   5.385  10.989  0.3600 -0.1036  0.4338
  122OSM   H12A12906   6.153   5.358  10.905  1.2236 -0.8746  0.0309
  122OSM   H12B12907   6.144   5.436  11.052 -0.1851 -0.3984  0.0670
  122OSM    C1112908   6.257   5.253  11.052 -0.4590  0.2745  0.0220
  122OSM   H11A12909   6.160   5.201  11.069  0.2020 -0.7134  0.8770
  122OSM   H11B12910   6.301   5.270  11.152  0.9200  1.6516 -0.7705
  122OSM      P12911   6.324   5.039  10.913 -0.3308  0.2889  0.0000
  122OSM    O1312912   6.454   4.985  10.872 -0.3427  0.3649 -0.8698
  122OSM    O1412913   6.247   4.956  11.007  0.0449 -0.0934 -0.1277
  122OSM    O1112914   6.232   5.065  10.793  0.2010 -0.1479 -0.0063
  122OSM    O1212915   6.349   5.185  10.970 -0.0899  0.5059 -0.1497
  122OSM    C1S12916   6.261   5.135  10.673  0.1488 -0.0370  0.0001
  122OSM    H1S12917   6.354   5.194  10.689 -1.7763  2.4255  3.5903
  122OSM    H1T12918   6.177   5.206  10.657  1.5572  1.5044 -0.8808
  122OSM     NF12919   6.310   5.131  10.441  0.1736 -0.2647 -0.3523
  122OSM    HNF12920   6.238   5.169  10.384  0.1843 -0.6524 -0.6305
  122OSM    C2S12921   6.264   5.046  10.543  0.3231 -0.4654 -0.5889
  122OSM    H2S12922   6.341   4.967  10.553  1.2633  0.5097  0.1142
  122OSM    C3S12923   6.129   4.981  10.513 -0.0458  0.0292 -0.3590
  122OSM    H3S12924   6.050   5.054  10.488 -0.7511 -0.3172  0.7907
  122OSM     O312925   6.080   4.902  10.623  0.0124 -0.3920 -0.0584
  122OSM    HO312926   6.123   4.936  10.702 -1.1038  1.5039 -0.1910
  122OSM    C4S12927   6.134   4.886  10.386  0.0977  0.0942 -0.1019
  122OSM    H4S12928   6.161   4.785  10.419 -1.8440 -0.6406 -0.6046
  122OSM    C5S12929   6.103   4.917  10.261 -0.3566 -0.4663  0.5773
  122OSM    H5S12930   6.060   5.016  10.240  1.2834 -0.1785 -1.7935
  122OSM    C6S12931   6.122   4.824  10.139  0.4746  0.3699  0.5154
  122OSM    H6S12932   6.024   4.787  10.100  0.9337 -0.7030  0.3594
  122OSM    H6T12933   6.176   4.731  10.165  0.7042 -0.2754 -1.9801
  122OSM    C7S12934   6.192   4.891  10.029 -0.7641  0.1831  0.5583
  122OSM    H7S12935   6.295   4.918  10.063  0.0919 -1.9207 -0.2079
  122OSM    H7T12936   6.141   4.989  10.018 -0.6483 -0.0374 -2.7013
  122OSM    C8S12937   6.211   4.810   9.903  0.4431  0.5277 -0.2287
  122OSM    H8S12938   6.115   4.770   9.865  0.8207 -0.9633  0.3301
  122OSM    H8T12939   6.276   4.726   9.936 -0.8538  0.1943  1.6407
  122OSM    C9S12940   6.277   4.895   9.789 -0.9226 -0.1173  0.2260
  122OSM    H9S12941   6.371   4.949   9.815 -0.7101 -0.6873  0.6696
  122OSM    H9T12942   6.205   4.976   9.771 -0.1013  0.6734  0.4053
  122OSM   C10S12943   6.296   4.818   9.658  0.2249  0.4128 -0.5430
  122OSM   H10S12944   6.202   4.768   9.626  0.9446  0.0876 -2.2729
  122OSM   H10T12945   6.367   4.733   9.668 -0.2804  0.2282  2.3822
  122OSM   C11S12946   6.336   4.908   9.548  0.2147  0.2985  0.7081
  122OSM   H11S12947   6.431   4.959   9.572  1.7708 -1.5690 -1.1093
  122OSM   H11T12948   6.261   4.990   9.539  1.1019  1.0217 -0.3625
  122OSM   C12S12949   6.353   4.833   9.413 -0.1514  0.6898  0.4031
  122OSM   H12S12950   6.258   4.782   9.387  0.0211 -0.6540  2.1339
  122OSM   H12T12951   6.429   4.752   9.425  0.7760  1.3758 -0.6345
  122OSM   C13S12952   6.385   4.930   9.300 -0.2091  0.3096 -0.3785
  122OSM   H13S12953   6.329   5.026   9.307 -0.0700  0.5515 -2.0719
  122OSM   H13T12954   6.331   4.886   9.213  0.7663 -1.6252 -0.0630
  122OSM   C14S12955   6.531   4.947   9.271 -0.7173 -0.0635  0.5259
  122OSM   H14S12956   6.573   5.001   9.359 -0.4102  1.4392 -0.4933
  122OSM   H14T12957   6.540   5.007   9.177 -0.8269 -0.1489  0.4616
  122OSM   C15S12958   6.608   4.819   9.247  0.3988  0.5013  0.7176
  122OSM   H15S12959   6.534   4.742   9.214  0.9878 -0.4077  1.4630
  122OSM   H15T12960   6.644   4.788   9.348  1.8465  2.1943  0.7614
  122OSM   C16S12961   6.719   4.832   9.144  0.4561  0.0342  0.3463
  122OSM   H16S12962   6.781   4.920   9.168 -1.4799  2.2448 -2.1109
  122OSM   H16T12963   6.682   4.839   9.039  0.7754 -1.7243  0.0779
  122OSM   C17S12964   6.809   4.704   9.148 -0.5575  0.6810 -0.0691
  122OSM   H17S12965   6.739   4.617   9.158 -1.5412  1.5218  0.5351
  122OSM   H17T12966   6.868   4.708   9.242 -0.5678  1.8459 -0.1052
  122OSM   C18S12967   6.900   4.687   9.026  0.1456 -0.8163 -0.4335
  122OSM   H18S12968   6.846   4.714   8.932  0.2278 -2.2631 -0.9256
  122OSM   H18T12969   6.936   4.582   9.023  0.1259 -0.8129 -0.8760
  122OSM   H18U12970   6.990   4.751   9.038  2.5942 -3.8782 -1.3529
  122OSM    C1F12971   6.432   5.189  10.444 -0.0850  0.2701 -0.2478
  122OSM     OF12972   6.528   5.148  10.514 -0.1936  0.0594 -0.3484
  122OSM    C2F12973   6.451   5.310  10.362 -0.4070 -0.0957 -0.2317
  122OSM    H2F12974   6.509   5.388  10.415  0.3398 -1.3772  0.9130
  122OSM    H2G12975   6.350   5.356  10.353  0.2930  1.6619  0.4261
  122OSM    C3F12976   6.529   5.258  10.242 -1.0254  0.2494  0.1031
  122OSM    H3F12977   6.465   5.183  10.191 -0.4383 -1.1826  1.3757
  122OSM    H3G12978   6.630   5.218  10.267 -1.3976 -0.8227 -0.0677
  122OSM    C4F12979   6.546   5.361  10.138  0.0293  0.1155  0.4778
  122OSM    H4F12980   6.578   5.462  10.172  1.8887 -0.0491 -0.6190
  122OSM    H4G12981   6.453   5.381  10.081  0.3958  1.7626  0.3972
  122OSM    C5F12982   6.643   5.317  10.022 -0.7061  0.3011 -0.1873
  122OSM    H5F12983   6.631   5.207  10.028 -0.3967  0.3215  1.3943
  122OSM    H5G12984   6.746   5.348  10.051  0.3320 -1.0190 -2.2426
  122OSM    C6F12985   6.615   5.372   9.873  0.5385 -0.5620 -0.3961
  122OSM    H6F12986   6.701   5.345   9.808 -0.4767  0.1330 -2.0876
  122OSM    H6G12987   6.595   5.480   9.883 -0.6401 -0.7575 -0.4729
  122OSM    C7F12988   6.499   5.308   9.792  0.7570  0.3302 -0.1096
  122OSM    H7F12989   6.406   5.318   9.853  1.2090  0.6832  0.5364
  122OSM    H7G12990   6.524   5.200   9.789 -0.3793  0.0703 -2.0162
  122OSM    C8F12991   6.498   5.365   9.645  0.3225  0.0956 -1.1913
  122OSM    H8F12992   6.597   5.363   9.596 -0.0634  1.1195 -2.0529
  122OSM    H8G12993   6.473   5.473   9.659  1.2359  0.0429  1.3679
  122OSM    C9F12994   6.403   5.300   9.544 -0.3530  0.7695  0.8962
  122OSM    H9F12995   6.359   5.201   9.564  1.9605 -0.7256 -0.8399
  122OSM   C10F12996   6.377   5.356   9.426 -0.0095  0.0732  0.3317
  122OSM   H10F12997   6.310   5.299   9.360  2.3635 -2.6281  0.1156
  122OSM   C11F12998   6.430   5.487   9.372 -0.3808  0.3447  0.4330
  122OSM   H11F12999   6.539   5.494   9.392 -0.0572  1.0052 -1.3513
  122OSM   H11G13000   6.384   5.571   9.427  0.5917  0.6331  0.8216
  122OSM   C12F13001   6.410   5.509   9.227 -0.6205  0.3620  0.0503
  122OSM   H12F13002   6.315   5.563   9.210 -1.1411  0.0500  1.7761
  122OSM   H12G13003   6.418   5.413   9.170  1.3605 -0.1182  1.0208
  122OSM   C13F13004   6.523   5.599   9.182  0.5942 -0.5414 -0.1890
  122OSM   H13F13005   6.619   5.543   9.183  0.1484 -1.3199  0.8454
  122OSM   H13G13006   6.528   5.693   9.239 -2.0554  0.1156 -0.8545
  122OSM   C14F13007   6.500   5.669   9.049 -0.5315 -0.9122  0.2137
  122OSM   H14F13008   6.411   5.735   9.049  1.3339  1.8052 -1.7099
  122OSM   H14G13009   6.491   5.581   8.981 -0.1542 -2.1956  1.7361
  122OSM   C15F13010   6.629   5.747   9.009 -0.4198  0.3064  0.2001
  122OSM   H15F13011   6.721   5.708   9.058  0.3174 -0.3874 -1.6578
  122OSM   H15G13012   6.622   5.857   9.027  1.8509  0.2131  2.0937
  122OSM   C16F13013   6.647   5.722   8.854 -0.5046 -0.5246  1.0950
  122OSM   H16F13014   6.554   5.741   8.795  0.7413  0.5608 -0.6063
  122OSM   H16G13015   6.681   5.620   8.827 -1.7448 -1.0374  1.3994
  122OSM   C17F13016   6.756   5.820   8.797  0.0825  0.0650 -0.6336
  122OSM   H17F13017   6.708   5.918   8.816 -0.7717 -0.2854 -0.9115
  122OSM   H17G13018   6.775   5.802   8.689 -1.2126 -1.1168 -0.7077
  122OSM   C18F13019   6.886   5.807   8.872  0.2794 -0.3608  0.3710
  122OSM   H18F13020   6.941   5.710   8.875  0.1296 -0.4237  2.0618
  122OSM   H18G13021   6.864   5.847   8.973 -0.8424  2.8422 -0.9921
  122OSM   H18H13022   6.955   5.888   8.840 -0.4066  0.1461  0.1531
  123OSM      N13023   4.225   3.440   5.870 -0.0687  0.1428 -0.6882
  123OSM    C1513024   4.174   3.301   5.865 -0.1653 -0.0076 -0.5879
  123OSM   H15A13025   4.100   3.289   5.787  2.2128 -0.8655 -2.8772
  123OSM   H15B13026   4.127   3.288   5.961  1.3448  1.3010  0.3813
  123OSM   H15C13027   4.254   3.232   5.843  1.3308  0.6726  2.2636
  123OSM    C1413028   4.326   3.455   5.973 -0.2606  0.0853 -0.3452
  123OSM   H14A13029   4.376   3.551   5.978  2.2470 -1.1374 -0.2862
  123OSM   H14B13030   4.406   3.384   5.958 -0.3755 -1.1113  3.4823
  123OSM   H14C13031   4.285   3.439   6.072  4.1128 -1.0276  1.5237
  123OSM    C1313032   4.277   3.482   5.735 -0.4656 -0.2486 -0.0573
  123OSM   H13A13033   4.320   3.580   5.731  2.7922 -1.5359  0.6158
  123OSM   H13B13034   4.215   3.461   5.649  3.6079  1.0079 -3.6628
  123OSM   H13C13035   4.363   3.421   5.710  0.4216  0.4032  1.3339
  123OSM    C1213036   4.105   3.527   5.908  0.1205  0.1861  0.2374
  123OSM   H12A13037   4.030   3.523   5.830 -1.0888  2.0918  1.2241
  123OSM   H12B13038   4.152   3.625   5.911  0.8288 -0.1326 -0.1762
  123OSM    C1113039   4.040   3.495   6.044 -0.1910 -0.0057  0.0582
  123OSM   H11A13040   3.993   3.587   6.086 -0.2031  0.1118 -0.2128
  123OSM   H11B13041   4.110   3.455   6.120 -0.6913 -1.0805 -0.0268
  123OSM      P13042   3.807   3.413   5.987  0.2399 -0.0280 -0.7153
  123OSM    O1313043   3.804   3.536   5.905  0.0709  0.3853 -0.3365
  123OSM    O1413044   3.732   3.289   5.957 -0.1879  0.4275  0.6872
  123OSM    O1113045   3.751   3.463   6.127 -0.0736  0.0692 -1.0712
  123OSM    O1213046   3.957   3.375   6.012  0.8450 -0.6494 -0.4176
  123OSM    C1S13047   3.766   3.403   6.255 -0.2028 -0.3946  0.1740
  123OSM    H1S13048   3.844   3.324   6.252 -0.9926 -1.1608 -0.9705
  123OSM    H1T13049   3.673   3.348   6.281 -0.4220 -0.6772 -1.1263
  123OSM     NF13050   3.783   3.418   6.497 -0.1607 -0.1318  0.0227
  123OSM    HNF13051   3.714   3.454   6.559  2.2013  0.6323  2.3500
  123OSM    C2S13052   3.804   3.498   6.374 -0.5679  0.1236 -0.0504
  123OSM    H2S13053   3.913   3.508   6.354 -0.8561 -0.7506 -2.3448
  123OSM    C3S13054   3.740   3.634   6.364  0.5721 -0.3532 -0.4910
  123OSM    H3S13055   3.634   3.613   6.390  1.1729 -2.8545  0.2354
  123OSM     O313056   3.743   3.694   6.235  0.4608  0.1497  0.7894
  123OSM    HO313057   3.779   3.628   6.175 -0.6772  1.0469 -0.9287
  123OSM    C4S13058   3.792   3.726   6.469 -0.3569  0.3810  0.4162
  123OSM    H4S13059   3.897   3.756   6.460 -0.1884 -0.7325 -1.8438
  123OSM    C5S13060   3.721   3.779   6.571 -0.2623 -0.5266 -0.4951
  123OSM    H5S13061   3.612   3.776   6.561 -0.2837  1.9933 -1.7419
  123OSM    C6S13062   3.774   3.873   6.679 -0.6998 -0.4677  0.3971
  123OSM    H6S13063   3.738   3.976   6.659  0.3882 -0.3090 -0.8704
  123OSM    H6T13064   3.884   3.875   6.667 -0.6332 -1.7616  0.6657
  123OSM    C7S13065   3.740   3.850   6.825 -0.5024  0.1976 -0.3250
  123OSM    H7S13066   3.764   3.743   6.847  2.8688  0.7216 -0.8721
  123OSM    H7T13067   3.631   3.864   6.838 -0.4665  2.7546 -2.1009
  123OSM    C8S13068   3.819   3.933   6.924 -0.2211 -0.3263 -0.5468
  123OSM    H8S13069   3.770   4.033   6.926 -0.3279 -0.3549 -1.3796
  123OSM    H8T13070   3.921   3.953   6.886  1.4026 -0.9297  3.0917
  123OSM    C9S13071   3.816   3.880   7.066 -0.4245 -0.4318 -0.5481
  123OSM    H9S13072   3.841   3.771   7.069 -0.6707 -0.4988 -0.8750
  123OSM    H9T13073   3.707   3.881   7.086 -1.5105 -2.3422 -4.9750
  123OSM   C10S13074   3.899   3.971   7.159  0.4026 -0.0210 -0.3630
  123OSM   H10S13075   3.888   4.079   7.134 -0.8404 -0.3622 -1.4003
  123OSM   H10T13076   4.007   3.947   7.148  0.0813 -1.7264 -0.0851
  123OSM   C11S13077   3.874   3.941   7.307 -0.0035 -0.9221  0.7301
  123OSM   H11S13078   3.959   3.986   7.362  0.8283  0.4536 -1.5302
  123OSM   H11T13079   3.878   3.833   7.332  0.9018 -0.6109  2.0266
  123OSM   C12S13080   3.747   3.996   7.362  0.2016  0.0221  0.0530
  123OSM   H12S13081   3.665   3.942   7.310 -2.1718  0.6676  2.8845
  123OSM   H12T13082   3.740   4.106   7.353  0.7531  0.0384 -0.2299
  123OSM   C13S13083   3.722   3.963   7.514  0.1166 -0.5517 -0.0913
  123OSM   H13S13084   3.722   3.853   7.531 -3.1032 -0.6003  0.1410
  123OSM   H13T13085   3.618   3.996   7.534  0.2083 -0.8322  0.8794
  123OSM   C14S13086   3.820   4.032   7.609  0.4723  0.6997 -0.5445
  123OSM   H14S13087   3.853   4.134   7.578  2.0082  0.6840  0.8684
  123OSM   H14T13088   3.922   3.988   7.613  1.2611  2.4633 -0.2433
  123OSM   C15S13089   3.744   4.054   7.744 -0.3467  0.5857  0.5907
  123OSM   H15S13090   3.808   4.020   7.828  0.8632 -1.4172 -1.0635
  123OSM   H15T13091   3.658   3.984   7.747  1.9626 -2.5146 -0.6556
  123OSM   C16S13092   3.708   4.199   7.782 -0.7247 -0.0409 -0.8692
  123OSM   H16S13093   3.668   4.246   7.689 -0.9021  0.0131 -0.7676
  123OSM   H16T13094   3.803   4.255   7.795 -0.4358 -0.9139  1.1327
  123OSM   C17S13095   3.613   4.214   7.896  0.4930 -0.6607 -0.0088
  123OSM   H17S13096   3.674   4.199   7.987 -1.1087 -0.6649  1.1066
  123OSM   H17T13097   3.538   4.133   7.886  1.2486 -1.5070  0.8945
  123OSM   C18S13098   3.546   4.346   7.901  0.2987 -0.3513 -1.1791
  123OSM   H18S13099   3.476   4.347   7.815  0.4336 -1.0654 -1.3006
  123OSM   H18T13100   3.620   4.430   7.901 -0.3984  0.4046  2.2219
  123OSM   H18U13101   3.481   4.361   7.990 -0.8936  0.1277 -2.0986
  123OSM    C1F13102   3.867   3.327   6.550  0.0116  0.3581  1.1549
  123OSM     OF13103   3.973   3.299   6.500  0.1387  0.2227  0.1175
  123OSM    C2F13104   3.815   3.249   6.675  0.3533  0.0734 -0.3658
  123OSM    H2F13105   3.719   3.197   6.656  1.0626 -0.9662 -1.2377
  123OSM    H2G13106   3.817   3.318   6.762 -2.1159  0.1734 -0.3157
  123OSM    C3F13107   3.907   3.130   6.710  0.7278 -0.3194 -0.0695
  123OSM    H3F13108   4.012   3.167   6.712  2.2125 -3.7213 -3.2391
  123OSM    H3G13109   3.889   3.045   6.641 -0.8475  0.4791 -0.6790
  123OSM    C4F13110   3.880   3.083   6.851  0.6738  0.2130 -0.1824
  123OSM    H4F13111   3.771   3.078   6.870  0.8367 -0.1062  0.6823
  123OSM    H4G13112   3.924   3.157   6.921 -2.2901  2.4981 -0.5475
  123OSM    C5F13113   3.940   2.940   6.863 -0.2361  0.0130 -0.2807
  123OSM    H5F13114   4.049   2.946   6.881 -0.0595  0.1024 -1.2994
  123OSM    H5G13115   3.920   2.897   6.762 -2.4982  0.2796 -0.0027
  123OSM    C6F13116   3.881   2.833   6.962 -0.8503  0.0744 -0.3820
  123OSM    H6F13117   3.935   2.737   6.945  0.4569 -0.0308  3.4174
  123OSM    H6G13118   3.775   2.815   6.935 -0.4225 -0.8765 -1.5241
  123OSM    C7F13119   3.910   2.875   7.107  0.6065 -0.3442  0.3537
  123OSM    H7F13120   3.888   2.981   7.133 -2.2710  0.1614 -3.2783
  123OSM    H7G13121   4.020   2.862   7.117  0.4554 -2.9066 -0.5290
  123OSM    C8F13122   3.845   2.785   7.205 -0.4572  0.1071 -0.3629
  123OSM    H8F13123   3.888   2.824   7.299  0.0454  1.3193 -1.0722
  123OSM    H8G13124   3.872   2.678   7.189  1.2156 -0.0315  2.8323
  123OSM    C9F13125   3.690   2.795   7.212 -0.8554  0.2811 -0.3035
  123OSM    H9F13126   3.639   2.800   7.114 -1.2079  1.2120 -0.0798
  123OSM   C10F13127   3.618   2.827   7.324 -0.6830 -0.7441  0.2678
  123OSM   H10F13128   3.508   2.832   7.322 -0.7141 -1.4495 -0.8787
  123OSM   C11F13129   3.688   2.840   7.462 -0.0692  0.7673 -0.0346
  123OSM   H11F13130   3.787   2.791   7.467  0.1737  1.3577  1.5183
  123OSM   H11G13131   3.619   2.809   7.544 -0.3996  1.9201  0.1423
  123OSM   C12F13132   3.714   2.995   7.484 -0.6373  0.2211 -0.8947
  123OSM   H12F13133   3.627   3.061   7.464  0.5807  2.5419  0.9437
  123OSM   H12G13134   3.791   3.010   7.406 -0.3482 -1.9066 -1.0949
  123OSM   C13F13135   3.773   3.016   7.626  0.3529 -0.1518  0.3751
  123OSM   H13F13136   3.867   2.956   7.635  1.2290  0.8045 -1.6553
  123OSM   H13G13137   3.705   2.978   7.704 -1.2439 -0.8977 -1.2989
  123OSM   C14F13138   3.822   3.158   7.656 -1.0563 -0.2304  0.1711
  123OSM   H14F13139   3.728   3.213   7.677 -0.2683  1.2836 -0.1268
  123OSM   H14G13140   3.863   3.201   7.562 -0.3542 -1.8703 -0.3109
  123OSM   C15F13141   3.914   3.156   7.785  0.1744 -0.1902 -0.4057
  123OSM   H15F13142   3.994   3.078   7.785  0.4128 -0.0493 -3.1352
  123OSM   H15G13143   3.843   3.140   7.869  2.0221 -2.0365  0.9205
  123OSM   C16F13144   3.990   3.288   7.810  0.7639 -0.2490  0.5685
  123OSM   H16F13145   4.053   3.303   7.720 -0.6295  1.1929 -0.2165
  123OSM   H16G13146   4.057   3.274   7.898 -0.4591 -1.3544  1.3742
  123OSM   C17F13147   3.892   3.413   7.819  0.2252  0.7551 -0.1098
  123OSM   H17F13148   3.826   3.395   7.906 -1.8214  0.9821 -1.5438
  123OSM   H17G13149   3.834   3.419   7.724 -1.1888 -1.4638  0.5392
  123OSM   C18F13150   3.969   3.544   7.842  0.4037 -0.5495  0.2012
  123OSM   H18F13151   3.899   3.628   7.858  0.2376 -0.8854  1.3395
  123OSM   H18G13152   4.043   3.552   7.760 -0.8338  0.3327 -0.8601
  123OSM   H18H13153   4.028   3.544   7.936  0.9938  3.3936 -0.0094
  124OSM      N13154   6.025   0.773   5.998  0.4414 -0.3136 -0.3210
  124OSM    C1513155   6.128   0.685   6.072  1.0468 -0.6169 -0.2465
  124OSM   H15A13156   6.077   0.623   6.144  0.8727  0.5248  0.6411
  124OSM   H15B13157   6.199   0.749   6.123 -1.7970  0.2254  3.0702
  124OSM   H15C13158   6.195   0.628   6.009  1.8278 -0.0207  0.0248
  124OSM    C1413159   6.087   0.837   5.879 -0.5357  0.0587 -0.0960
  124OSM   H14A13160   6.016   0.861   5.801  1.5720 -1.1286 -2.5471
  124OSM   H14B13161   6.160   0.777   5.827 -0.6430 -1.6466  1.6373
  124OSM   H14C13162   6.131   0.933   5.903 -1.9983  0.3097  1.7635
  124OSM    C1313163   5.920   0.679   5.950 -0.4804 -0.1847 -0.4024
  124OSM   H13A13164   5.858   0.719   5.871  0.1278  1.2243 -0.1959
  124OSM   H13B13165   5.860   0.635   6.028 -0.6719 -0.7971 -0.8909
  124OSM   H13C13166   5.972   0.596   5.906  0.5709 -0.0103  0.4729
  124OSM    C1213167   5.962   0.873   6.088  0.4968  0.4754  0.9636
  124OSM   H12A13168   5.880   0.813   6.125  0.7962 -0.5199  0.0522
  124OSM   H12B13169   5.915   0.951   6.030 -1.6203 -1.2805  0.1808
  124OSM    C1113170   6.037   0.924   6.210  0.2670 -0.4477 -0.0047
  124OSM   H11A13171   6.065   0.841   6.277  1.9203 -2.4109 -2.8945
  124OSM   H11B13172   5.969   0.990   6.268 -0.2877 -0.0600 -1.0510
  124OSM      P13173   6.289   0.983   6.239 -0.5270  0.4713  0.1540
  124OSM    O1313174   6.338   0.846   6.206 -0.0796  0.0203 -0.3987
  124OSM    O1413175   6.383   1.093   6.204 -0.1294  0.0821 -0.0527
  124OSM    O1113176   6.248   0.990   6.383  0.4733 -0.1733 -0.7994
  124OSM    O1213177   6.145   1.016   6.167 -0.4169  0.1528  0.5311
  124OSM    C1S13178   6.317   0.944   6.501 -0.2151  0.1733  0.5604
  124OSM    H1S13179   6.426   0.950   6.486 -0.0336 -1.1298  1.1779
  124OSM    H1T13180   6.315   0.833   6.509  1.3088  0.1958  1.5914
  124OSM     NF13181   6.372   0.962   6.739 -0.5185  0.1835 -0.0070
  124OSM    HNF13182   6.332   0.910   6.814 -1.0006  0.9001  0.2471
  124OSM    C2S13183   6.289   1.019   6.633  0.0449 -0.3185  0.6499
  124OSM    H2S13184   6.325   1.121   6.608  0.7636 -0.7523 -0.1261
  124OSM    C3S13185   6.139   1.015   6.667 -0.3783  0.6911 -0.0906
  124OSM    H3S13186   6.130   0.908   6.695  2.5881 -0.1410 -1.8805
  124OSM     O313187   6.046   1.052   6.565 -0.3482  0.1672  0.2709
  124OSM    HO313188   6.093   1.101   6.498 -3.3526  2.0845 -0.6280
  124OSM    C4S13189   6.118   1.100   6.795  0.2949  0.6119  0.6070
  124OSM    H4S13190   6.143   1.040   6.884  1.0427  0.5730  0.3789
  124OSM    C5S13191   6.100   1.230   6.804 -0.4228  0.1236  0.5679
  124OSM    H5S13192   6.100   1.293   6.715  0.8292  1.0053  1.1662
  124OSM    C6S13193   6.087   1.303   6.936 -0.0360 -0.1492 -0.4632
  124OSM    H6S13194   5.982   1.339   6.945 -0.1922 -0.1601 -1.9727
  124OSM    H6T13195   6.148   1.395   6.945 -1.9075  0.9502  1.9433
  124OSM    C7S13196   6.107   1.218   7.067  0.0969  0.2297 -0.2376
  124OSM    H7S13197   6.209   1.175   7.064 -0.8108 -2.0562 -0.3390
  124OSM    H7T13198   6.044   1.127   7.069  1.6094 -0.9155 -1.5061
  124OSM    C8S13199   6.088   1.302   7.187 -0.3159  0.6534 -0.1963
  124OSM    H8S13200   5.981   1.333   7.191 -0.6339 -0.5031  1.3197
  124OSM    H8T13201   6.145   1.397   7.180 -0.7528  0.9446  0.1987
  124OSM    C9S13202   6.133   1.233   7.310 -0.0666  0.1591 -0.8044
  124OSM    H9S13203   6.235   1.188   7.303 -0.9941 -2.3891  0.3826
  124OSM    H9T13204   6.068   1.144   7.328  1.4101 -0.7007  0.6027
  124OSM   C10S13205   6.116   1.321   7.431 -0.4860 -0.2974 -0.0852
  124OSM   H10S13206   6.148   1.426   7.417 -1.1713  0.1515  1.5021
  124OSM   H10T13207   6.171   1.275   7.515 -0.3506 -0.1335 -0.0836
  124OSM   C11S13208   5.964   1.329   7.468  0.7172 -0.8416  0.0106
  124OSM   H11S13209   5.920   1.228   7.482 -0.6531 -0.0546  1.7029
  124OSM   H11T13210   5.913   1.375   7.381  0.2450  3.9110  2.4672
  124OSM   C12S13211   5.933   1.419   7.592  0.1458 -0.2765 -0.4109
  124OSM   H12S13212   5.965   1.524   7.571  3.1172 -1.2809 -1.3895
  124OSM   H12T13213   5.990   1.382   7.680 -0.4258 -4.5236 -1.6413
  124OSM   C13S13214   5.784   1.425   7.619 -0.2041 -0.0926  0.0990
  124OSM   H13S13215   5.759   1.322   7.652 -0.9646 -0.0899 -0.4365
  124OSM   H13T13216   5.727   1.446   7.526  1.7830  1.0233 -0.9345
  124OSM   C14S13217   5.733   1.521   7.737  0.4293  0.2728  0.2430
  124OSM   H14S13218   5.622   1.524   7.733  0.3978 -0.5435  0.4543
  124OSM   H14T13219   5.780   1.616   7.704  4.3244 -1.4494  0.2108
  124OSM   C15S13220   5.782   1.479   7.877 -0.0055  0.7456 -0.3173
  124OSM   H15S13221   5.889   1.510   7.880  0.2823 -0.1835 -0.5736
  124OSM   H15T13222   5.775   1.369   7.892 -1.8658  0.3132 -3.4001
  124OSM   C16S13223   5.717   1.555   7.991 -0.3601  0.1663  0.7568
  124OSM   H16S13224   5.765   1.546   8.090  0.2189 -1.0082  0.3867
  124OSM   H16T13225   5.614   1.514   7.999  0.2960 -2.2327 -1.5182
  124OSM   C17S13226   5.699   1.703   7.970  0.2170 -0.4740 -0.4996
  124OSM   H17S13227   5.619   1.715   7.894  0.3318  2.3159 -0.2739
  124OSM   H17T13228   5.785   1.752   7.919 -0.1653  1.8112  0.9076
  124OSM   C18S13229   5.671   1.785   8.095 -0.4389 -0.2393 -0.2233
  124OSM   H18S13230   5.758   1.790   8.163 -1.5110  0.4544  1.1581
  124OSM   H18T13231   5.593   1.743   8.163 -0.6988  1.6593  0.7189
  124OSM   H18U13232   5.651   1.886   8.052 -1.5496 -0.3350  0.0291
  124OSM    C1F13233   6.507   0.976   6.750  0.7300  0.4361  0.3721
  124OSM     OF13234   6.575   1.042   6.676 -0.0999  0.3420 -0.0788
  124OSM    C2F13235   6.568   0.894   6.863  0.1393  0.0286  0.2486
  124OSM    H2F13236   6.580   0.789   6.827 -0.3788 -1.0315  2.9651
  124OSM    H2G13237   6.496   0.892   6.947 -1.3916 -2.9247 -0.9744
  124OSM    C3F13238   6.700   0.947   6.921  0.1152  0.2745  0.6672
  124OSM    H3F13239   6.785   0.933   6.851 -0.2873  1.4356 -0.0804
  124OSM    H3G13240   6.732   0.890   7.011  1.7770 -0.3757 -0.2985
  124OSM    C4F13241   6.696   1.098   6.948  0.1107  0.5689  0.0126
  124OSM    H4F13242   6.594   1.112   6.988 -0.0096 -0.6232  0.1684
  124OSM    H4G13243   6.708   1.165   6.860  0.7081  0.3289 -0.0977
  124OSM    C5F13244   6.788   1.151   7.053 -0.3139 -0.3567 -0.4506
  124OSM    H5F13245   6.789   1.261   7.040 -2.1795  0.0493  1.9885
  124OSM    H5G13246   6.894   1.122   7.039 -0.1386  0.8729 -1.7967
  124OSM    C6F13247   6.755   1.122   7.201  0.5556 -0.3026  0.2235
  124OSM    H6F13248   6.753   1.011   7.212 -0.9875 -0.1499  1.9152
  124OSM    H6G13249   6.653   1.151   7.233  0.2023 -0.9043 -0.3191
  124OSM    C7F13250   6.849   1.188   7.304  0.3202  0.4507 -0.2137
  124OSM    H7F13251   6.843   1.298   7.295 -2.2820  0.4772  1.0486
  124OSM    H7G13252   6.950   1.148   7.279 -1.1164 -2.7117 -1.5162
  124OSM    C8F13253   6.806   1.156   7.449 -0.1267  0.7010  0.3922
  124OSM    H8F13254   6.791   1.047   7.461  0.3058  0.4262 -1.3028
  124OSM    H8G13255   6.707   1.200   7.473  0.5807  3.3236 -1.0485
  124OSM    C9F13256   6.908   1.212   7.543  0.0271  0.1830 -0.6559
  124OSM    H9F13257   6.992   1.270   7.502  1.2715 -1.2631 -0.2556
  124OSM   C10F13258   6.907   1.182   7.680  0.5800 -0.7130 -0.3576
  124OSM   H10F13259   6.969   1.240   7.750 -1.1517  0.6054  0.1507
  124OSM   C11F13260   6.804   1.103   7.759 -0.6836 -0.4461 -0.4367
  124OSM   H11F13261   6.814   0.993   7.769 -1.8066 -0.4638  0.8705
  124OSM   H11G13262   6.709   1.118   7.703 -0.6800 -1.5013 -0.7487
  124OSM   C12F13263   6.790   1.158   7.902  0.0513 -0.1305 -0.0977
  124OSM   H12F13264   6.754   1.263   7.895 -1.4964 -0.7195 -1.6464
  124OSM   H12G13265   6.886   1.156   7.958  1.6261  1.6589 -2.5025
  124OSM   C13F13266   6.675   1.092   7.982  0.6501 -0.1220  0.1123
  124OSM   H13F13267   6.688   0.985   7.956  1.4924  0.0206 -0.0638
  124OSM   H13G13268   6.572   1.120   7.950  0.9929  1.5671  0.4203
  124OSM   C14F13269   6.678   1.114   8.133  0.1326  0.3579 -0.2044
  124OSM   H14F13270   6.640   1.217   8.154  2.6357  1.2126  0.4832
  124OSM   H14G13271   6.783   1.093   8.162 -0.2298 -0.9674  0.2384
  124OSM   C15F13272   6.592   1.005   8.207  0.5038  0.4747 -0.4591
  124OSM   H15F13273   6.639   0.907   8.182  0.8769  0.5401 -0.0341
  124OSM   H15G13274   6.486   1.017   8.177  0.2591  2.2771  0.9955
  124OSM   C16F13275   6.605   1.009   8.356 -0.5441  0.0233 -0.2967
  124OSM   H16F13276   6.563   1.105   8.393  2.0840  2.2217 -2.5633
  124OSM   H16G13277   6.710   1.005   8.395 -0.1621 -0.7022 -1.3442
  124OSM   C17F13278   6.529   0.889   8.422  0.4066 -0.3117 -0.1241
  124OSM   H17F13279   6.560   0.786   8.391 -1.0619 -0.6961 -0.3699
  124OSM   H17G13280   6.430   0.890   8.372 -0.7369  0.0122  2.0151
  124OSM   C18F13281   6.522   0.915   8.572  0.3478 -0.3988 -0.1847
  124OSM   H18F13282   6.609   0.975   8.604 -0.8511  1.9568 -1.1411
  124OSM   H18G13283   6.539   0.816   8.621  1.9330 -0.9576 -1.7364
  124OSM   H18H13284   6.427   0.967   8.596  1.2248  1.6881 -1.0468
  125OSM      N13285   0.152   2.405   6.282  0.2244 -0.4318 -0.6848
  125OSM    C1513286   0.210   2.496   6.389  0.3280  0.1517 -0.2394
  125OSM   H15A13287   0.175   2.598   6.378  1.9929  0.6828 -1.1517
  125OSM   H15B13288   0.318   2.490   6.383  0.3067  0.5096 -1.1623
  125OSM   H15C13289   0.179   2.454   6.483  0.0863 -2.3951 -1.3920
  125OSM    C1413290   0.211   2.433   6.149  0.5106 -0.5795  0.1897
  125OSM   H14A13291   0.166   2.379   6.066 -1.1833  3.1908 -1.5650
  125OSM   H14B13292   0.319   2.434   6.152  0.6921  3.3813 -1.3494
  125OSM   H14C13293   0.184   2.534   6.123  0.3164 -0.5732  0.4131
  125OSM    C1313294   0.172   2.268   6.335 -0.3913 -0.1842 -0.6209
  125OSM   H13A13295   0.155   2.255   6.441  0.7571  0.3338 -0.3640
  125OSM   H13B13296   0.274   2.240   6.312  0.1021 -1.5747  2.6493
  125OSM   H13C13297   0.114   2.194   6.281 -0.8444  0.8604 -1.6177
  125OSM    C1213298   0.003   2.422   6.303  0.0950  0.1461  0.0911
  125OSM   H12A13299  -0.022   2.527   6.301  0.3701  0.2098 -1.6798
  125OSM   H12B13300  -0.031   2.384   6.398 -0.7850 -1.1098 -0.6944
  125OSM    C1113301  -0.075   2.343   6.191  0.2786 -0.2654  0.7139
  125OSM   H11A13302  -0.022   2.246   6.182  1.0174  0.0633  1.3817
  125OSM   H11B13303  -0.069   2.412   6.104 -0.9005 -1.1895 -0.1322
  125OSM      P13304  -0.265   2.215   6.322 -0.3982  0.2892  0.3373
  125OSM    O1313305  -0.412   2.226   6.325  0.1971  0.1631  0.2508
  125OSM    O1413306  -0.206   2.091   6.269  0.0847 -0.0026 -0.1099
  125OSM    O1113307  -0.202   2.250   6.464 -0.6668 -0.3607 -0.3438
  125OSM    O1213308  -0.211   2.328   6.226  0.1061 -0.4435 -0.3427
  125OSM    C1S13309  -0.287   2.314   6.558  0.0910  0.3956 -0.3608
  125OSM    H1S13310  -0.386   2.264   6.563 -0.0929  0.6464 -1.2787
  125OSM    H1T13311  -0.298   2.424   6.541 -1.4078  0.1098 -1.4977
  125OSM     NF13312  -0.314   2.345   6.800 -0.1955 -0.2530  0.2716
  125OSM    HNF13313  -0.312   2.440   6.828 -0.3514  0.2512 -1.3471
  125OSM    C2S13314  -0.218   2.308   6.696 -0.0150  0.2419 -0.2697
  125OSM    H2S13315  -0.182   2.205   6.715 -2.0305 -0.1374  1.8449
  125OSM    C3S13316  -0.083   2.397   6.689  0.6706 -0.4836 -0.0677
  125OSM    H3S13317  -0.121   2.490   6.641 -0.6707 -0.6992  0.5207
  125OSM     O313318   0.014   2.337   6.605 -0.1927 -0.6263  0.2300
  125OSM    HO313319  -0.033   2.262   6.568 -1.3723 -0.5707  1.5552
  125OSM    C4S13320  -0.018   2.432   6.825  0.0790  0.0306 -0.0719
  125OSM    H4S13321  -0.046   2.531   6.866 -2.2029 -0.4818 -0.2551
  125OSM    C5S13322   0.073   2.361   6.890  0.7148 -0.0773 -0.5184
  125OSM    H5S13323   0.107   2.268   6.844 -0.5981 -1.6557  1.5087
  125OSM    C6S13324   0.132   2.384   7.027  0.2836 -1.1195  0.1680
  125OSM    H6S13325   0.233   2.426   7.008  0.3677 -0.8808  1.1107
  125OSM    H6T13326   0.141   2.284   7.075 -0.0586 -0.5934  1.3599
  125OSM    C7S13327   0.042   2.484   7.109 -0.5635 -0.1397 -0.5099
  125OSM    H7S13328  -0.066   2.474   7.084 -0.3640 -0.3082 -1.3195
  125OSM    H7T13329   0.067   2.587   7.076  0.2743 -0.1827 -0.0410
  125OSM    C8S13330   0.067   2.457   7.259 -0.2600  0.0607 -0.1855
  125OSM    H8S13331   0.173   2.483   7.282  1.1515 -2.7543 -2.8801
  125OSM    H8T13332   0.045   2.351   7.284 -0.3387  0.5661  2.2137
  125OSM    C9S13333  -0.015   2.546   7.352 -0.1460  0.5649 -0.3223
  125OSM    H9S13334  -0.123   2.525   7.334 -0.2167 -1.7528  2.1631
  125OSM    H9T13335   0.004   2.655   7.339 -0.1319  0.6573  0.4326
  125OSM   C10S13336   0.002   2.518   7.498 -0.0116  0.3976  0.2450
  125OSM   H10S13337   0.105   2.541   7.533  0.3854 -1.2263  0.2379
  125OSM   H10T13338  -0.024   2.411   7.513 -0.5441  0.3122 -1.1408
  125OSM   C11S13339  -0.095   2.609   7.587 -0.2345  0.5170  0.0364
  125OSM   H11S13340  -0.200   2.601   7.550 -0.4388  0.6917  0.5757
  125OSM   H11T13341  -0.070   2.715   7.569 -2.1643  0.9012 -0.5832
  125OSM   C12S13342  -0.070   2.570   7.732  0.1580 -0.3318 -0.5953
  125OSM   H12S13343   0.034   2.603   7.753 -0.0827 -0.5253  1.0923
  125OSM   H12T13344  -0.081   2.464   7.760 -0.7611 -0.2588 -0.6582
  125OSM   C13S13345  -0.160   2.652   7.829 -0.2400 -0.3109 -0.1341
  125OSM   H13S13346  -0.264   2.614   7.836 -0.0443 -1.4023 -2.2649
  125OSM   H13T13347  -0.160   2.755   7.787  1.1199  0.1974  1.0706
  125OSM   C14S13348  -0.089   2.674   7.967  0.9264 -0.1150  0.2501
  125OSM   H14S13349   0.018   2.701   7.966  1.6569 -2.6555  1.6251
  125OSM   H14T13350  -0.083   2.576   8.019  0.5738 -0.6064 -0.6273
  125OSM   C15S13351  -0.162   2.788   8.036 -0.1313 -0.3263 -0.1530
  125OSM   H15S13352  -0.269   2.782   8.007  0.0063  2.4699 -1.6213
  125OSM   H15T13353  -0.119   2.888   8.013 -1.1009  0.4068  1.1292
  125OSM   C16S13354  -0.141   2.769   8.187 -0.1377 -0.0148 -0.3443
  125OSM   H16S13355  -0.032   2.773   8.209 -0.0918 -0.6662 -0.4436
  125OSM   H16T13356  -0.181   2.674   8.229  0.0322  0.0647  0.0047
  125OSM   C17S13357  -0.199   2.892   8.268  0.2087  0.1842  0.4918
  125OSM   H17S13358  -0.308   2.872   8.275 -0.4065  1.9838 -2.3301
  125OSM   H17T13359  -0.163   2.982   8.215  1.3715 -0.8353 -0.5301
  125OSM   C18S13360  -0.145   2.904   8.410 -0.2742  0.1168 -0.3118
  125OSM   H18S13361  -0.034   2.912   8.404 -0.2859 -0.1154 -0.8586
  125OSM   H18T13362  -0.167   2.810   8.465  1.0798 -0.6043 -0.9664
  125OSM   H18U13363  -0.182   2.993   8.465 -0.9771 -0.5833  0.3777
  125OSM    C1F13364  -0.421   2.271   6.835 -0.6151  0.3605  0.2987
  125OSM     OF13365  -0.436   2.151   6.801  0.0040  0.4457 -0.9636
  125OSM    C2F13366  -0.527   2.338   6.912 -0.4145 -0.3456 -0.0403
  125OSM    H2F13367  -0.619   2.349   6.852  0.4248 -1.4115 -1.5889
  125OSM    H2G13368  -0.491   2.439   6.945  1.5502 -1.0604  0.1752
  125OSM    C3F13369  -0.554   2.273   7.055  0.0039 -0.0206  0.7753
  125OSM    H3F13370  -0.556   2.166   7.026  0.7014  0.0815  0.3310
  125OSM    H3G13371  -0.653   2.309   7.092  0.9007 -0.2951  3.6023
  125OSM    C4F13372  -0.451   2.311   7.158  0.1276 -0.8153  1.4048
  125OSM    H4F13373  -0.451   2.422   7.170  1.3256 -0.9327  2.8227
  125OSM    H4G13374  -0.351   2.284   7.118  0.3148  1.4173  0.2285
  125OSM    C5F13375  -0.463   2.247   7.300  0.0223 -0.0054  0.8133
  125OSM    H5F13376  -0.447   2.137   7.290 -1.7258 -0.2487  0.4317
  125OSM    H5G13377  -0.568   2.255   7.333 -0.8268 -1.4313 -1.3091
  125OSM    C6F13378  -0.359   2.305   7.402  0.5979 -0.3380  0.2636
  125OSM    H6F13379  -0.356   2.416   7.397  3.8664 -0.2578  1.8043
  125OSM    H6G13380  -0.253   2.283   7.377  1.1928  1.0857  1.3602
  125OSM    C7F13381  -0.385   2.244   7.540 -0.3202  0.0158  0.0764
  125OSM    H7F13382  -0.353   2.138   7.539  2.7781  0.8099  1.5436
  125OSM    H7G13383  -0.491   2.271   7.559 -0.4486  0.6349 -1.3382
  125OSM    C8F13384  -0.294   2.313   7.648 -0.5788  1.0890  0.1956
  125OSM    H8F13385  -0.310   2.420   7.625 -1.3220  1.1638  1.0133
  125OSM    H8G13386  -0.189   2.286   7.622 -0.5562 -0.1564  1.4489
  125OSM    C9F13387  -0.332   2.268   7.786 -0.2646 -0.6358 -0.4506
  125OSM    H9F13388  -0.278   2.175   7.806  1.4098  0.5077  0.6925
  125OSM   C10F13389  -0.423   2.323   7.866 -0.0634 -0.0067 -0.1755
  125OSM   H10F13390  -0.457   2.274   7.959  0.4328  0.3751  0.2060
  125OSM   C11F13391  -0.497   2.459   7.839  0.1752 -0.7724 -0.0896
  125OSM   H11F13392  -0.592   2.436   7.787  0.6520 -1.7243 -0.5698
  125OSM   H11G13393  -0.428   2.526   7.783  1.0625  1.3545  3.2931
  125OSM   C12F13394  -0.513   2.521   7.980  0.4251  0.4273  0.1104
  125OSM   H12F13395  -0.431   2.504   8.052 -0.1851 -2.2190  0.3171
  125OSM   H12G13396  -0.604   2.476   8.025  0.7337 -0.6436 -0.2956
  125OSM   C13F13397  -0.531   2.677   7.964  0.2676 -0.5370  0.1288
  125OSM   H13F13398  -0.621   2.694   7.901  0.4876  0.8152  0.1524
  125OSM   H13G13399  -0.441   2.717   7.912  0.0530 -1.0165 -0.6194
  125OSM   C14F13400  -0.554   2.742   8.102  0.2477  0.2702 -0.3889
  125OSM   H14F13401  -0.600   2.842   8.093 -1.1671 -0.4952 -2.6471
  125OSM   H14G13402  -0.459   2.741   8.159  1.8946 -2.4982 -2.8587
  125OSM   C15F13403  -0.665   2.678   8.185  0.6642 -0.0722  0.2673
  125OSM   H15F13404  -0.636   2.572   8.196 -4.2147 -1.7177 -0.2139
  125OSM   H15G13405  -0.766   2.679   8.138 -0.1775 -0.4311  1.9671
  125OSM   C16F13406  -0.681   2.740   8.321  0.3904 -0.2218 -0.5310
  125OSM   H16F13407  -0.712   2.846   8.304  0.7006 -0.0925 -0.3082
  125OSM   H16G13408  -0.587   2.728   8.378  0.2172 -0.4254 -0.2878
  125OSM   C17F13409  -0.784   2.667   8.410  0.3736  0.0064  0.7762
  125OSM   H17F13410  -0.888   2.679   8.373  1.1581 -0.8786 -1.9770
  125OSM   H17G13411  -0.769   2.722   8.505  1.7843  1.6432 -0.3493
  125OSM   C18F13412  -0.738   2.520   8.425  0.1060  0.4439  0.0016
  125OSM   H18F13413  -0.633   2.519   8.463 -0.0884 -0.2932  0.5472
  125OSM   H18G13414  -0.749   2.453   8.336  1.4361  0.1194  0.0574
  125OSM   H18H13415  -0.804   2.468   8.497 -1.7990  1.1946 -1.1377
  126OSM      N13416   4.025   1.961   6.363 -0.2537  0.0468  0.0734
  126OSM    C1513417   3.890   2.000   6.308  0.0623 -0.2604 -0.0625
  126OSM   H15A13418   3.827   1.922   6.269  0.2065 -0.0322 -0.7629
  126OSM   H15B13419   3.898   2.064   6.221 -0.8166  1.2633  0.9250
  126OSM   H15C13420   3.839   2.041   6.394  1.8203  2.0703 -0.0052
  126OSM    C1413421   4.094   1.857   6.275  0.1829  0.2286  0.0748
  126OSM   H14A13422   4.085   1.891   6.173 -0.4638 -1.0470 -0.3307
  126OSM   H14B13423   4.051   1.758   6.273  1.5675 -0.4005  0.1991
  126OSM   H14C13424   4.200   1.848   6.292  0.4334  0.7206 -1.1175
  126OSM    C1313425   4.115   2.083   6.367 -0.5866  0.1011 -0.3267
  126OSM   H13A13426   4.068   2.165   6.421 -1.2728 -0.9194  0.6853
  126OSM   H13B13427   4.118   2.126   6.268 -1.8147  0.1716 -0.3498
  126OSM   H13C13428   4.210   2.058   6.411 -0.9284  0.7131  0.8264
  126OSM    C1213429   3.993   1.886   6.496  0.6131  0.0246 -0.0826
  126OSM   H12A13430   3.920   1.808   6.481 -0.2218  0.4771  1.4243
  126OSM   H12B13431   3.951   1.952   6.571 -0.7584 -1.5534  0.6147
  126OSM    C1113432   4.112   1.817   6.570 -0.3208 -0.1662 -0.2789
  126OSM   H11A13433   4.091   1.805   6.679 -0.6588 -0.2180 -0.3500
  126OSM   H11B13434   4.200   1.884   6.568  0.6253 -1.2010  2.0497
  126OSM      P13435   4.285   1.644   6.475 -0.1749  0.0758 -0.0084
  126OSM    O1313436   4.279   1.531   6.376 -0.1768 -0.3040 -0.0972
  126OSM    O1413437   4.367   1.758   6.437  0.4881  0.1433 -0.0109
  126OSM    O1113438   4.348   1.593   6.612 -0.3402 -0.2114  0.1286
  126OSM    O1213439   4.139   1.690   6.508 -1.1808  0.0210 -0.4736
  126OSM    C1S13440   4.343   1.670   6.735 -0.6046  0.3367  0.0510
  126OSM    H1S13441   4.235   1.682   6.757 -1.2496 -3.0704 -0.6719
  126OSM    H1T13442   4.389   1.771   6.731 -0.3340  0.2918  1.5044
  126OSM     NF13443   4.362   1.690   6.979 -0.6522  0.1798  0.7145
  126OSM    HNF13444   4.437   1.727   7.033  0.0244 -2.0645  1.3977
  126OSM    C2S13445   4.394   1.603   6.860 -0.0395 -0.0688 -0.4093
  126OSM    H2S13446   4.332   1.512   6.873 -1.5821  0.8599 -1.0012
  126OSM    C3S13447   4.539   1.557   6.844  0.0667  0.1418 -0.4779
  126OSM    H3S13448   4.594   1.653   6.840 -0.7506  0.7164  1.1109
  126OSM     O313449   4.569   1.487   6.724  0.1785 -0.3408 -0.0867
  126OSM    HO313450   4.487   1.511   6.679 -0.1876 -0.5496  0.4675
  126OSM    C4S13451   4.592   1.475   6.961 -0.2390  0.3856  0.6138
  126OSM    H4S13452   4.665   1.532   7.020  0.8980 -1.1067  0.6896
  126OSM    C5S13453   4.566   1.348   6.995 -0.2689  0.6000 -0.3638
  126OSM    H5S13454   4.496   1.283   6.942 -0.7569  1.2818 -0.5714
  126OSM    C6S13455   4.644   1.272   7.108  0.0369  0.2832  0.4210
  126OSM    H6S13456   4.739   1.326   7.132  0.3595 -0.3680  0.6329
  126OSM    H6T13457   4.685   1.178   7.066  3.1982  1.9754 -0.6237
  126OSM    C7S13458   4.571   1.267   7.242 -0.1444 -0.2914  0.6350
  126OSM    H7S13459   4.477   1.210   7.225 -0.5173  0.2798  0.7466
  126OSM    H7T13460   4.536   1.367   7.275  1.0515  0.4474 -0.2543
  126OSM    C8S13461   4.645   1.196   7.353  0.2686 -0.0209 -0.3639
  126OSM    H8S13462   4.745   1.244   7.363  0.6157 -0.4831 -1.4875
  126OSM    H8T13463   4.664   1.091   7.323 -0.0911 -0.2866  0.2981
  126OSM    C9S13464   4.571   1.207   7.485  0.6189 -0.4109 -0.7477
  126OSM    H9S13465   4.494   1.127   7.481  1.6933 -1.5498  0.5444
  126OSM    H9T13466   4.519   1.305   7.493  1.4596  0.0152 -0.4001
  126OSM   C10S13467   4.658   1.169   7.607 -0.3530  0.5559 -0.7705
  126OSM   H10S13468   4.734   1.248   7.623 -1.5866  1.5315  0.5568
  126OSM   H10T13469   4.712   1.074   7.586  0.0848  0.4093  0.9417
  126OSM   C11S13470   4.583   1.158   7.741  0.2481  0.2695  0.6177
  126OSM   H11S13471   4.492   1.094   7.737 -0.3600  0.9173  2.8997
  126OSM   H11T13472   4.538   1.257   7.763  1.0959  0.4523  1.5972
  126OSM   C12S13473   4.671   1.120   7.861  0.1048  0.1087 -0.3321
  126OSM   H12S13474   4.764   1.179   7.863  0.2230 -0.0829  1.7024
  126OSM   H12T13475   4.708   1.016   7.846  0.2701  0.3783 -2.0077
  126OSM   C13S13476   4.593   1.142   7.995  0.2275  0.4905  0.6839
  126OSM   H13S13477   4.510   1.069   8.002  0.5606  0.0520  0.1024
  126OSM   H13T13478   4.548   1.243   8.005  1.8463  1.4152 -0.8832
  126OSM   C14S13479   4.676   1.118   8.118  0.0045 -0.0968  0.3780
  126OSM   H14S13480   4.757   1.194   8.113 -0.7186  0.6116 -1.1617
  126OSM   H14T13481   4.734   1.024   8.110  1.8620  0.8468  1.7840
  126OSM   C15S13482   4.588   1.133   8.243  0.1574 -0.2007 -0.8618
  126OSM   H15S13483   4.531   1.044   8.277  0.3866 -0.2123 -0.5090
  126OSM   H15T13484   4.519   1.219   8.241 -1.1928 -1.0575  2.4831
  126OSM   C16S13485   4.686   1.178   8.352  0.4637  0.3850  0.6750
  126OSM   H16S13486   4.753   1.264   8.329  0.1939  0.6692  0.9386
  126OSM   H16T13487   4.742   1.091   8.392  0.0837  0.6188  1.7450
  126OSM   C17S13488   4.603   1.217   8.482  0.0313 -0.4250 -0.2753
  126OSM   H17S13489   4.537   1.134   8.513  0.6728 -0.6429  0.5656
  126OSM   H17T13490   4.531   1.294   8.447 -1.6112 -1.2392  1.1680
  126OSM   C18S13491   4.684   1.271   8.605  0.0659  0.6260 -0.3640
  126OSM   H18S13492   4.745   1.359   8.573  1.1349  1.0174  2.4015
  126OSM   H18T13493   4.756   1.196   8.642 -0.9615 -0.4640 -0.5309
  126OSM   H18U13494   4.613   1.298   8.686 -0.5145  0.5501 -0.8456
  126OSM    C1F13495   4.232   1.707   7.020  0.0864 -0.6434 -0.0389
  126OSM     OF13496   4.134   1.657   6.957 -0.0327  0.3858  0.2181
  126OSM    C2F13497   4.220   1.780   7.147 -0.7003 -0.4921 -0.1519
  126OSM    H2F13498   4.275   1.876   7.136 -2.6546  0.6866 -0.0266
  126OSM    H2G13499   4.283   1.723   7.218  0.1622 -3.1678 -2.8627
  126OSM    C3F13500   4.074   1.827   7.180 -0.2951  0.0948 -0.5101
  126OSM    H3F13501   4.005   1.740   7.186  0.5518 -0.6114 -0.7050
  126OSM    H3G13502   4.041   1.892   7.096  1.1801  0.4427 -0.8525
  126OSM    C4F13503   4.062   1.923   7.298  0.7808  0.2388 -0.6001
  126OSM    H4F13504   3.967   1.978   7.282 -0.1766 -1.0852  0.3223
  126OSM    H4G13505   4.145   1.996   7.305  0.0016  1.0152  1.2070
  126OSM    C5F13506   4.045   1.859   7.432 -0.3438 -0.0969 -0.1448
  126OSM    H5F13507   4.130   1.790   7.450 -0.5024  0.0421  1.2513
  126OSM    H5G13508   3.956   1.794   7.438  0.6113 -1.3153  2.3216
  126OSM    C6F13509   4.030   1.953   7.555 -0.3464  0.2388 -0.5729
  126OSM    H6F13510   3.941   2.017   7.539 -0.1087  0.6300 -0.3827
  126OSM    H6G13511   4.127   2.008   7.549  2.6842 -4.6522 -2.4111
  126OSM    C7F13512   4.018   1.881   7.695  0.4399 -0.6531  0.3997
  126OSM    H7F13513   4.109   1.823   7.720  0.6071 -0.6391 -0.1655
  126OSM    H7G13514   3.936   1.807   7.689 -1.9390  1.3980  3.8176
  126OSM    C8F13515   3.969   1.977   7.805  0.3400 -0.9795  0.1389
  126OSM    H8F13516   3.858   1.984   7.795  0.4331 -0.0041 -0.3465
  126OSM    H8G13517   4.002   2.082   7.787  0.8015 -0.8414  1.6433
  126OSM    C9F13518   4.005   1.911   7.939  0.3360 -0.0588 -0.5105
  126OSM    H9F13519   3.973   1.807   7.950 -0.2087  0.0502 -1.0654
  126OSM   C10F13520   4.089   1.956   8.033  0.0080 -0.4193  0.0012
  126OSM   H10F13521   4.106   1.878   8.109 -2.9925 -1.2605 -0.0773
  126OSM   C11F13522   4.159   2.086   8.046  0.6029 -0.1169  0.0893
  126OSM   H11F13523   4.137   2.159   7.964  3.2924  0.4038 -0.2527
  126OSM   H11G13524   4.267   2.067   8.029  0.7310  2.2892 -2.5910
  126OSM   C12F13525   4.139   2.164   8.179 -0.1645  0.7527  0.4061
  126OSM   H12F13526   4.179   2.107   8.265 -1.2047  0.2026  0.5290
  126OSM   H12G13527   4.029   2.166   8.192 -0.5117 -0.0608 -1.8268
  126OSM   C13F13528   4.203   2.302   8.172 -0.6925 -0.5737 -0.3511
  126OSM   H13F13529   4.166   2.364   8.088 -0.0949  2.0804  1.2238
  126OSM   H13G13530   4.311   2.277   8.168 -0.8146 -1.2983  0.6059
  126OSM   C14F13531   4.166   2.378   8.300  0.5891 -0.4217 -0.2669
  126OSM   H14F13532   4.057   2.372   8.284  0.1626  2.2789  1.0248
  126OSM   H14G13533   4.199   2.483   8.287 -2.1477  0.4569 -0.6967
  126OSM   C15F13534   4.222   2.319   8.430 -0.5443 -0.1252  0.2854
  126OSM   H15F13535   4.326   2.282   8.412 -0.3645  0.2010  0.6542
  126OSM   H15G13536   4.159   2.237   8.470  1.0030 -1.5345 -0.0704
  126OSM   C16F13537   4.236   2.428   8.541 -0.3244 -0.8139  0.5101
  126OSM   H16F13538   4.136   2.472   8.564 -0.1392 -0.9595  1.6807
  126OSM   H16G13539   4.296   2.514   8.504 -0.1157 -1.1287  0.1234
  126OSM   C17F13540   4.281   2.362   8.670  0.1496 -0.0190  0.9727
  126OSM   H17F13541   4.382   2.316   8.665  0.8391  1.4402  0.7812
  126OSM   H17G13542   4.203   2.282   8.672 -0.0474  0.0281 -1.7392
  126OSM   C18F13543   4.274   2.457   8.793  1.0181  0.1365  0.2705
  126OSM   H18F13544   4.172   2.493   8.817  0.4946  0.3474 -2.0611
  126OSM   H18G13545   4.338   2.546   8.779 -0.2427  1.1490  0.7803
  126OSM   H18H13546   4.311   2.396   8.879  0.9876 -0.0759  0.1339
  127OSM      N13547   4.224   6.255   5.978 -0.1327  0.3556  0.3352
  127OSM    C1513548   4.358   6.308   5.929  0.2478 -0.6154 -0.0638
  127OSM   H15A13549   4.386   6.379   6.006  0.8174  0.8133 -1.5242
  127OSM   H15B13550   4.347   6.341   5.827 -2.4113 -1.1558 -0.0294
  127OSM   H15C13551   4.424   6.223   5.926 -0.0787 -0.8445 -1.0734
  127OSM    C1413552   4.229   6.222   6.122 -0.2635  0.8010  0.1029
  127OSM   H14A13553   4.266   6.308   6.175  2.8327  0.9640 -2.0632
  127OSM   H14B13554   4.293   6.136   6.137  0.3189  0.8321 -1.9057
  127OSM   H14C13555   4.134   6.199   6.168  0.5567 -2.7481  0.3313
  127OSM    C1313556   4.123   6.367   5.966  0.4510  0.4136  0.0358
  127OSM   H13A13557   4.108   6.418   5.872 -0.6544  0.0256 -0.0110
  127OSM   H13B13558   4.150   6.432   6.048  0.8732 -2.4333  2.3058
  127OSM   H13C13559   4.023   6.331   5.986  0.5667  0.7039  1.1786
  127OSM    C1213560   4.195   6.126   5.898  0.8175  0.0921 -0.1778
  127OSM   H12A13561   4.204   6.150   5.793  0.6922  1.9281  0.1924
  127OSM   H12B13562   4.090   6.109   5.912  0.6191  1.1066 -0.3428
  127OSM    C1113563   4.284   6.002   5.928  0.5700 -0.2647 -0.0227
  127OSM   H11A13564   4.252   5.923   5.857 -2.8741 -0.1460  1.2400
  127OSM   H11B13565   4.243   5.965   6.024 -2.2333  0.0059 -1.0234
  127OSM      P13566   4.532   5.940   5.998  0.2581 -0.4043  0.5453
  127OSM    O1313567   4.540   5.817   5.924 -0.3622 -0.6437 -0.0653
  127OSM    O1413568   4.656   6.014   6.017 -0.3388  0.9800 -0.1416
  127OSM    O1113569   4.451   5.927   6.137 -0.7013 -0.0331  0.0866
  127OSM    O1213570   4.428   6.031   5.924  0.0532 -0.6397 -0.9587
  127OSM    C1S13571   4.522   5.927   6.261 -0.0454 -0.3279  0.4881
  127OSM    H1S13572   4.542   6.029   6.301 -3.7188  1.2651 -1.3052
  127OSM    H1T13573   4.625   5.884   6.254  1.6740  3.3799  0.5561
  127OSM     NF13574   4.512   5.828   6.488  0.0228  1.0425 -0.1125
  127OSM    HNF13575   4.577   5.753   6.497  2.5849  3.0689 -0.7862
  127OSM    C2S13576   4.437   5.834   6.359 -0.4854 -0.5319 -0.6182
  127OSM    H2S13577   4.346   5.896   6.373 -0.7774 -1.5145  2.8089
  127OSM    C3S13578   4.407   5.695   6.298 -1.1048 -0.4157  0.2441
  127OSM    H3S13579   4.506   5.662   6.259 -0.1855  2.1802  0.1450
  127OSM     O313580   4.332   5.707   6.174 -0.5636  1.1670 -0.1188
  127OSM    HO313581   4.344   5.795   6.138 -1.3473  1.3798  0.1083
  127OSM    C4S13582   4.366   5.597   6.393  0.0955 -0.1433 -0.0558
  127OSM    H4S13583   4.453   5.565   6.452  1.4192  1.1852 -1.2069
  127OSM    C5S13584   4.245   5.546   6.414  0.5616  0.0301  0.0832
  127OSM    H5S13585   4.154   5.581   6.362  0.6117 -2.3102 -1.7441
  127OSM    C6S13586   4.217   5.436   6.520  0.0279  0.4599  0.8902
  127OSM    H6S13587   4.187   5.346   6.463 -0.4660  1.6422 -0.7847
  127OSM    H6T13588   4.137   5.468   6.590  0.4761  2.6248  0.5041
  127OSM    C7S13589   4.338   5.392   6.612 -0.5105 -0.7366  0.3085
  127OSM    H7S13590   4.371   5.477   6.674  0.9274  0.0879 -1.4960
  127OSM    H7T13591   4.428   5.362   6.554 -0.9129 -0.2130 -0.6045
  127OSM    C8S13592   4.294   5.277   6.706  0.2539 -0.1924  0.1146
  127OSM    H8S13593   4.381   5.246   6.769  1.7959  3.9391  0.3106
  127OSM    H8T13594   4.285   5.187   6.642 -0.0253  1.1187 -1.7541
  127OSM    C9S13595   4.167   5.311   6.787  0.0782  0.4484 -0.3840
  127OSM    H9S13596   4.079   5.290   6.723 -0.4638 -2.3703  1.1370
  127OSM    H9T13597   4.170   5.415   6.827  0.8288  0.3421 -0.1327
  127OSM   C10S13598   4.140   5.225   6.910 -0.7837 -0.0726  0.2609
  127OSM   H10S13599   4.236   5.248   6.961  0.8290  1.5241 -3.2052
  127OSM   H10T13600   4.146   5.119   6.878  4.0929  0.3109 -0.9208
  127OSM   C11S13601   4.019   5.266   6.995  0.3596 -0.5131 -0.5250
  127OSM   H11S13602   4.000   5.191   7.075  3.7914 -2.1818 -1.0921
  127OSM   H11T13603   3.927   5.254   6.934 -1.6085 -1.2144  2.3878
  127OSM   C12S13604   4.040   5.402   7.062  0.5915  0.1161  0.0571
  127OSM   H12S13605   4.017   5.477   6.984 -0.4950  1.5462  1.6733
  127OSM   H12T13606   4.147   5.414   7.093  0.0997 -0.2607  2.0579
  127OSM   C13S13607   3.963   5.423   7.192 -0.6092  0.3029 -0.4460
  127OSM   H13S13608   3.982   5.350   7.274 -0.9359  0.3181 -0.3563
  127OSM   H13T13609   3.857   5.418   7.158  0.2748  2.1478 -4.0440
  127OSM   C14S13610   3.984   5.558   7.259 -0.3801  0.6483  0.3110
  127OSM   H14S13611   3.937   5.633   7.191  1.4021  0.5438 -1.0923
  127OSM   H14T13612   4.092   5.582   7.269 -0.3352  0.2541  0.7758
  127OSM   C15S13613   3.912   5.559   7.397 -0.1381 -0.1609  0.2193
  127OSM   H15S13614   3.964   5.489   7.466  2.0833 -0.5040 -1.6884
  127OSM   H15T13615   3.805   5.530   7.393  0.0356 -0.7848  0.0388
  127OSM   C16S13616   3.910   5.696   7.460 -0.3851 -0.6623 -0.4653
  127OSM   H16S13617   3.874   5.778   7.394  1.3684  0.0413 -0.6020
  127OSM   H16T13618   4.011   5.727   7.494 -0.7989 -1.9495  2.2222
  127OSM   C17S13619   3.816   5.709   7.578  1.2493 -0.6141  0.0822
  127OSM   H17S13620   3.851   5.635   7.653 -1.6746 -2.5403 -0.2955
  127OSM   H17T13621   3.713   5.677   7.550  0.6444  1.6681 -0.5016
  127OSM   C18S13622   3.825   5.842   7.661  0.0513 -0.5363 -0.1843
  127OSM   H18S13623   3.925   5.866   7.703  0.4371  1.9353 -2.2406
  127OSM   H18T13624   3.748   5.846   7.740 -0.9647 -2.6772 -0.9919
  127OSM   H18U13625   3.786   5.929   7.603 -2.6676 -0.4794  1.5504
  127OSM    C1F13626   4.525   5.937   6.558 -0.1127 -0.2965 -0.1364
  127OSM     OF13627   4.453   6.030   6.540 -0.1426 -0.1054  0.5900
  127OSM    C2F13628   4.633   5.940   6.662 -0.7382  0.3968 -0.2924
  127OSM    H2F13629   4.636   6.042   6.708  0.0341  0.5216 -0.6078
  127OSM    H2G13630   4.734   5.918   6.623 -1.3119  1.2615 -2.4069
  127OSM    C3F13631   4.599   5.833   6.772 -0.0639 -0.7605 -0.0018
  127OSM    H3F13632   4.574   5.736   6.722 -2.0273 -0.3794  0.1811
  127OSM    H3G13633   4.500   5.852   6.817 -0.1746 -0.3858 -0.4002
  127OSM    C4F13634   4.710   5.814   6.878  0.2395 -0.3980  0.2655
  127OSM    H4F13635   4.744   5.915   6.909  2.3129 -0.0018 -2.8859
  127OSM    H4G13636   4.802   5.771   6.834 -0.6250 -1.3167 -0.7102
  127OSM    C5F13637   4.665   5.739   7.001 -0.5140  0.4004 -0.5320
  127OSM    H5F13638   4.605   5.809   7.063 -0.8678  1.4496 -2.0064
  127OSM    H5G13639   4.758   5.720   7.058  0.1658  0.9593 -1.4313
  127OSM    C6F13640   4.585   5.609   6.971 -0.2364 -0.4654  0.5550
  127OSM    H6F13641   4.656   5.542   6.918 -0.3811 -0.7267  0.6927
  127OSM    H6G13642   4.502   5.636   6.903 -0.3632 -0.1460  0.8348
  127OSM    C7F13643   4.536   5.538   7.099 -0.7711  0.0039  0.7906
  127OSM    H7F13644   4.607   5.542   7.185  1.6661 -0.3225 -1.1075
  127OSM    H7G13645   4.504   5.434   7.078  0.2970  0.0672 -1.3971
  127OSM    C8F13646   4.413   5.609   7.159  0.2332 -0.1375 -0.0983
  127OSM    H8F13647   4.336   5.609   7.079  1.0479  1.1296 -0.9220
  127OSM    H8G13648   4.431   5.715   7.188  0.0214 -0.5551  1.7031
  127OSM    C9F13649   4.355   5.535   7.274 -0.8955 -0.1551 -0.1896
  127OSM    H9F13650   4.281   5.460   7.244 -0.7619  0.4189 -2.0394
  127OSM   C10F13651   4.383   5.558   7.404  0.8325  0.6496 -0.4068
  127OSM   H10F13652   4.339   5.498   7.484 -2.8585  0.9420 -2.0281
  127OSM   C11F13653   4.464   5.671   7.449  0.5257  0.3100 -0.0057
  127OSM   H11F13654   4.528   5.700   7.363  1.1070  0.2412  0.3905
  127OSM   H11G13655   4.524   5.625   7.531 -3.5800 -0.2923  3.0206
  127OSM   C12F13656   4.389   5.790   7.510  0.0308  0.4426  0.4894
  127OSM   H12F13657   4.335   5.845   7.430  1.6446  4.2451  1.8010
  127OSM   H12G13658   4.462   5.867   7.545 -0.4801  1.6963 -1.0852
  127OSM   C13F13659   4.288   5.762   7.618  0.3169  0.5052 -0.1408
  127OSM   H13F13660   4.215   5.686   7.582  1.8484 -1.1808  0.1299
  127OSM   H13G13661   4.228   5.855   7.623  1.0842  1.0857 -1.4735
  127OSM   C14F13662   4.340   5.751   7.765  0.8087 -0.1297 -0.5717
  127OSM   H14F13663   4.395   5.841   7.798 -0.1421  0.1240  0.4133
  127OSM   H14G13664   4.406   5.662   7.772 -2.3056 -2.5725  0.2652
  127OSM   C15F13665   4.219   5.741   7.867  0.0877 -0.1415  0.9545
  127OSM   H15F13666   4.148   5.821   7.838  1.4831  0.2791 -1.6905
  127OSM   H15G13667   4.256   5.755   7.971 -2.1016 -0.8126  1.8765
  127OSM   C16F13668   4.138   5.603   7.856  0.2085 -0.2914 -0.1097
  127OSM   H16F13669   4.088   5.604   7.757  0.5440  1.2928 -0.2822
  127OSM   H16G13670   4.058   5.601   7.933  0.2144 -3.3451 -0.0472
  127OSM   C17F13671   4.210   5.465   7.872  0.6414  0.2585 -0.5031
  127OSM   H17F13672   4.281   5.475   7.958  1.6501 -0.4462 -1.2236
  127OSM   H17G13673   4.267   5.457   7.777  1.9004 -0.5663  0.2894
  127OSM   C18F13674   4.114   5.347   7.891  0.1986 -0.0947  0.0616
  127OSM   H18F13675   4.181   5.262   7.911 -1.4187 -0.9063  2.4602
  127OSM   H18G13676   4.064   5.327   7.793 -1.0624  0.4249  0.5764
  127OSM   H18H13677   4.042   5.372   7.972  0.1601 -1.8485  0.5922
  128OSM      N13678   0.586   3.672   6.011 -0.0719 -0.5888  0.1063
  128OSM    C1513679   0.470   3.727   5.935  0.3709 -0.2267  0.1975
  128OSM   H15A13680   0.401   3.652   5.898 -1.1189  1.2997 -0.2798
  128OSM   H15B13681   0.507   3.787   5.853 -0.1227  0.6187  0.5861
  128OSM   H15C13682   0.416   3.795   5.999 -0.0818  0.4485 -0.8863
  128OSM    C1413683   0.661   3.587   5.913  0.0666 -0.1639  0.5081
  128OSM   H14A13684   0.589   3.526   5.860  0.1886  1.0143 -1.1091
  128OSM   H14B13685   0.724   3.513   5.960 -0.4564  0.3199  2.0105
  128OSM   H14C13686   0.716   3.635   5.833  0.8286 -1.0427  0.4776
  128OSM    C1313687   0.685   3.785   6.046  0.0115  0.6932 -0.1301
  128OSM   H13A13688   0.725   3.833   5.958  1.7206 -0.0140  0.2278
  128OSM   H13B13689   0.772   3.738   6.090 -1.1423 -0.1357  1.3418
  128OSM   H13C13690   0.646   3.845   6.127 -0.1645 -1.9444  1.8961
  128OSM    C1213691   0.545   3.587   6.121 -0.0623  0.1385 -0.8741
  128OSM   H12A13692   0.632   3.569   6.183  0.2364 -1.7325 -1.7768
  128OSM   H12B13693   0.515   3.489   6.088 -0.2302 -0.2392  0.3255
  128OSM    C1113694   0.432   3.645   6.221 -0.2291 -0.1686 -0.2226
  128OSM   H11A13695   0.438   3.750   6.258  1.2946  0.2234 -1.4486
  128OSM   H11B13696   0.437   3.581   6.311 -1.1415 -0.3554 -0.2889
  128OSM      P13697   0.202   3.518   6.180 -0.2745 -0.5141 -0.1672
  128OSM    O1313698   0.062   3.565   6.161  0.2566 -0.2669 -0.2134
  128OSM    O1413699   0.235   3.408   6.088  0.1678 -0.1250  0.0419
  128OSM    O1113700   0.226   3.479   6.330 -0.0865 -0.7927  0.4022
  128OSM    O1213701   0.307   3.632   6.152  0.6309 -0.9142  0.2560
  128OSM    C1S13702   0.171   3.564   6.420  0.5076  0.4118  0.5838
  128OSM    H1S13703   0.070   3.603   6.398 -0.1222 -1.4504 -0.0068
  128OSM    H1T13704   0.237   3.653   6.426  1.2065 -0.0422 -0.1436
  128OSM     NF13705   0.121   3.593   6.652  0.0234  0.0265 -0.1025
  128OSM    HNF13706   0.181   3.644   6.713  0.2944  1.9371 -1.8558
  128OSM    C2S13707   0.190   3.507   6.561  0.4052 -0.1360  0.4432
  128OSM    H2S13708   0.141   3.407   6.566  1.4439 -0.7069 -0.3416
  128OSM    C3S13709   0.335   3.486   6.598 -0.0846 -0.6526  0.2984
  128OSM    H3S13710   0.384   3.584   6.619  1.0059 -1.3071  0.9122
  128OSM     O313711   0.413   3.422   6.493  0.2956 -0.1278  0.1368
  128OSM    HO313712   0.351   3.406   6.422 -0.6363  0.4602  0.7978
  128OSM    C4S13713   0.357   3.418   6.733  0.6296 -0.1997  0.5898
  128OSM    H4S13714   0.359   3.488   6.817  1.7505 -0.0874  0.4840
  128OSM    C5S13715   0.373   3.291   6.761  0.1008 -0.1579  0.2724
  128OSM    H5S13716   0.392   3.221   6.678 -1.3198  0.1866 -0.3828
  128OSM    C6S13717   0.404   3.233   6.889 -0.0617  0.0903 -0.3684
  128OSM    H6S13718   0.498   3.174   6.882  0.1085  0.3692 -0.4427
  128OSM    H6T13719   0.326   3.153   6.895 -0.2136  0.2212 -0.5715
  128OSM    C7S13720   0.412   3.312   7.016  0.3320  0.2584  0.0860
  128OSM    H7S13721   0.324   3.373   7.043 -0.0773 -0.1390 -0.3407
  128OSM    H7T13722   0.490   3.391   7.010  0.8287 -0.1562  0.8376
  128OSM    C8S13723   0.454   3.229   7.134  0.3508 -0.3080  0.1196
  128OSM    H8S13724   0.555   3.192   7.107  1.9473  1.2181  3.4582
  128OSM    H8T13725   0.393   3.137   7.149 -0.3758 -0.0095 -0.8873
  128OSM    C9S13726   0.469   3.312   7.263 -0.0680  0.3330 -0.7649
  128OSM    H9S13727   0.370   3.361   7.274 -0.8003 -0.8239 -1.8119
  128OSM    H9T13728   0.546   3.391   7.255  0.2716  0.1845  0.7896
  128OSM   C10S13729   0.496   3.222   7.387 -0.1475 -0.0364 -0.0298
  128OSM   H10S13730   0.588   3.166   7.358 -0.1786 -0.8005  1.2598
  128OSM   H10T13731   0.421   3.142   7.400 -0.2090 -0.1136 -0.8027
  128OSM   C11S13732   0.507   3.308   7.515 -0.2116  0.2840 -0.1330
  128OSM   H11S13733   0.412   3.366   7.505 -0.6248 -0.3496  0.0994
  128OSM   H11T13734   0.596   3.374   7.507  0.2494 -0.3773 -0.5482
  128OSM   C12S13735   0.505   3.228   7.642  0.5619 -0.2699  0.1908
  128OSM   H12S13736   0.596   3.165   7.645 -0.5964 -2.0018  0.3322
  128OSM   H12T13737   0.413   3.165   7.634 -0.5380  1.5248 -2.4797
  128OSM   C13S13738   0.491   3.305   7.775 -0.0369  0.2582  0.3512
  128OSM   H13S13739   0.471   3.227   7.851  0.8608 -0.6137 -0.2761
  128OSM   H13T13740   0.410   3.380   7.773  2.0127  2.7789  3.0584
  128OSM   C14S13741   0.613   3.391   7.812  0.1794 -0.8710  0.2213
  128OSM   H14S13742   0.628   3.480   7.748 -2.4226 -0.6177 -0.1216
  128OSM   H14T13743   0.703   3.325   7.809  0.6285 -0.3928  1.8029
  128OSM   C15S13744   0.599   3.435   7.962 -0.7108 -0.5678 -0.2632
  128OSM   H15S13745   0.597   3.348   8.031 -2.7453 -0.3209  0.0645
  128OSM   H15T13746   0.501   3.484   7.980 -1.1554 -1.9614  1.2673
  128OSM   C16S13747   0.719   3.516   8.011  1.0481 -0.2789  0.4916
  128OSM   H16S13748   0.734   3.610   7.955  1.7449  1.2092  2.9868
  128OSM   H16T13749   0.812   3.458   7.993 -0.1064 -1.8339 -0.8336
  128OSM   C17S13750   0.701   3.546   8.164 -0.3259 -0.5781 -0.6861
  128OSM   H17S13751   0.783   3.609   8.203  0.8036 -1.5053 -1.5042
  128OSM   H17T13752   0.685   3.448   8.215 -1.2212 -0.3294 -0.4595
  128OSM   C18S13753   0.575   3.627   8.175 -0.1152 -0.5748  0.3155
  128OSM   H18S13754   0.587   3.707   8.099  1.0693 -1.6172 -0.6509
  128OSM   H18T13755   0.562   3.678   8.273  0.6094 -0.1559  0.2047
  128OSM   H18U13756   0.487   3.562   8.156  0.6934 -1.3053 -1.0384
  128OSM    C1F13757  -0.013   3.600   6.669  0.4610 -0.6530  0.5319
  128OSM     OF13758  -0.090   3.533   6.601 -0.0290  0.1289 -0.0573
  128OSM    C2F13759  -0.054   3.696   6.781 -0.1039  0.3009 -0.1699
  128OSM    H2F13760  -0.022   3.799   6.755  2.2256  0.0965  1.5123
  128OSM    H2G13761  -0.007   3.663   6.876  1.1879 -0.7491 -1.1392
  128OSM    C3F13762  -0.206   3.697   6.802  0.0825  0.0691 -0.1797
  128OSM    H3F13763  -0.235   3.593   6.825  1.8635 -0.2837  0.6677
  128OSM    H3G13764  -0.260   3.709   6.706  0.0571 -0.6309 -0.2591
  128OSM    C4F13765  -0.271   3.788   6.906 -0.8677  0.2766  0.5072
  128OSM    H4F13766  -0.376   3.758   6.922  0.0326 -3.2415  0.7288
  128OSM    H4G13767  -0.268   3.889   6.861  0.1001  0.8642  1.8201
  128OSM    C5F13768  -0.203   3.792   7.042 -0.2493  0.0596  0.1515
  128OSM    H5F13769  -0.092   3.800   7.037  0.0355 -0.4507  3.2256
  128OSM    H5G13770  -0.201   3.687   7.079  1.3160  0.4018  1.1712
  128OSM    C6F13771  -0.260   3.889   7.150 -0.1434 -0.5068  0.0077
  128OSM    H6F13772  -0.365   3.865   7.175 -0.3724 -2.1681 -2.3117
  128OSM    H6G13773  -0.244   3.994   7.119  1.8537 -0.8708 -0.3664
  128OSM    C7F13774  -0.187   3.876   7.286  0.5804 -0.5242 -0.8224
  128OSM    H7F13775  -0.227   3.958   7.349  0.9739 -1.4548  0.6914
  128OSM    H7G13776  -0.076   3.887   7.280  0.4763  2.9561  1.1165
  128OSM    C8F13777  -0.216   3.745   7.355  0.0942  0.5880 -0.3034
  128OSM    H8F13778  -0.191   3.660   7.288  3.7303  1.1597  0.1437
  128OSM    H8G13779  -0.325   3.745   7.377  0.1497 -0.3587 -0.0055
  128OSM    C9F13780  -0.147   3.733   7.491 -0.0864 -0.2737  0.1117
  128OSM    H9F13781  -0.057   3.671   7.499 -0.7214 -1.2476 -0.1260
  128OSM   C10F13782  -0.204   3.782   7.602 -0.6016  0.3720  0.0498
  128OSM   H10F13783  -0.140   3.772   7.691 -1.2299 -0.6946  0.3888
  128OSM   C11F13784  -0.333   3.857   7.618 -0.0316  0.5856 -0.5738
  128OSM   H11F13785  -0.394   3.795   7.687 -1.1789  1.5859 -0.6598
  128OSM   H11G13786  -0.393   3.860   7.524 -1.7728  1.2400  0.5061
  128OSM   C12F13787  -0.330   3.992   7.694  0.1618 -0.0173  0.3731
  128OSM   H12F13788  -0.435   4.028   7.698  0.0994 -0.2878  1.4898
  128OSM   H12G13789  -0.272   4.071   7.642 -0.0612 -0.5951 -0.7821
  128OSM   C13F13790  -0.277   3.962   7.833 -0.0727 -0.2988  0.4021
  128OSM   H13F13791  -0.169   3.936   7.838  0.4920  2.0167  2.6450
  128OSM   H13G13792  -0.334   3.877   7.877  1.9792 -2.6057 -1.1459
  128OSM   C14F13793  -0.307   4.083   7.934 -0.0472  0.3711  0.2219
  128OSM   H14F13794  -0.415   4.103   7.918  0.4436  2.3184 -1.0815
  128OSM   H14G13795  -0.246   4.168   7.895 -0.2886 -0.7430 -2.9140
  128OSM   C15F13796  -0.281   4.042   8.083  0.3927 -0.6408  0.3011
  128OSM   H15F13797  -0.174   4.013   8.094  0.5615 -0.8857 -1.6545
  128OSM   H15G13798  -0.346   3.962   8.123 -0.9260  1.2661  2.1934
  128OSM   C16F13799  -0.292   4.166   8.171 -0.6713  0.4553  0.4864
  128OSM   H16F13800  -0.391   4.216   8.171 -1.8674 -1.7581 -0.2918
  128OSM   H16G13801  -0.214   4.238   8.137 -1.1256  0.3654 -0.7830
  128OSM   C17F13802  -0.251   4.147   8.321 -0.2716 -0.0110  0.2352
  128OSM   H17F13803  -0.257   4.242   8.378 -0.7692 -0.6399  1.2588
  128OSM   H17G13804  -0.144   4.118   8.331  0.3991  1.7357 -1.2473
  128OSM   C18F13805  -0.350   4.059   8.403 -0.3175 -0.1427 -0.0385
  128OSM   H18F13806  -0.342   3.951   8.379 -1.2322 -0.6260  1.6878
  128OSM   H18G13807  -0.452   4.097   8.379 -0.9165 -3.1061 -2.8264
  128OSM   H18H13808  -0.327   4.063   8.512 -0.4543 -0.3205 -0.0038
  129OSM      N13809   3.497   5.925   6.115 -0.5968  0.1987 -0.2454
  129OSM    C1513810   3.539   6.068   6.088 -0.3599 -0.0270  0.2151
  129OSM   H15A13811   3.447   6.114   6.056 -0.6653 -0.5428  0.3294
  129OSM   H15B13812   3.606   6.074   6.004 -2.0183 -2.2482 -1.4182
  129OSM   H15C13813   3.579   6.115   6.177  2.6129  0.2392 -1.1560
  129OSM    C1413814   3.397   5.925   6.230 -0.5357 -0.1750  0.2583
  129OSM   H14A13815   3.435   5.973   6.318 -3.6642  2.5675  0.2859
  129OSM   H14B13816   3.359   5.829   6.261 -2.5516  0.5649  0.2035
  129OSM   H14C13817   3.305   5.975   6.206 -1.5249 -1.6521  0.8235
  129OSM    C1313818   3.425   5.871   5.994 -0.0325 -0.8777  0.6797
  129OSM   H13A13819   3.493   5.877   5.910 -0.7584  0.6261  0.1683
  129OSM   H13B13820   3.343   5.935   5.967  1.5343  0.6723 -0.6453
  129OSM   H13C13821   3.389   5.770   6.006  1.3647 -1.5421 -0.4381
  129OSM    C1213822   3.618   5.840   6.138 -0.1845  0.4004  0.3398
  129OSM   H12A13823   3.683   5.845   6.052  1.1466  2.3167  1.3776
  129OSM   H12B13824   3.595   5.736   6.156 -2.4729  0.9158  0.6023
  129OSM    C1113825   3.705   5.861   6.265  0.2949 -0.0317  1.0145
  129OSM   H11A13826   3.791   5.793   6.278  1.7640  1.2338 -1.3283
  129OSM   H11B13827   3.637   5.855   6.353 -2.7849 -1.9175 -1.2840
  129OSM      P13828   3.878   6.033   6.157  0.2111  0.0521  0.0356
  129OSM    O1313829   3.884   5.949   6.034 -0.0571 -0.0783  0.1645
  129OSM    O1413830   3.860   6.176   6.129  0.1539  0.1603 -0.4742
  129OSM    O1113831   3.993   6.003   6.252 -0.2366  0.0527  0.1256
  129OSM    O1213832   3.758   5.989   6.259 -0.4646  0.1614  0.8961
  129OSM    C1S13833   4.018   6.092   6.367 -0.3691 -0.7027  0.1486
  129OSM    H1S13834   3.975   6.194   6.373  0.2960 -0.4737  1.2971
  129OSM    H1T13835   4.128   6.108   6.367 -0.2313 -1.5643 -0.3926
  129OSM     NF13836   4.024   6.111   6.609  0.1168 -0.2244 -0.2604
  129OSM    HNF13837   4.116   6.108   6.647  0.5941  1.0523 -1.2302
  129OSM    C2S13838   3.985   6.025   6.504 -0.9855 -0.7891 -0.0958
  129OSM    H2S13839   3.878   6.002   6.525 -0.4883 -0.7551  2.8846
  129OSM    C3S13840   4.055   5.882   6.507 -0.0283 -0.3975 -0.0054
  129OSM    H3S13841   4.160   5.898   6.473 -0.1201  0.0544 -0.0849
  129OSM     O313842   4.002   5.786   6.407 -0.2719 -0.5631 -0.0816
  129OSM    HO313843   3.969   5.846   6.340 -0.9307 -0.0780  0.6579
  129OSM    C4S13844   4.042   5.821   6.643  0.8183  0.5925 -0.3345
  129OSM    H4S13845   3.943   5.791   6.682  1.2438 -0.1001  0.2262
  129OSM    C5S13846   4.146   5.797   6.726  0.1573  0.2819  0.2663
  129OSM    H5S13847   4.248   5.815   6.688 -0.0914 -1.1949 -1.2597
  129OSM    C6S13848   4.138   5.736   6.861  0.1849 -0.0590 -0.2914
  129OSM    H6S13849   4.211   5.654   6.882  0.8931  1.2416  3.0180
  129OSM    H6T13850   4.038   5.693   6.881 -0.2381  0.2279 -1.7113
  129OSM    C7S13851   4.156   5.829   6.977 -0.6889 -0.6710 -0.2744
  129OSM    H7S13852   4.254   5.881   6.968 -0.4483 -1.2888 -1.4559
  129OSM    H7T13853   4.155   5.764   7.067  0.2761 -1.9106 -1.1306
  129OSM    C8S13854   4.047   5.944   6.982 -0.3725 -0.1922  0.1926
  129OSM    H8S13855   3.948   5.892   6.982 -0.5856  0.0889 -2.4782
  129OSM    H8T13856   4.065   6.008   6.893 -1.1822  0.8975  0.7912
  129OSM    C9S13857   4.045   6.038   7.104  0.2315 -0.4128  0.2769
  129OSM    H9S13858   3.998   5.979   7.185 -1.8069  0.2725 -0.3515
  129OSM    H9T13859   3.980   6.125   7.080  0.1067 -0.5455  0.1352
  129OSM   C10S13860   4.177   6.087   7.152 -0.0307 -0.4155  0.4361
  129OSM   H10S13861   4.222   6.132   7.061  0.2425 -0.3424  0.6065
  129OSM   H10T13862   4.250   6.007   7.178 -0.0717 -0.5860  0.0285
  129OSM   C11S13863   4.195   6.201   7.254  0.2141 -0.1102  0.1311
  129OSM   H11S13864   4.112   6.274   7.239  1.6498  1.5073 -0.2035
  129OSM   H11T13865   4.289   6.256   7.234 -0.4849  1.6165  1.3320
  129OSM   C12S13866   4.183   6.152   7.402  0.3909 -0.0330  0.2449
  129OSM   H12S13867   4.244   6.064   7.430 -1.5696 -2.3136 -2.0769
  129OSM   H12T13868   4.082   6.106   7.413 -0.2948  0.6853 -2.3910
  129OSM   C13S13869   4.211   6.259   7.502  0.4198  0.4488  0.3659
  129OSM   H13S13870   4.140   6.340   7.477 -1.1431 -1.2580 -1.0400
  129OSM   H13T13871   4.311   6.302   7.478  0.6728 -1.0577 -1.5704
  129OSM   C14S13872   4.190   6.218   7.647  0.2883  0.4224 -0.1992
  129OSM   H14S13873   4.225   6.307   7.704  0.3304  0.0207  0.4172
  129OSM   H14T13874   4.246   6.125   7.667  2.4240  1.7786  0.5018
  129OSM   C15S13875   4.034   6.201   7.674  0.0814  0.9537  0.0114
  129OSM   H15S13876   3.994   6.114   7.617  0.1281 -0.2211  1.7087
  129OSM   H15T13877   3.977   6.289   7.636 -2.9960 -0.7636  0.3590
  129OSM   C16S13878   4.009   6.176   7.826 -0.6045  0.4045 -0.3532
  129OSM   H16S13879   4.052   6.263   7.879  1.1109 -0.8701  0.4426
  129OSM   H16T13880   4.077   6.092   7.851 -1.2643  0.7455  3.1677
  129OSM   C17S13881   3.865   6.146   7.856 -1.4110 -0.0245  0.4722
  129OSM   H17S13882   3.827   6.080   7.776 -0.3432 -0.2000  0.0958
  129OSM   H17T13883   3.803   6.239   7.853 -1.8524 -0.3438 -0.8732
  129OSM   C18S13884   3.843   6.069   7.990  0.0543 -0.6539 -0.0154
  129OSM   H18S13885   3.733   6.054   8.001 -0.2990  2.1308  1.2136
  129OSM   H18T13886   3.880   6.143   8.065  1.5642  0.1724 -1.4934
  129OSM   H18U13887   3.899   5.974   7.997  2.3347  0.6141 -0.1558
  129OSM    C1F13888   3.947   6.216   6.634 -0.5162  0.5141 -0.0921
  129OSM     OF13889   3.844   6.233   6.570 -0.0787 -0.2223 -0.5128
  129OSM    C2F13890   4.000   6.324   6.731  0.2971 -0.1855  0.0722
  129OSM    H2F13891   4.099   6.359   6.695  0.1419  1.6256  1.2768
  129OSM    H2G13892   4.001   6.279   6.832  3.1827 -0.3790  0.0255
  129OSM    C3F13893   3.908   6.449   6.754 -0.2321  0.2559 -0.2490
  129OSM    H3F13894   3.803   6.419   6.776 -0.2091 -1.4459 -2.1859
  129OSM    H3G13895   3.924   6.504   6.659  0.1637 -0.9567 -0.9003
  129OSM    C4F13896   3.965   6.545   6.856 -0.2209  0.3083  0.0306
  129OSM    H4F13897   4.074   6.562   6.842  0.1499 -1.3381  0.7341
  129OSM    H4G13898   3.951   6.504   6.958  0.2411  2.0128  0.8157
  129OSM    C5F13899   3.872   6.671   6.869 -0.3247 -0.1805 -0.0604
  129OSM    H5F13900   3.770   6.643   6.903 -0.4807 -0.3446 -0.6615
  129OSM    H5G13901   3.853   6.734   6.780 -1.9376  0.4184  0.6637
  129OSM    C6F13902   3.924   6.760   6.983  0.4492 -0.0548 -0.4281
  129OSM    H6F13903   4.034   6.773   6.974  0.2757  1.1079 -0.9769
  129OSM    H6G13904   3.906   6.696   7.073  4.1540 -0.3616  0.2806
  129OSM    C7F13905   3.852   6.895   6.999 -0.5201  0.0125 -0.2780
  129OSM    H7F13906   3.743   6.877   7.007 -0.5074  0.7229  2.1251
  129OSM    H7G13907   3.866   6.955   6.906  2.9655  0.3250  0.3165
  129OSM    C8F13908   3.901   6.976   7.121 -1.2251  0.2432  0.4108
  129OSM    H8F13909   4.010   6.994   7.112 -1.0528 -0.2375  1.4294
  129OSM    H8G13910   3.890   6.900   7.200  0.9425 -1.7642 -1.0793
  129OSM    C9F13911   3.829   7.105   7.125  0.2044  0.2842 -0.1162
  129OSM    H9F13912   3.869   7.191   7.070  1.4050  0.1859  0.5540
  129OSM   C10F13913   3.726   7.132   7.205 -0.1797  0.0368 -0.1850
  129OSM   H10F13914   3.684   7.234   7.207  1.6721  0.8275  1.2126
  129OSM   C11F13915   3.646   7.040   7.292  0.1463  0.9839  0.2885
  129OSM   H11F13916   3.686   6.936   7.286 -0.5247  0.7322  0.0464
  129OSM   H11G13917   3.547   7.019   7.245  1.0340 -0.9015 -0.8774
  129OSM   C12F13918   3.634   7.089   7.437 -0.4424  0.3839  0.2734
  129OSM   H12F13919   3.563   7.015   7.480  0.7946 -2.5709 -2.3774
  129OSM   H12G13920   3.591   7.190   7.449  1.1772  0.9658  1.5041
  129OSM   C13F13921   3.774   7.099   7.511  0.6233 -0.4248  0.3990
  129OSM   H13F13922   3.842   7.159   7.446  0.8045  0.6653  1.5582
  129OSM   H13G13923   3.811   6.995   7.511 -1.9209 -1.4686 -1.9011
  129OSM   C14F13924   3.780   7.166   7.650 -0.1050  0.0605 -0.6466
  129OSM   H14F13925   3.705   7.115   7.714  1.4159 -0.3395  0.9155
  129OSM   H14G13926   3.760   7.275   7.650  1.0694  0.3334 -2.6969
  129OSM   C15F13927   3.915   7.151   7.716 -0.3711 -0.1618 -0.6388
  129OSM   H15F13928   4.005   7.183   7.659  0.0445  1.4920  0.8481
  129OSM   H15G13929   3.925   7.044   7.742 -0.4031  0.1081  0.5487
  129OSM   C16F13930   3.913   7.236   7.849 -0.0410 -0.8595 -0.0442
  129OSM   H16F13931   3.840   7.197   7.923 -0.8511  1.8623  0.7026
  129OSM   H16G13932   3.893   7.344   7.835 -1.0457 -1.0031  0.1934
  129OSM   C17F13933   4.061   7.223   7.906  0.2737  0.4464 -0.2658
  129OSM   H17F13934   4.077   7.297   7.987 -2.1538 -1.1592  1.8337
  129OSM   H17G13935   4.133   7.241   7.823 -0.1605 -3.4400 -1.6866
  129OSM   C18F13936   4.096   7.090   7.969  0.1832  0.1846 -0.3345
  129OSM   H18F13937   4.008   7.054   8.027 -0.4987 -0.8119 -1.9010
  129OSM   H18G13938   4.190   7.089   8.027 -0.2616  0.2428  0.3975
  129OSM   H18H13939   4.113   7.022   7.882  0.7750 -2.8981  2.0204
  130OSM      N13940   0.877   2.625   6.040  0.6944  0.0825  0.3349
  130OSM    C1513941   0.906   2.501   6.121 -0.0256  0.0597  0.1168
  130OSM   H15A13942   0.976   2.446   6.060  0.8028 -0.0598  1.1447
  130OSM   H15B13943   0.813   2.450   6.141 -1.2644  2.5826  1.1972
  130OSM   H15C13944   0.950   2.537   6.213 -2.4986  1.4012  0.8557
  130OSM    C1413945   0.807   2.576   5.909 -0.5083  0.1451 -0.1194
  130OSM   H14A13946   0.870   2.499   5.867 -0.7507 -0.7134  1.0166
  130OSM   H14B13947   0.798   2.652   5.833 -1.5325  0.0047 -0.1498
  130OSM   H14C13948   0.714   2.526   5.933 -0.2139  0.1146  1.0546
  130OSM    C1313949   0.773   2.711   6.108  0.3676 -0.0851  0.1474
  130OSM   H13A13950   0.686   2.650   6.128 -0.3289  1.2674  1.4121
  130OSM   H13B13951   0.744   2.794   6.045  0.4844  0.0650  0.2913
  130OSM   H13C13952   0.812   2.751   6.200  0.0207  0.7293 -0.0532
  130OSM    C1213953   1.001   2.709   6.006  0.9470 -0.8715 -0.0614
  130OSM   H12A13954   1.056   2.730   6.097 -0.7055  0.7344  0.6179
  130OSM   H12B13955   0.965   2.807   5.980  1.0659 -0.7376  0.2607
  130OSM    C1113956   1.103   2.662   5.900 -0.5751  0.2335 -0.6217
  130OSM   H11A13957   1.186   2.733   5.881  0.3147 -1.3191 -2.8468
  130OSM   H11B13958   1.050   2.656   5.803 -2.8568 -0.4680  0.5832
  130OSM      P13959   1.267   2.509   6.037 -0.1848 -0.2441  0.6055
  130OSM    O1313960   1.364   2.420   5.972 -0.0148 -0.0167  0.2600
  130OSM    O1413961   1.313   2.638   6.088 -0.1279  0.6983  0.0735
  130OSM    O1113962   1.190   2.432   6.160 -0.5894  0.1778 -0.2414
  130OSM    O1213963   1.154   2.534   5.931  0.0871 -0.0728 -0.3220
  130OSM    C1S13964   1.255   2.466   6.288  0.4037  0.9285 -0.0737
  130OSM    H1S13965   1.238   2.571   6.320 -0.1433  0.1839  2.2476
  130OSM    H1T13966   1.362   2.438   6.280  0.2489  0.1011  0.6574
  130OSM     NF13967   1.265   2.429   6.536 -0.2034  0.3154  0.5279
  130OSM    HNF13968   1.342   2.378   6.574  0.2240  0.9470  0.5166
  130OSM    C2S13969   1.196   2.383   6.413 -0.0172 -0.2273 -0.2619
  130OSM    H2S13970   1.088   2.407   6.406 -0.7734 -3.4323 -0.8381
  130OSM    C3S13971   1.203   2.234   6.387 -0.4373  0.2533 -0.0078
  130OSM    H3S13972   1.303   2.194   6.362  0.0040  1.0789  0.3880
  130OSM     O313973   1.133   2.206   6.265 -0.9470  0.1226  0.1268
  130OSM    HO313974   1.151   2.290   6.221 -0.0861 -0.5707 -0.9042
  130OSM    C4S13975   1.159   2.144   6.503 -0.8015 -0.8320  0.4122
  130OSM    H4S13976   1.214   2.156   6.597  0.1969 -1.4521 -0.0782
  130OSM    C5S13977   1.065   2.049   6.502  0.7889  0.4629  0.6400
  130OSM    H5S13978   1.022   2.007   6.410  2.2761 -2.4130  1.1364
  130OSM    C6S13979   1.029   1.964   6.623 -0.5741 -0.1312 -0.0684
  130OSM    H6S13980   1.064   1.860   6.603  0.3665 -0.0602  1.0960
  130OSM    H6T13981   0.919   1.957   6.641 -0.3553 -0.0169  1.4621
  130OSM    C7S13982   1.075   1.999   6.769 -0.4708 -0.0928 -0.9656
  130OSM    H7S13983   1.184   2.018   6.779 -0.6509 -0.1358  2.1674
  130OSM    H7T13984   1.064   1.908   6.832  1.7921  0.6084  0.5337
  130OSM    C8S13985   0.984   2.099   6.839  0.3979 -0.2121 -0.5550
  130OSM    H8S13986   0.881   2.063   6.821 -0.0709  0.1143  1.2626
  130OSM    H8T13987   0.996   2.203   6.800 -1.5500 -0.1195 -1.0321
  130OSM    C9S13988   1.027   2.105   6.989 -0.2853  0.2122  0.4859
  130OSM    H9S13989   1.132   2.141   6.986 -0.2771  0.1246 -0.3180
  130OSM    H9T13990   1.033   2.003   7.033  0.1417 -0.6738 -1.5144
  130OSM   C10S13991   0.940   2.193   7.079  1.0616 -0.2249  0.2639
  130OSM   H10S13992   0.837   2.152   7.088  1.1348 -0.0998  2.1041
  130OSM   H10T13993   0.924   2.294   7.035 -0.4616 -1.3353 -1.9406
  130OSM   C11S13994   0.985   2.203   7.228 -0.0709 -0.4871 -0.6239
  130OSM   H11S13995   1.078   2.262   7.239 -1.1036  0.7204  3.2926
  130OSM   H11T13996   1.019   2.102   7.260 -0.6453 -0.1641  1.0896
  130OSM   C12S13997   0.882   2.250   7.328  0.2691 -0.3741 -0.4398
  130OSM   H12S13998   0.788   2.190   7.322 -0.7205  0.9721  0.8478
  130OSM   H12T13999   0.855   2.353   7.297  3.0006  1.3551  2.3799
  130OSM   C13S14000   0.928   2.264   7.469 -0.0113 -0.4310 -0.0045
  130OSM   H13S14001   1.017   2.331   7.471 -0.7169  0.5476  1.8270
  130OSM   H13T14002   0.948   2.169   7.522  1.4660  0.3520  0.9135
  130OSM   C14S14003   0.836   2.350   7.564 -0.1825 -0.1679 -0.1760
  130OSM   H14S14004   0.744   2.289   7.582  0.7487 -1.7595 -0.5481
  130OSM   H14T14005   0.804   2.447   7.522  0.9234  0.7563  1.0408
  130OSM   C15S14006   0.919   2.378   7.695 -0.3213  0.3969 -0.2024
  130OSM   H15S14007   1.020   2.417   7.670 -0.9735  1.3974 -1.4194
  130OSM   H15T14008   0.931   2.283   7.750  1.4331  1.3984  1.2451
  130OSM   C16S14009   0.852   2.477   7.788  0.3155 -0.0539 -0.0909
  130OSM   H16S14010   0.757   2.425   7.816 -0.9255  2.0920 -0.0807
  130OSM   H16T14011   0.835   2.572   7.733  0.3669  0.4678  0.7871
  130OSM   C17S14012   0.921   2.519   7.914  0.1957 -0.0226 -0.3072
  130OSM   H17S14013   0.895   2.617   7.958  2.3937  0.2709  0.4613
  130OSM   H17T14014   1.024   2.549   7.888 -0.3930  1.1549 -1.3604
  130OSM   C18S14015   0.935   2.418   8.025 -0.8942 -0.1160 -0.1740
  130OSM   H18S14016   0.836   2.383   8.061 -1.0790  0.9363  0.4045
  130OSM   H18T14017   0.986   2.475   8.106  1.5794 -1.2375 -0.8760
  130OSM   H18U14018   1.000   2.333   7.998  0.0679  0.8807 -1.0926
  130OSM    C1F14019   1.225   2.538   6.592  1.1988 -0.3827 -0.0991
  130OSM     OF14020   1.123   2.600   6.559 -0.3015  0.4534  0.5375
  130OSM    C2F14021   1.316   2.584   6.692 -0.5006  0.1325  0.4342
  130OSM    H2F14022   1.399   2.638   6.642 -1.3802  1.0662 -0.0558
  130OSM    H2G14023   1.359   2.499   6.750  1.6944  1.3737  0.7454
  130OSM    C3F14024   1.247   2.674   6.800 -0.5809 -0.6275  0.2504
  130OSM    H3F14025   1.138   2.688   6.785 -0.8342  0.4128  2.6668
  130OSM    H3G14026   1.297   2.774   6.799  1.2099 -1.4452 -2.3714
  130OSM    C4F14027   1.251   2.602   6.931 -0.6650 -0.3788 -0.5193
  130OSM    H4F14028   1.360   2.609   6.954 -1.0963  1.2137  1.3560
  130OSM    H4G14029   1.217   2.498   6.915 -2.3533  0.3937 -2.4784
  130OSM    C5F14030   1.167   2.672   7.029  0.5276  0.9364 -0.3982
  130OSM    H5F14031   1.067   2.653   6.985  1.4911 -1.4446 -1.7474
  130OSM    H5G14032   1.185   2.781   7.032 -1.2076  1.2378 -0.2509
  130OSM    C6F14033   1.187   2.615   7.176  0.1253  0.1332  1.1264
  130OSM    H6F14034   1.296   2.630   7.194  0.0755  1.9961  0.1385
  130OSM    H6G14035   1.171   2.505   7.174  3.9045 -0.5369  0.9192
  130OSM    C7F14036   1.113   2.681   7.289 -0.1338 -1.0189 -0.0851
  130OSM    H7F14037   1.009   2.644   7.280 -0.4617 -0.0801 -0.2065
  130OSM    H7G14038   1.136   2.788   7.269  2.0930 -1.4739 -0.2420
  130OSM    C8F14039   1.177   2.627   7.413  0.1090 -0.0164  0.1984
  130OSM    H8F14040   1.274   2.681   7.421 -0.1663  0.4860  0.2388
  130OSM    H8G14041   1.215   2.523   7.416 -0.1601 -0.1077  0.5288
  130OSM    C9F14042   1.084   2.654   7.536 -0.9461  0.4092 -0.1533
  130OSM    H9F14043   0.978   2.638   7.514 -0.9869  0.1151  0.2339
  130OSM   C10F14044   1.116   2.705   7.653 -0.4173  1.0075  0.1352
  130OSM   H10F14045   1.041   2.727   7.731 -0.4525  0.1816  0.3483
  130OSM   C11F14046   1.256   2.752   7.684  0.4434  0.4002 -0.1988
  130OSM   H11F14047   1.261   2.861   7.702 -0.2550  0.9227 -2.7668
  130OSM   H11G14048   1.323   2.718   7.602 -0.9344 -2.9836 -0.0802
  130OSM   C12F14049   1.297   2.682   7.820  0.0465 -0.4315  0.6566
  130OSM   H12F14050   1.407   2.689   7.827  0.1092 -1.8407  1.6889
  130OSM   H12G14051   1.267   2.575   7.818  0.5114 -0.5974  1.9073
  130OSM   C13F14052   1.236   2.748   7.943  0.4358  0.0815 -0.2057
  130OSM   H13F14053   1.125   2.756   7.934  0.2389  0.5502  2.1673
  130OSM   H13G14054   1.279   2.850   7.949 -0.8250  0.5416  1.7523
  130OSM   C14F14055   1.264   2.657   8.073  0.6647 -0.4442  0.1207
  130OSM   H14F14056   1.367   2.617   8.062  0.0637 -2.5006  1.4486
  130OSM   H14G14057   1.195   2.570   8.066 -0.4908  0.4142  0.6150
  130OSM   C15F14058   1.236   2.726   8.209  0.3379  0.9311 -0.2215
  130OSM   H15F14059   1.137   2.776   8.202  0.3596  1.1401  0.8231
  130OSM   H15G14060   1.318   2.798   8.229 -0.7030  2.9830 -2.8192
  130OSM   C16F14061   1.249   2.626   8.337  0.1208 -0.6678 -0.2038
  130OSM   H16F14062   1.193   2.533   8.312  0.9218 -1.4871  0.9392
  130OSM   H16G14063   1.197   2.668   8.426  0.6427  0.6780 -0.5128
  130OSM   C17F14064   1.386   2.573   8.358  0.1195 -0.5740 -0.6240
  130OSM   H17F14065   1.451   2.661   8.376 -2.5026  1.5022 -0.8504
  130OSM   H17G14066   1.410   2.536   8.256 -1.2488  4.2964 -3.0346
  130OSM   C18F14067   1.395   2.464   8.458 -0.1609  0.0364 -1.0103
  130OSM   H18F14068   1.314   2.389   8.443  0.1381 -0.4307 -0.3344
  130OSM   H18G14069   1.392   2.489   8.566 -2.2101 -1.1168 -0.7460
  130OSM   H18H14070   1.494   2.414   8.449  0.9173  2.1830 -1.6739
  131OSM      N14071   5.356   5.203   6.060 -0.2454 -0.1718  0.4523
  131OSM    C1514072   5.262   5.151   6.154 -0.3020 -0.6702 -0.1246
  131OSM   H15A14073   5.273   5.044   6.166 -0.0266 -0.9994 -2.7375
  131OSM   H15B14074   5.160   5.168   6.124 -0.9667 -0.1219  2.2195
  131OSM   H15C14075   5.262   5.198   6.251  2.1777  1.3357 -0.9890
  131OSM    C1414076   5.492   5.189   6.110 -0.2982  0.4886 -0.6163
  131OSM   H14A14077   5.492   5.224   6.212  0.7842 -0.4569 -0.2735
  131OSM   H14B14078   5.561   5.254   6.057  1.2546 -0.1428  0.5496
  131OSM   H14C14079   5.530   5.088   6.110 -0.7168  0.2950  1.1361
  131OSM    C1314080   5.339   5.138   5.928  0.0032 -0.0695  0.0907
  131OSM   H13A14081   5.249   5.169   5.877 -0.7896 -3.6234 -0.9164
  131OSM   H13B14082   5.340   5.032   5.946  1.4828 -0.4900 -2.0349
  131OSM   H13C14083   5.421   5.162   5.861 -0.2258 -0.7509 -0.4436
  131OSM    C1214084   5.327   5.357   6.056 -0.4965  0.2067  0.3807
  131OSM   H12A14085   5.330   5.407   6.151  0.4301  1.6380 -0.3690
  131OSM   H12B14086   5.227   5.356   6.014  0.1695 -1.0293 -1.2728
  131OSM    C1114087   5.421   5.441   5.960 -0.3548  0.4704  0.7970
  131OSM   H11A14088   5.368   5.537   5.943  0.3059  0.6922 -0.0721
  131OSM   H11B14089   5.440   5.389   5.864 -1.4581 -0.5472  1.1127
  131OSM      P14090   5.610   5.602   6.051  0.1476  0.2864  0.1325
  131OSM    O1314091   5.743   5.592   6.112 -0.3937  0.4951 -0.0776
  131OSM    O1414092   5.603   5.690   5.931 -0.0054 -0.1607 -0.4227
  131OSM    O1114093   5.516   5.663   6.155 -0.5529  0.1727 -0.0852
  131OSM    O1214094   5.547   5.465   6.024  0.3265  0.3011 -0.1315
  131OSM    C1S14095   5.459   5.593   6.266  0.1525  0.6579 -0.0664
  131OSM    H1S14096   5.468   5.483   6.256 -0.1151  0.5236  1.0326
  131OSM    H1T14097   5.351   5.618   6.279  0.4834  2.2847 -0.2843
  131OSM     NF14098   5.450   5.566   6.515  0.2041 -0.1685  0.6825
  131OSM    HNF14099   5.376   5.605   6.569  0.4978  1.8557 -0.2373
  131OSM    C2S14100   5.509   5.639   6.404  0.1289 -0.1234  0.6584
  131OSM    H2S14101   5.616   5.609   6.410 -0.0669 -1.3496 -1.3169
  131OSM    C3S14102   5.489   5.793   6.416 -0.3237 -0.3892  0.9278
  131OSM    H3S14103   5.388   5.822   6.381 -0.9645 -2.4835  0.8909
  131OSM     O314104   5.584   5.860   6.334 -0.6183 -0.2205 -0.1011
  131OSM    HO314105   5.615   5.795   6.270 -0.2186  1.8935 -2.2104
  131OSM    C4S14106   5.509   5.859   6.555 -0.0206  0.3014 -0.0862
  131OSM    H4S14107   5.418   5.896   6.604 -0.1098 -1.8760  1.5399
  131OSM    C5S14108   5.623   5.860   6.629 -0.7388  0.5080 -0.7202
  131OSM    H5S14109   5.713   5.823   6.577  0.6371  1.2287  1.0815
  131OSM    C6S14110   5.643   5.926   6.763  0.2389  0.1267 -0.3085
  131OSM    H6S14111   5.581   6.018   6.771  0.3702  0.2509 -0.7444
  131OSM    H6T14112   5.744   5.964   6.788  0.2277  0.1018 -0.2251
  131OSM    C7S14113   5.613   5.845   6.893 -0.0601  0.7289  0.2125
  131OSM    H7S14114   5.647   5.739   6.888  0.6426  0.8901  1.3442
  131OSM    H7T14115   5.507   5.811   6.888  0.3448 -0.3689 -2.2992
  131OSM    C8S14116   5.662   5.902   7.029  0.6027  0.1503 -0.0257
  131OSM    H8S14117   5.619   5.846   7.114 -2.2875 -1.5452 -2.3988
  131OSM    H8T14118   5.622   6.005   7.036 -0.7079 -0.4356  2.1203
  131OSM    C9S14119   5.820   5.900   7.052 -0.1492 -0.2028  0.0487
  131OSM    H9S14120   5.868   5.939   6.960 -2.3348 -1.6456 -1.8270
  131OSM    H9T14121   5.849   5.793   7.058  0.9598  0.1711  2.7814
  131OSM   C10S14122   5.859   5.976   7.176  0.2014 -0.8416  0.1500
  131OSM   H10S14123   5.826   6.081   7.159 -3.1886 -1.4289  2.1766
  131OSM   H10T14124   5.970   5.979   7.169  0.1273  1.2662 -0.9776
  131OSM   C11S14125   5.811   5.919   7.308 -0.4772  0.0079  0.7680
  131OSM   H11S14126   5.701   5.931   7.302 -0.3984 -0.0030 -1.4380
  131OSM   H11T14127   5.858   5.987   7.383  3.3354 -0.5030 -0.9257
  131OSM   C12S14128   5.846   5.779   7.352 -0.0008 -0.3072 -0.5070
  131OSM   H12S14129   5.955   5.759   7.360  0.0822  0.1327 -0.5464
  131OSM   H12T14130   5.793   5.701   7.293 -0.2880 -0.0871 -0.5435
  131OSM   C13S14131   5.798   5.745   7.496  0.4544 -0.4560 -0.1619
  131OSM   H13S14132   5.823   5.638   7.511  1.8479  0.0926  1.7013
  131OSM   H13T14133   5.687   5.751   7.508  0.6245  1.6637  0.7943
  131OSM   C14S14134   5.858   5.832   7.605 -0.2175  0.1924  0.2943
  131OSM   H14S14135   5.867   5.941   7.586 -1.8279  0.3202  0.1114
  131OSM   H14T14136   5.962   5.797   7.620 -1.0655 -2.8851 -0.3025
  131OSM   C15S14137   5.791   5.815   7.739  0.1942  0.1192  0.1291
  131OSM   H15S14138   5.733   5.720   7.747 -2.4293  1.5231 -0.9246
  131OSM   H15T14139   5.712   5.893   7.752  0.8280  0.4327  2.6392
  131OSM   C16S14140   5.888   5.802   7.859 -0.3705  0.0685  0.4508
  131OSM   H16S14141   5.944   5.896   7.878  0.3102 -0.2321 -0.0276
  131OSM   H16T14142   5.973   5.735   7.833  0.3826  1.0092  0.4421
  131OSM   C17S14143   5.814   5.756   7.990  0.7343 -0.0211 -0.6143
  131OSM   H17S14144   5.750   5.668   7.970  0.1829  0.8136 -2.7798
  131OSM   H17T14145   5.754   5.838   8.034 -0.3872  0.0541 -2.1968
  131OSM   C18S14146   5.913   5.711   8.098  0.0711 -0.6904 -0.1857
  131OSM   H18S14147   5.976   5.630   8.054  0.5161 -0.5457  0.1693
  131OSM   H18T14148   5.862   5.662   8.183  0.4546 -1.8441 -0.5947
  131OSM   H18U14149   5.996   5.780   8.126  0.0211 -0.0455 -1.5535
  131OSM    C1F14150   5.479   5.441   6.534  0.0618  0.5359 -0.3489
  131OSM     OF14151   5.564   5.389   6.465 -0.6935 -0.2079 -0.3370
  131OSM    C2F14152   5.397   5.366   6.641 -0.9453  0.1466 -0.0531
  131OSM    H2F14153   5.322   5.303   6.589  1.9597 -1.8733 -2.1162
  131OSM    H2G14154   5.348   5.444   6.704 -1.9533  0.5941 -1.3449
  131OSM    C3F14155   5.485   5.271   6.729  0.7487  0.1620 -0.1136
  131OSM    H3F14156   5.518   5.184   6.669  0.6205  0.3780 -0.5009
  131OSM    H3G14157   5.419   5.218   6.801  1.2368  0.1031  0.2924
  131OSM    C4F14158   5.593   5.332   6.818  0.2011  0.1274 -0.4453
  131OSM    H4F14159   5.688   5.350   6.763  0.5325  1.0494  0.3927
  131OSM    H4G14160   5.624   5.251   6.887  1.3722 -0.2026 -1.3185
  131OSM    C5F14161   5.570   5.453   6.905  0.3276  0.2727 -0.4767
  131OSM    H5F14162   5.569   5.545   6.842 -1.0739  1.8310  1.6947
  131OSM    H5G14163   5.660   5.479   6.964 -0.6644  2.6739  0.0871
  131OSM    C6F14164   5.440   5.457   6.991  0.0401 -0.1724 -0.1809
  131OSM    H6F14165   5.356   5.445   6.920 -0.4430 -0.9577  0.5206
  131OSM    H6G14166   5.436   5.560   7.033 -3.0100 -0.7798  1.2793
  131OSM    C7F14167   5.437   5.349   7.090  0.5756  0.3269  0.6250
  131OSM    H7F14168   5.434   5.246   7.051 -1.3848  0.1080  1.2313
  131OSM    H7G14169   5.346   5.364   7.151  0.0588  0.6289 -0.2042
  131OSM    C8F14170   5.554   5.327   7.188  0.0509  0.2807  0.0652
  131OSM    H8F14171   5.645   5.307   7.128  1.4525 -0.5693  2.3225
  131OSM    H8G14172   5.528   5.231   7.237  0.2678  0.4741  0.5687
  131OSM    C9F14173   5.572   5.430   7.301 -0.6768  0.1142  0.0887
  131OSM    H9F14174   5.663   5.489   7.280  1.0628 -3.0891 -2.3271
  131OSM   C10F14175   5.497   5.436   7.412 -0.2127 -0.1778  0.0897
  131OSM   H10F14176   5.533   5.502   7.493 -0.9576 -0.8952  1.0212
  131OSM   C11F14177   5.373   5.364   7.451 -0.7911 -1.1890 -0.4416
  131OSM   H11F14178   5.394   5.297   7.538 -1.9510 -0.7018  0.2468
  131OSM   H11G14179   5.340   5.290   7.375  0.8516 -1.1167 -1.2601
  131OSM   C12F14180   5.242   5.446   7.488 -0.1487  0.2334 -0.1858
  131OSM   H12F14181   5.169   5.379   7.539 -0.3579 -1.6652 -2.7599
  131OSM   H12G14182   5.198   5.484   7.393 -1.1174  0.1110  0.2026
  131OSM   C13F14183   5.268   5.563   7.580  0.1626 -0.4989  0.0989
  131OSM   H13F14184   5.174   5.618   7.601 -1.0607 -2.9398  1.4742
  131OSM   H13G14185   5.338   5.636   7.535  0.7260  0.1429  1.9038
  131OSM   C14F14186   5.324   5.522   7.718  0.1375 -0.8524 -0.8851
  131OSM   H14F14187   5.428   5.483   7.712  0.4283  0.0218 -1.8614
  131OSM   H14G14188   5.254   5.451   7.766 -1.2558  1.3151  0.4836
  131OSM   C15F14189   5.317   5.641   7.825  0.3929  0.1859  0.1447
  131OSM   H15F14190   5.214   5.670   7.854  1.6415  2.9478  2.1654
  131OSM   H15G14191   5.362   5.728   7.772 -0.7666  0.5088 -0.3468
  131OSM   C16F14192   5.400   5.610   7.946 -0.2763  0.5616 -0.5158
  131OSM   H16F14193   5.494   5.566   7.908 -1.6363 -0.7702 -2.5669
  131OSM   H16G14194   5.352   5.524   7.998  0.0435  0.5515 -0.2378
  131OSM   C17F14195   5.429   5.724   8.030 -0.5944 -0.4008  0.1115
  131OSM   H17F14196   5.344   5.790   8.056  1.6106  2.5037  0.6041
  131OSM   H17G14197   5.503   5.781   7.970 -1.1535  0.8384  0.5683
  131OSM   C18F14198   5.492   5.682   8.170 -0.7231  0.1438 -0.1038
  131OSM   H18F14199   5.426   5.614   8.227  3.4513 -1.5092  3.3621
  131OSM   H18G14200   5.512   5.767   8.239  2.0297 -0.4441 -0.0410
  131OSM   H18H14201   5.591   5.632   8.160 -1.6732 -1.9406  0.4576
  132OSM      N14202   1.123   0.819   6.276 -0.2076 -0.0528 -0.1809
  132OSM    C1514203   1.154   0.713   6.384  0.0711  0.4068 -0.8786
  132OSM   H15A14204   1.231   0.750   6.450 -2.4842  0.8806  2.0208
  132OSM   H15B14205   1.190   0.617   6.348 -0.3186  0.2367 -0.8198
  132OSM   H15C14206   1.068   0.691   6.445  0.0238 -1.1047 -1.4290
  132OSM    C1414207   1.249   0.837   6.205  0.0319 -0.1770 -0.0625
  132OSM   H14A14208   1.286   0.741   6.173  0.9411  0.2939 -0.4259
  132OSM   H14B14209   1.327   0.885   6.262 -0.5909 -1.8541  2.4188
  132OSM   H14C14210   1.226   0.900   6.121 -0.2674 -0.3002 -0.0768
  132OSM    C1314211   1.022   0.751   6.179  0.2538  0.0381 -0.1887
  132OSM   H13A14212   0.933   0.718   6.231 -0.8276  0.1301 -1.9219
  132OSM   H13B14213   1.072   0.670   6.127  3.2984  2.2973 -1.0708
  132OSM   H13C14214   0.989   0.820   6.103 -1.5702 -0.6503 -0.0600
  132OSM    C1214215   1.060   0.949   6.333 -0.1524  0.7672 -0.5011
  132OSM   H12A14216   1.032   1.020   6.257 -3.1019  2.3659  1.8577
  132OSM   H12B14217   1.129   1.013   6.386 -0.1119  0.9211 -0.7385
  132OSM    C1114218   0.924   0.937   6.412  0.8857  0.0405 -0.1670
  132OSM   H11A14219   0.916   1.040   6.451 -0.2566 -0.3738  0.7569
  132OSM   H11B14220   0.925   0.875   6.504 -2.6996  2.4022  1.7047
  132OSM      P14221   0.683   0.977   6.331 -0.4074 -0.2538  0.0759
  132OSM    O1314222   0.705   1.116   6.279  0.2478 -0.3368  0.1819
  132OSM    O1414223   0.588   0.888   6.264 -0.0231 -0.6524  0.1348
  132OSM    O1114224   0.657   0.993   6.486 -0.0237  0.4048  0.3675
  132OSM    O1214225   0.822   0.896   6.323 -0.1339 -0.0026  0.5572
  132OSM    C1S14226   0.612   0.886   6.570 -0.2098 -0.0768  0.0369
  132OSM    H1S14227   0.697   0.815   6.580 -1.7415 -1.9245  0.5283
  132OSM    H1T14228   0.526   0.832   6.526 -0.1770 -0.0925 -0.0080
  132OSM     NF14229   0.573   0.827   6.808 -0.6897 -0.0188  0.1465
  132OSM    HNF14230   0.487   0.778   6.822  0.5219 -2.5519 -0.6815
  132OSM    C2S14231   0.593   0.935   6.717  0.0756 -0.0575  0.2286
  132OSM    H2S14232   0.690   0.984   6.742  0.5498 -0.8178 -0.0799
  132OSM    C3S14233   0.477   1.030   6.723  1.2292  0.3123 -0.0380
  132OSM    H3S14234   0.386   0.970   6.707  1.3975  0.1687 -0.4705
  132OSM     O314235   0.469   1.135   6.633  0.3595 -0.1749  0.1146
  132OSM    HO314236   0.555   1.134   6.590  0.4522 -1.4922  0.2902
  132OSM    C4S14237   0.471   1.092   6.861 -0.0255 -0.6752  0.3453
  132OSM    H4S14238   0.375   1.072   6.911 -0.0306  1.3806  1.2557
  132OSM    C5S14239   0.558   1.185   6.905 -0.2271 -0.0432 -0.3696
  132OSM    H5S14240   0.643   1.209   6.840 -0.1875 -3.4566 -1.8005
  132OSM    C6S14241   0.562   1.250   7.039 -0.2923 -0.3307 -0.3366
  132OSM    H6S14242   0.543   1.359   7.038  1.2473 -0.0431 -0.4314
  132OSM    H6T14243   0.669   1.242   7.068 -0.4341  1.8052  0.9800
  132OSM    C7S14244   0.469   1.186   7.145  0.6598 -0.3990  0.8267
  132OSM    H7S14245   0.476   1.076   7.136 -1.3340 -0.4341 -1.0512
  132OSM    H7T14246   0.365   1.204   7.110  0.4375 -4.4300 -1.1701
  132OSM    C8S14247   0.506   1.218   7.293  0.0887  0.3068 -0.3628
  132OSM    H8S14248   0.408   1.252   7.335 -0.3633 -1.8426  0.4300
  132OSM    H8T14249   0.578   1.302   7.298 -1.7519  1.9143  1.5554
  132OSM    C9S14250   0.564   1.103   7.369 -0.0711  0.0967  0.0445
  132OSM    H9S14251   0.673   1.102   7.345 -0.4932  1.4134 -2.2646
  132OSM    H9T14252   0.513   1.010   7.337  2.3355 -0.7438 -1.5922
  132OSM   C10S14253   0.538   1.105   7.521 -0.1040 -0.6007  0.0117
  132OSM   H10S14254   0.592   1.020   7.567 -0.9941 -0.5630  1.1854
  132OSM   H10T14255   0.435   1.087   7.560  0.5884 -2.0898  1.2727
  132OSM   C11S14256   0.600   1.231   7.577  0.1786  0.4953  0.2055
  132OSM   H11S14257   0.524   1.310   7.558  0.4056  0.1830 -2.3439
  132OSM   H11T14258   0.690   1.278   7.533  0.8854  1.4929  2.5630
  132OSM   C12S14259   0.625   1.231   7.726 -0.3522  0.3869 -0.2355
  132OSM   H12S14260   0.705   1.161   7.758 -0.8473 -0.1523 -0.1565
  132OSM   H12T14261   0.528   1.191   7.763  1.1523 -3.3281  0.1203
  132OSM   C13S14262   0.681   1.367   7.767 -0.2872 -0.4504 -0.0440
  132OSM   H13S14263   0.624   1.445   7.711 -1.0264  0.0311  1.3376
  132OSM   H13T14264   0.789   1.370   7.740 -0.1785  0.7695  0.4565
  132OSM   C14S14265   0.664   1.390   7.917  0.2801 -0.0236 -0.3113
  132OSM   H14S14266   0.739   1.341   7.983 -0.3254  1.0865  1.2778
  132OSM   H14T14267   0.570   1.349   7.958  0.8615  0.1440  1.2716
  132OSM   C15S14268   0.667   1.538   7.970  0.3420 -0.1880 -0.1723
  132OSM   H15S14269   0.585   1.591   7.917 -0.1741  1.2931  1.9824
  132OSM   H15T14270   0.764   1.586   7.944  1.1498 -2.6779 -2.1589
  132OSM   C16S14271   0.628   1.537   8.118 -0.6442  0.1605  0.1567
  132OSM   H16S14272   0.706   1.471   8.162 -0.4083  1.1567  1.3115
  132OSM   H16T14273   0.536   1.482   8.145 -0.5885 -0.3610 -0.6847
  132OSM   C17S14274   0.639   1.674   8.191  0.0229 -0.6996  0.3189
  132OSM   H17S14275   0.563   1.743   8.150  2.9644  2.7686  0.2406
  132OSM   H17T14276   0.739   1.709   8.158 -0.6168  0.4129 -0.4990
  132OSM   C18S14277   0.617   1.684   8.343 -0.0181  0.0628 -0.3919
  132OSM   H18S14278   0.599   1.786   8.384 -2.1347  0.2216 -1.5880
  132OSM   H18T14279   0.705   1.641   8.395 -0.7974 -1.6437 -0.4055
  132OSM   H18U14280   0.529   1.620   8.366 -0.4711  1.2768  1.4490
  132OSM    C1F14281   0.679   0.760   6.865 -0.2969  0.5322 -0.3903
  132OSM     OF14282   0.789   0.767   6.812 -0.0583  0.8362  0.3812
  132OSM    C2F14283   0.660   0.703   7.004 -0.5109  0.0698 -0.2120
  132OSM    H2F14284   0.728   0.615   7.004 -0.7872 -0.1702 -1.8692
  132OSM    H2G14285   0.560   0.658   7.015 -0.5407  0.6398  2.6009
  132OSM    C3F14286   0.697   0.801   7.116 -0.6104  0.4698 -0.4676
  132OSM    H3F14287   0.626   0.886   7.111 -2.2894 -0.6259  2.4383
  132OSM    H3G14288   0.803   0.833   7.100 -1.0321  1.2259 -2.0132
  132OSM    C4F14289   0.682   0.729   7.255  0.4148  0.4173  0.4914
  132OSM    H4F14290   0.720   0.625   7.242  0.8372  0.8681 -2.5873
  132OSM    H4G14291   0.573   0.729   7.276 -0.1386 -1.5777 -1.9401
  132OSM    C5F14292   0.754   0.799   7.364 -0.2795 -0.0923 -0.0482
  132OSM    H5F14293   0.739   0.909   7.367  0.9960  0.0687  1.9010
  132OSM    H5G14294   0.865   0.788   7.357 -0.4586 -0.8222 -2.5230
  132OSM    C6F14295   0.715   0.746   7.507 -0.3619  0.0705 -0.2405
  132OSM    H6F14296   0.736   0.637   7.509  2.8793  0.5976  1.0097
  132OSM    H6G14297   0.606   0.766   7.513 -0.2057  0.9010 -0.1140
  132OSM    C7F14298   0.784   0.827   7.617  0.1426  0.6007 -0.3349
  132OSM    H7F14299   0.786   0.935   7.594  0.2187  0.5553 -0.5440
  132OSM    H7G14300   0.890   0.793   7.615  0.1912  0.7579 -2.5514
  132OSM    C8F14301   0.736   0.786   7.758 -0.2552  0.1514 -0.6022
  132OSM    H8F14302   0.775   0.685   7.783  2.1279  0.7430 -1.6471
  132OSM    H8G14303   0.626   0.804   7.759 -0.4131 -0.7037  0.9356
  132OSM    C9F14304   0.783   0.881   7.859 -0.3437 -0.0947 -0.3513
  132OSM    H9F14305   0.798   0.985   7.827  0.5803 -0.8084 -2.4275
  132OSM   C10F14306   0.797   0.858   7.991 -0.1929  0.2985 -0.1123
  132OSM   H10F14307   0.837   0.935   8.060 -0.5312  0.0183  0.4037
  132OSM   C11F14308   0.771   0.730   8.066  0.1292 -0.6467  0.2348
  132OSM   H11F14309   0.692   0.676   8.010 -0.3300 -0.3826  0.6177
  132OSM   H11G14310   0.732   0.744   8.169 -2.1431  0.4315 -0.7030
  132OSM   C12F14311   0.898   0.638   8.080  0.0925  0.3010 -0.0890
  132OSM   H12F14312   0.925   0.592   7.983  0.1649  0.4872 -0.1574
  132OSM   H12G14313   0.859   0.552   8.140 -0.7406 -0.2514 -1.3818
  132OSM   C13F14314   1.028   0.704   8.138  0.6709 -0.6328 -0.3136
  132OSM   H13F14315   1.074   0.762   8.054 -0.5518 -1.0195 -1.2837
  132OSM   H13G14316   1.107   0.626   8.147  2.4363  0.7909 -2.2384
  132OSM   C14F14317   1.003   0.785   8.266 -0.1758  0.1164 -0.3123
  132OSM   H14F14318   0.936   0.731   8.336 -2.1434  2.3695 -0.3152
  132OSM   H14G14319   0.962   0.880   8.227  2.1226  0.6425 -1.6247
  132OSM   C15F14320   1.129   0.810   8.349 -0.3393 -0.5138 -0.8842
  132OSM   H15F14321   1.203   0.863   8.284  0.8403  0.4657  1.1528
  132OSM   H15G14322   1.185   0.720   8.382  2.7519  1.0999 -1.3320
  132OSM   C16F14323   1.086   0.899   8.470  0.2647 -0.3173  0.3364
  132OSM   H16F14324   1.039   0.836   8.548 -1.5208  0.0656 -0.3992
  132OSM   H16G14325   1.021   0.984   8.440  0.0686 -0.4824  0.2937
  132OSM   C17F14326   1.195   0.966   8.540 -0.3262 -0.3874  0.0564
  132OSM   H17F14327   1.151   1.050   8.599  0.7285 -0.6011  1.1687
  132OSM   H17G14328   1.275   1.015   8.481 -0.5128 -1.3455 -1.0225
  132OSM   C18F14329   1.269   0.876   8.647  0.0365 -0.4937  0.6148
  132OSM   H18F14330   1.338   0.804   8.597 -2.2704 -2.8807  0.6689
  132OSM   H18G14331   1.201   0.825   8.718  0.4576 -0.7933  0.8112
  132OSM   H18H14332   1.337   0.943   8.704  1.5805 -1.5643  0.1125
  133OSM      N14333   1.366   1.135   5.882 -0.3804  0.4732 -0.3962
  133OSM    C1514334   1.239   1.067   5.850 -0.0069  0.5233  0.3988
  133OSM   H15A14335   1.159   1.127   5.809 -1.9667 -2.4022 -0.3768
  133OSM   H15B14336   1.188   1.019   5.933  2.6904 -1.3446  1.0921
  133OSM   H15C14337   1.249   0.985   5.781  0.4046  2.0589 -1.4493
  133OSM    C1414338   1.451   1.027   5.928 -0.0885 -0.4033 -0.3178
  133OSM   H14A14339   1.410   0.983   6.017 -1.2740 -0.4123 -0.8504
  133OSM   H14B14340   1.547   1.067   5.958  0.5473 -0.6941 -1.8753
  133OSM   H14C14341   1.459   0.945   5.859 -1.9482 -0.0478 -1.0202
  133OSM    C1314342   1.416   1.194   5.752  0.1869  0.5715  0.3037
  133OSM   H13A14343   1.413   1.118   5.676 -3.0368 -0.1280  0.9706
  133OSM   H13B14344   1.514   1.235   5.773 -0.3977  3.2252 -1.5376
  133OSM   H13C14345   1.341   1.264   5.718 -0.6722  0.3504  1.6562
  133OSM    C1214346   1.357   1.244   5.985  0.4548 -0.1569 -0.2791
  133OSM   H12A14347   1.290   1.323   5.951  1.6507  1.5846  1.2342
  133OSM   H12B14348   1.452   1.294   5.984  0.3787 -0.0114 -0.4770
  133OSM    C1114349   1.317   1.199   6.137  0.2251 -0.0391  0.0878
  133OSM   H11A14350   1.215   1.154   6.131  0.2806 -0.3088  0.9943
  133OSM   H11B14351   1.311   1.296   6.191 -1.3525 -0.3307  0.4962
  133OSM      P14352   1.543   1.141   6.265  0.6442 -0.2462  0.1477
  133OSM    O1314353   1.614   1.016   6.308  0.1296  0.7175  0.0438
  133OSM    O1414354   1.618   1.236   6.178  0.6762 -0.3881 -0.5044
  133OSM    O1114355   1.478   1.207   6.395 -0.0829 -0.3606  0.3484
  133OSM    O1214356   1.413   1.100   6.190  0.2363  0.0093 -0.0187
  133OSM    C1S14357   1.405   1.127   6.488  0.1321 -0.4890 -0.4543
  133OSM    H1S14358   1.371   1.029   6.447 -2.2335  0.1574 -0.2119
  133OSM    H1T14359   1.312   1.178   6.522  0.0678  0.2271 -1.6405
  133OSM     NF14360   1.405   0.997   6.700  0.0806  0.5114 -0.3236
  133OSM    HNF14361   1.353   1.044   6.770 -0.6441  1.0732 -1.2187
  133OSM    C2S14362   1.490   1.086   6.616 -0.1176  0.3313 -0.1870
  133OSM    H2S14363   1.579   1.029   6.581  0.1103  1.3514 -1.3171
  133OSM    C3S14364   1.544   1.216   6.685  0.1350  0.0006  0.4940
  133OSM    H3S14365   1.459   1.276   6.725  1.5387  2.7357 -0.3731
  133OSM     O314366   1.605   1.306   6.598  0.6154  0.0040  0.4912
  133OSM    HO314367   1.586   1.274   6.510  1.3542 -0.9595  0.6679
  133OSM    C4S14368   1.636   1.183   6.800  0.6106  0.0138 -0.2944
  133OSM    H4S14369   1.734   1.151   6.762 -0.2882 -3.2140 -0.1757
  133OSM    C5S14370   1.615   1.205   6.931 -0.9990  0.2772  0.4366
  133OSM    H5S14371   1.530   1.266   6.964 -1.9978 -0.1175 -1.3048
  133OSM    C6S14372   1.724   1.175   7.034  0.0515 -1.2051  0.4336
  133OSM    H6S14373   1.754   1.272   7.079  1.6236 -2.0749  1.3621
  133OSM    H6T14374   1.811   1.140   6.975  0.6826 -0.0857  0.6786
  133OSM    C7S14375   1.706   1.084   7.153 -0.0290  0.5612  0.0581
  133OSM    H7S14376   1.675   0.987   7.110  2.2370 -1.0294  1.8046
  133OSM    H7T14377   1.626   1.124   7.219 -1.3788 -1.8715  0.0158
  133OSM    C8S14378   1.841   1.060   7.227  0.0865  0.2837  0.3570
  133OSM    H8S14379   1.881   1.162   7.244 -0.8547  0.6612  0.3841
  133OSM    H8T14380   1.910   0.998   7.166 -0.3627 -0.2179  0.3540
  133OSM    C9S14381   1.813   0.995   7.362 -0.9640  0.2108  0.3846
  133OSM    H9S14382   1.897   0.936   7.403 -1.8759 -1.4347 -0.0381
  133OSM    H9T14383   1.730   0.922   7.349 -3.2309  2.9909 -2.7361
  133OSM   C10S14384   1.768   1.094   7.466  0.4807 -0.4971  0.0214
  133OSM   H10S14385   1.667   1.135   7.443  0.4900 -0.7948 -0.5586
  133OSM   H10T14386   1.833   1.183   7.474 -0.2129 -0.0792  1.6150
  133OSM   C11S14387   1.748   1.038   7.606 -0.2415  0.2173 -0.4582
  133OSM   H11S14388   1.836   0.995   7.659 -1.1553  0.2012  1.1005
  133OSM   H11T14389   1.673   0.956   7.602 -2.1008  1.8806 -1.4723
  133OSM   C12S14390   1.699   1.156   7.693 -0.1451  0.1772  0.3398
  133OSM   H12S14391   1.605   1.193   7.647 -1.9351 -2.6768  1.3972
  133OSM   H12T14392   1.763   1.247   7.698  1.6007 -0.9976  0.2922
  133OSM   C13S14393   1.659   1.113   7.833 -0.2553 -0.3239 -0.1320
  133OSM   H13S14394   1.749   1.076   7.888 -1.1462 -1.0864  0.8609
  133OSM   H13T14395   1.603   1.017   7.835 -1.3235  0.2995  1.2671
  133OSM   C14S14396   1.600   1.220   7.931 -0.0082  0.0271  1.1608
  133OSM   H14S14397   1.512   1.262   7.878  2.6058  3.3735 -0.9716
  133OSM   H14T14398   1.677   1.301   7.932  0.0899 -0.0177 -0.4770
  133OSM   C15S14399   1.581   1.167   8.070  0.4967  0.0211 -0.8561
  133OSM   H15S14400   1.665   1.117   8.121 -0.4578 -0.2513  0.5057
  133OSM   H15T14401   1.499   1.092   8.065  0.6632 -0.2651  0.3172
  133OSM   C16S14402   1.548   1.289   8.159 -0.3351  0.2918 -0.1425
  133OSM   H16S14403   1.460   1.337   8.112  0.5448 -1.0967 -3.5620
  133OSM   H16T14404   1.615   1.374   8.134 -1.6721  1.0825 -1.1630
  133OSM   C17S14405   1.539   1.264   8.307  0.3729 -0.0840 -0.1959
  133OSM   H17S14406   1.630   1.212   8.343  0.1689  1.0048  2.0617
  133OSM   H17T14407   1.446   1.208   8.333  0.4396  0.8824  2.5334
  133OSM   C18S14408   1.538   1.392   8.388  0.3748 -0.4645 -0.2648
  133OSM   H18S14409   1.635   1.445   8.389  0.6232 -0.9024 -0.6301
  133OSM   H18T14410   1.520   1.373   8.496 -3.3603 -0.2006 -0.6887
  133OSM   H18U14411   1.463   1.461   8.343  0.4434  0.6546  1.2531
  133OSM    C1F14412   1.367   0.872   6.666 -0.5787 -0.9992 -0.3377
  133OSM     OF14413   1.401   0.820   6.558 -0.0831 -0.3306 -0.1007
  133OSM    C2F14414   1.267   0.807   6.766  0.1872  0.2481 -0.2267
  133OSM    H2F14415   1.250   0.702   6.735 -1.3177  0.2812  0.4022
  133OSM    H2G14416   1.175   0.868   6.752  1.1423  2.0126  0.7295
  133OSM    C3F14417   1.305   0.831   6.915 -0.7228  0.5912 -0.3465
  133OSM    H3F14418   1.209   0.807   6.966 -1.6312 -0.0143 -2.2292
  133OSM    H3G14419   1.321   0.939   6.935 -0.5076  0.5143 -0.1000
  133OSM    C4F14420   1.424   0.749   6.970 -0.0186 -0.3253 -0.0385
  133OSM    H4F14421   1.526   0.773   6.933  1.2744 -2.3990  1.9102
  133OSM    H4G14422   1.411   0.640   6.953  0.4498 -0.4541  0.4076
  133OSM    C5F14423   1.432   0.759   7.125 -0.5524 -0.2995 -0.4692
  133OSM    H5F14424   1.331   0.761   7.171 -0.6420 -1.0193 -0.6146
  133OSM    H5G14425   1.500   0.841   7.157  0.8624 -1.2242 -0.9882
  133OSM    C6F14426   1.506   0.641   7.191 -0.0516  0.0341  0.4933
  133OSM    H6F14427   1.600   0.623   7.135  1.0302  2.6103  1.3577
  133OSM    H6G14428   1.450   0.547   7.173  0.4989 -0.5661  1.7845
  133OSM    C7F14429   1.529   0.653   7.341  0.0566 -0.2817 -0.4992
  133OSM    H7F14430   1.438   0.691   7.392  0.4113 -1.0762  0.7589
  133OSM    H7G14431   1.608   0.729   7.359 -0.6884  0.9351 -2.0303
  133OSM    C8F14432   1.567   0.529   7.409 -0.2395  0.0695 -0.2439
  133OSM    H8F14433   1.528   0.438   7.357 -0.6202  0.1026 -0.0217
  133OSM    H8G14434   1.523   0.529   7.511  1.1786  1.5888  0.4020
  133OSM    C9F14435   1.713   0.490   7.423  0.1297 -0.1090 -1.0993
  133OSM    H9F14436   1.757   0.411   7.360 -2.1140 -1.1689 -1.4251
  133OSM   C10F14437   1.802   0.545   7.512 -0.4233  0.5767  0.8908
  133OSM   H10F14438   1.903   0.513   7.482  0.2971  2.4584  1.1913
  133OSM   C11F14439   1.768   0.665   7.597  0.6278 -0.0374 -0.5277
  133OSM   H11F14440   1.672   0.713   7.569 -0.4300 -2.0228 -0.5123
  133OSM   H11G14441   1.847   0.742   7.593  0.9426 -0.3177  0.0917
  133OSM   C12F14442   1.771   0.612   7.744 -0.2254  0.1144  0.2747
  133OSM   H12F14443   1.878   0.600   7.773 -0.1175 -0.8581 -0.4678
  133OSM   H12G14444   1.734   0.508   7.751  1.7416 -0.5879  0.8345
  133OSM   C13F14445   1.705   0.714   7.843 -0.0911 -0.2056 -0.0087
  133OSM   H13F14446   1.603   0.740   7.808  0.3916  1.7706 -0.0655
  133OSM   H13G14447   1.766   0.807   7.842 -1.1113  0.4760 -0.7915
  133OSM   C14F14448   1.687   0.665   7.983  0.1274 -0.2500 -0.8230
  133OSM   H14F14449   1.786   0.627   8.016 -0.4628 -2.1359 -1.1226
  133OSM   H14G14450   1.613   0.582   7.986  1.5245 -1.5455  1.6757
  133OSM   C15F14451   1.627   0.774   8.074  0.0875  0.1638 -0.5890
  133OSM   H15F14452   1.521   0.787   8.044  0.2864 -0.9421 -1.8764
  133OSM   H15G14453   1.685   0.867   8.062 -0.3163  1.0840  3.1682
  133OSM   C16F14454   1.643   0.735   8.217  0.3607  0.0002 -0.1318
  133OSM   H16F14455   1.747   0.700   8.230  0.3107 -0.2582 -0.4246
  133OSM   H16G14456   1.571   0.652   8.239 -1.1782  1.4905  0.7390
  133OSM   C17F14457   1.626   0.845   8.322  0.0885 -0.6217  0.5060
  133OSM   H17F14458   1.523   0.887   8.324  0.2774  0.0897 -1.8300
  133OSM   H17G14459   1.695   0.930   8.303 -1.2641  0.5088  0.4665
  133OSM   C18F14460   1.652   0.800   8.470  0.7939  0.2231  0.7121
  133OSM   H18F14461   1.624   0.888   8.532 -0.5079 -0.2780  0.8712
  133OSM   H18G14462   1.756   0.764   8.483  0.7650 -0.9144 -1.7261
  133OSM   H18H14463   1.581   0.718   8.495  1.3710 -0.8766 -1.0496
  134OSM      N14464   2.521   1.978   6.032 -0.2804 -0.2955  0.0670
  134OSM    C1514465   2.411   1.958   5.935 -0.9534 -1.2868  0.4146
  134OSM   H15A14466   2.328   2.026   5.951 -0.0708 -0.2416  0.7149
  134OSM   H15B14467   2.376   1.856   5.940 -0.4844 -1.3885  2.1644
  134OSM   H15C14468   2.457   1.986   5.841 -0.6428  1.5855  1.3318
  134OSM    C1414469   2.635   1.887   6.012  0.5307 -0.1568  0.3917
  134OSM   H14A14470   2.605   1.788   6.045 -0.3566  0.7530  2.4849
  134OSM   H14B14471   2.716   1.916   6.076  0.3797 -2.6101  1.8501
  134OSM   H14C14472   2.668   1.888   5.909 -1.1680 -0.7580 -0.2110
  134OSM    C1314473   2.559   2.121   6.029 -0.6277  0.1744  0.3691
  134OSM   H13A14474   2.626   2.155   5.951  1.3217  2.0966  2.7104
  134OSM   H13B14475   2.614   2.143   6.119  0.5336 -0.1605 -0.2421
  134OSM   H13C14476   2.474   2.188   6.036  0.3785  1.3281  2.3713
  134OSM    C1214477   2.461   1.948   6.174 -0.1460  0.7217 -0.3597
  134OSM   H12A14478   2.415   1.851   6.161 -0.5687  0.9373 -0.5165
  134OSM   H12B14479   2.385   2.023   6.191 -0.8817 -0.0210 -0.3152
  134OSM    C1114480   2.564   1.943   6.291  0.0830 -0.0031 -0.1986
  134OSM   H11A14481   2.660   1.894   6.265  1.2253  1.6796  0.6443
  134OSM   H11B14482   2.524   1.883   6.375  0.2210  0.4398  0.1893
  134OSM      P14483   2.506   2.169   6.397 -0.1130 -0.1456 -0.3409
  134OSM    O1314484   2.566   2.302   6.411 -0.4836 -0.1767  0.0316
  134OSM    O1414485   2.374   2.162   6.332  0.0261  0.3289  0.2122
  134OSM    O1114486   2.506   2.099   6.540  0.1836  0.1477 -0.6482
  134OSM    O1214487   2.603   2.073   6.326  0.0572  0.2768  0.0375
  134OSM    C1S14488   2.559   2.177   6.648  0.3220  0.4028 -0.9786
  134OSM    H1S14489   2.491   2.262   6.670  0.7607  1.0054 -1.8849
  134OSM    H1T14490   2.658   2.222   6.626  1.3264 -1.1404  0.2101
  134OSM     NF14491   2.656   2.180   6.866  0.1148 -0.5376 -0.2415
  134OSM    HNF14492   2.750   2.166   6.895 -0.6135 -3.4068  1.1039
  134OSM    C2S14493   2.594   2.091   6.773  0.3360  0.3623 -0.1878
  134OSM    H2S14494   2.500   2.052   6.819 -0.0331  1.0282 -0.3650
  134OSM    C3S14495   2.686   1.974   6.752  0.4160 -0.2283  0.7591
  134OSM    H3S14496   2.789   2.013   6.736  1.1645 -1.5769  2.0599
  134OSM     O314497   2.639   1.895   6.638 -0.5620 -0.6968  0.3795
  134OSM    HO314498   2.590   1.955   6.581 -0.2358 -3.2088 -2.8536
  134OSM    C4S14499   2.709   1.888   6.873  0.5161  0.0753  0.0061
  134OSM    H4S14500   2.804   1.913   6.923  0.5576  1.9970 -0.9415
  134OSM    C5S14501   2.644   1.772   6.912  0.7818  0.0391  0.1774
  134OSM    H5S14502   2.564   1.735   6.846  1.3794 -2.1850  0.6043
  134OSM    C6S14503   2.675   1.690   7.036  0.2147 -0.3143 -0.1860
  134OSM    H6S14504   2.783   1.706   7.056 -0.0602  0.9898  0.3549
  134OSM    H6T14505   2.660   1.583   7.010  1.3056 -0.6717  0.5957
  134OSM    C7S14506   2.613   1.739   7.171  0.0943 -0.5409 -0.1629
  134OSM    H7S14507   2.503   1.728   7.169  0.0714 -0.2870 -0.6439
  134OSM    H7T14508   2.637   1.847   7.183  1.2335 -0.7220 -0.6299
  134OSM    C8S14509   2.678   1.654   7.283  1.1132  0.1839  0.1212
  134OSM    H8S14510   2.780   1.695   7.299  0.8764  0.5105  0.8468
  134OSM    H8T14511   2.693   1.547   7.257  0.4449  0.5700 -2.1232
  134OSM    C9S14512   2.598   1.649   7.416  0.1981 -0.1112 -0.1057
  134OSM    H9S14513   2.508   1.584   7.409  0.4283 -0.5037  0.4536
  134OSM    H9T14514   2.571   1.756   7.430  0.4529 -0.1311  0.6003
  134OSM   C10S14515   2.683   1.595   7.535 -0.0802  0.4571  0.9260
  134OSM   H10S14516   2.781   1.642   7.510 -0.3191 -0.8372 -3.1567
  134OSM   H10T14517   2.676   1.486   7.516  0.8760  0.2718  1.5825
  134OSM   C11S14518   2.617   1.612   7.671  0.8800 -1.2511 -0.1204
  134OSM   H11S14519   2.519   1.559   7.672  0.5188 -0.6157 -0.5827
  134OSM   H11T14520   2.573   1.714   7.674  2.0626 -0.6839 -1.1466
  134OSM   C12S14521   2.705   1.576   7.793  0.4818 -0.2390 -0.0181
  134OSM   H12S14522   2.773   1.660   7.821 -1.6243  1.5731 -0.0601
  134OSM   H12T14523   2.776   1.492   7.777  1.0363  0.2744 -0.2744
  134OSM   C13S14524   2.620   1.545   7.920 -0.5643 -0.0214  0.3844
  134OSM   H13S14525   2.541   1.475   7.886 -0.5061  0.8378 -1.7112
  134OSM   H13T14526   2.556   1.635   7.934 -0.4842  0.1996 -0.5722
  134OSM   C14S14527   2.698   1.513   8.046  0.5420  0.1897  0.7780
  134OSM   H14S14528   2.732   1.609   8.090 -2.2937  1.6946 -0.0391
  134OSM   H14T14529   2.789   1.457   8.017 -0.6492 -0.2638 -2.5777
  134OSM   C15S14530   2.610   1.451   8.159 -0.0656 -0.7784  0.3313
  134OSM   H15S14531   2.582   1.348   8.126  0.4921 -1.8363  2.9151
  134OSM   H15T14532   2.521   1.515   8.170  0.2142 -0.0969 -1.1561
  134OSM   C16S14533   2.671   1.430   8.300 -0.7774  0.2083  0.2446
  134OSM   H16S14534   2.752   1.354   8.293 -0.7102  0.0119  2.5564
  134OSM   H16T14535   2.600   1.372   8.363  0.4039 -2.9094 -1.0721
  134OSM   C17S14536   2.710   1.560   8.367  0.0199  1.0378  0.0082
  134OSM   H17S14537   2.612   1.612   8.379 -1.8362 -2.4045  1.2365
  134OSM   H17T14538   2.775   1.617   8.297  1.8130 -0.0503  0.7036
  134OSM   C18S14539   2.786   1.535   8.493 -0.4402 -0.1284  0.0937
  134OSM   H18S14540   2.717   1.492   8.568 -2.0265 -1.1402 -1.8329
  134OSM   H18T14541   2.821   1.628   8.544  1.4374 -0.1444 -1.0848
  134OSM   H18U14542   2.871   1.466   8.475 -0.4176  0.1072 -0.7355
  134OSM    C1F14543   2.591   2.280   6.934 -0.3528 -0.4328  0.1969
  134OSM     OF14544   2.471   2.297   6.915  0.1223 -0.5983 -0.0075
  134OSM    C2F14545   2.664   2.347   7.052  0.4960  0.2920  0.1147
  134OSM    H2F14546   2.731   2.432   7.029 -0.2335  0.9225  0.3016
  134OSM    H2G14547   2.729   2.264   7.088 -0.1019 -1.3472 -2.2710
  134OSM    C3F14548   2.567   2.378   7.174 -0.1809 -0.5493 -0.3087
  134OSM    H3F14549   2.510   2.286   7.201 -2.1004  1.0318  1.3254
  134OSM    H3G14550   2.494   2.455   7.141  0.5004 -0.7380 -2.4164
  134OSM    C4F14551   2.653   2.423   7.292 -0.0478  0.2557 -0.6794
  134OSM    H4F14552   2.702   2.521   7.275 -1.2678  0.6230 -2.3284
  134OSM    H4G14553   2.727   2.346   7.321  0.4640  0.4368 -1.4830
  134OSM    C5F14554   2.549   2.429   7.403  0.3545 -0.4139 -0.6417
  134OSM    H5F14555   2.523   2.328   7.440  0.1883  0.4606  1.8753
  134OSM    H5G14556   2.460   2.483   7.363  1.1513  0.4759 -1.2511
  134OSM    C6F14557   2.592   2.515   7.524 -0.3215 -0.0261 -0.7249
  134OSM    H6F14558   2.666   2.589   7.488 -1.2093  0.7885 -0.9298
  134OSM    H6G14559   2.634   2.453   7.606 -0.2217  0.8273 -0.1131
  134OSM    C7F14560   2.474   2.589   7.586  0.1577  1.0750  0.3173
  134OSM    H7F14561   2.380   2.531   7.574  1.9788 -1.9016 -0.6526
  134OSM    H7G14562   2.464   2.681   7.525  2.6590  0.6757 -0.8073
  134OSM    C8F14563   2.485   2.625   7.739 -0.1970 -0.1579  0.7384
  134OSM    H8F14564   2.494   2.532   7.799 -2.6216 -1.1184 -0.2197
  134OSM    H8G14565   2.386   2.666   7.767 -0.4788  0.4575 -1.0040
  134OSM    C9F14566   2.593   2.728   7.769  0.3074 -0.5021  0.5571
  134OSM    H9F14567   2.571   2.828   7.730  2.0512 -0.3266 -0.0720
  134OSM   C10F14568   2.706   2.709   7.829 -1.1472  0.6524  0.4947
  134OSM   H10F14569   2.768   2.795   7.857  0.0979 -0.5051  1.3980
  134OSM   C11F14570   2.753   2.574   7.871  0.5728  1.0151 -0.1828
  134OSM   H11F14571   2.741   2.497   7.792 -3.4810  1.6354 -0.3854
  134OSM   H11G14572   2.691   2.534   7.954 -2.1965  1.9135 -1.6943
  134OSM   C12F14573   2.911   2.575   7.902  0.5721  0.4697 -0.0243
  134OSM   H12F14574   2.965   2.622   7.817  2.0557 -1.0397  0.0326
  134OSM   H12G14575   2.955   2.473   7.907  0.0289  0.1654 -1.0911
  134OSM   C13F14576   2.960   2.648   8.034 -0.6753  0.0733 -0.2066
  134OSM   H13F14577   2.903   2.593   8.111 -0.5495 -0.0456 -0.1997
  134OSM   H13G14578   2.920   2.752   8.033 -0.5460  0.1223 -0.2310
  134OSM   C14F14579   3.108   2.640   8.055  0.2681 -0.0350  0.3345
  134OSM   H14F14580   3.153   2.681   7.962  0.4376  1.8672  1.1997
  134OSM   H14G14581   3.143   2.535   8.053  0.6042  0.0299  1.6462
  134OSM   C15F14582   3.151   2.690   8.194  1.0616 -0.5756  0.1988
  134OSM   H15F14583   3.083   2.649   8.272 -1.0781  1.1545 -0.6323
  134OSM   H15G14584   3.127   2.799   8.200 -0.0013 -0.7904 -0.0008
  134OSM   C16F14585   3.300   2.654   8.230 -0.5194 -0.3953  0.1765
  134OSM   H16F14586   3.365   2.670   8.141  0.2789  4.4225  1.3168
  134OSM   H16G14587   3.290   2.548   8.260 -0.2523 -0.6521 -0.6183
  134OSM   C17F14588   3.358   2.716   8.350  0.3910  0.2458 -0.2445
  134OSM   H17F14589   3.289   2.731   8.435  0.3856  1.3264 -0.4273
  134OSM   H17G14590   3.369   2.819   8.309 -1.0696  0.1533 -0.9503
  134OSM   C18F14591   3.496   2.662   8.402 -0.2781  0.5079  0.4992
  134OSM   H18F14592   3.461   2.566   8.445 -2.8327  1.1717  0.0917
  134OSM   H18G14593   3.532   2.729   8.483  0.4796  0.1089  0.4978
  134OSM   H18H14594   3.575   2.663   8.323 -1.3267 -1.2131 -0.6431
  135OSM      N14595   1.868   1.748   6.460 -0.0885  0.5241  0.5742
  135OSM    C1514596   1.988   1.676   6.419 -0.5053  0.1072 -0.0315
  135OSM   H15A14597   1.970   1.617   6.331  0.1432  0.7657 -0.6120
  135OSM   H15B14598   2.019   1.615   6.502 -1.5593  3.0040  2.7350
  135OSM   H15C14599   2.074   1.739   6.402 -0.7917  0.9923  1.5588
  135OSM    C1414600   1.803   1.817   6.345  0.5399  0.3705  0.1862
  135OSM   H14A14601   1.704   1.852   6.370  0.2840  1.0444 -1.6109
  135OSM   H14B14602   1.795   1.745   6.265  1.7399  0.8474 -0.3886
  135OSM   H14C14603   1.876   1.888   6.309  3.5090 -3.3784 -2.0214
  135OSM    C1314604   1.768   1.647   6.512 -0.2298 -0.3462 -0.6827
  135OSM   H13A14605   1.671   1.688   6.539 -0.4268 -0.6679 -0.8938
  135OSM   H13B14606   1.810   1.596   6.597  3.3531  2.3363 -0.6258
  135OSM   H13C14607   1.748   1.574   6.435  1.6130 -1.1687 -0.4294
  135OSM    C1214608   1.914   1.847   6.575  0.0972  0.5666  0.4476
  135OSM   H12A14609   1.940   1.789   6.662 -2.2439  0.4272  1.1271
  135OSM   H12B14610   1.834   1.916   6.598  0.3453  0.2708  2.3510
  135OSM    C1114611   2.032   1.946   6.558 -0.1101 -0.2819  0.3754
  135OSM   H11A14612   2.119   1.882   6.532  1.2632  0.4743  2.7622
  135OSM   H11B14613   2.057   1.985   6.659  1.0937  1.2895 -0.4727
  135OSM      P14614   1.902   2.168   6.490 -0.6503 -0.0546 -0.1874
  135OSM    O1314615   1.909   2.255   6.371 -0.0164  0.2858  0.3805
  135OSM    O1414616   1.779   2.111   6.542  0.5691  0.3297  1.1292
  135OSM    O1114617   1.971   2.243   6.605  0.3883  0.4754 -0.3332
  135OSM    O1214618   1.996   2.042   6.464 -0.1774 -0.1055 -0.1873
  135OSM    C1S14619   2.107   2.284   6.609  0.4419 -0.1961 -0.2983
  135OSM    H1S14620   2.129   2.340   6.515  0.3715 -3.0656 -2.1412
  135OSM    H1T14621   2.178   2.199   6.607  0.9492  0.2323 -1.3883
  135OSM     NF14622   2.277   2.406   6.729  0.4245 -0.8228 -0.4580
  135OSM    HNF14623   2.347   2.374   6.791  1.0776  1.0463 -0.1712
  135OSM    C2S14624   2.138   2.356   6.743 -0.1405  0.3286 -0.2294
  135OSM    H2S14625   2.068   2.442   6.757  0.6950  0.9413  0.2525
  135OSM    C3S14626   2.111   2.251   6.855  0.5798  0.0102  0.1252
  135OSM    H3S14627   2.171   2.164   6.823  0.4404  0.1927 -0.6566
  135OSM     O314628   1.976   2.202   6.871 -0.2060  0.0030  0.4183
  135OSM    HO314629   1.941   2.228   6.786  3.2025 -0.9970 -1.4745
  135OSM    C4S14630   2.163   2.309   6.980  0.5202 -0.8117 -0.0575
  135OSM    H4S14631   2.256   2.267   7.021 -0.7616 -1.4643  2.3782
  135OSM    C5S14632   2.098   2.399   7.056  0.3652  0.3512  0.1057
  135OSM    H5S14633   1.999   2.428   7.018 -0.3809 -0.9152  1.0098
  135OSM    C6S14634   2.155   2.459   7.187 -0.2926 -0.1761 -0.1740
  135OSM    H6S14635   2.149   2.569   7.191 -0.0572 -0.1953  1.0656
  135OSM    H6T14636   2.262   2.440   7.210  0.2239  0.3445 -2.0314
  135OSM    C7S14637   2.068   2.408   7.307  0.0898  0.3103 -0.3953
  135OSM    H7S14638   2.103   2.304   7.325 -0.0648  0.3909  0.3905
  135OSM    H7T14639   1.960   2.394   7.283 -1.0295  2.6229  2.6688
  135OSM    C8S14640   2.077   2.489   7.442  0.1773  0.3828  0.7313
  135OSM    H8S14641   2.045   2.594   7.423 -1.1057 -0.3013 -1.2391
  135OSM    H8T14642   2.185   2.497   7.469 -0.1293  2.7275  1.4820
  135OSM    C9S14643   2.008   2.435   7.565  0.3450  0.5121 -0.2883
  135OSM    H9S14644   2.050   2.338   7.598 -0.2765 -0.0285 -1.0483
  135OSM    H9T14645   1.901   2.436   7.536  0.4797  4.0436 -1.1482
  135OSM   C10S14646   2.037   2.518   7.695 -0.4171 -0.2092  0.5666
  135OSM   H10S14647   2.018   2.626   7.678  1.8474  0.4466  1.7963
  135OSM   H10T14648   2.142   2.504   7.729  0.5823  0.4776 -1.9611
  135OSM   C11S14649   1.945   2.476   7.810 -0.5697  0.2558  0.1326
  135OSM   H11S14650   1.972   2.373   7.844 -0.8693  0.4760  1.0609
  135OSM   H11T14651   1.841   2.466   7.772  0.0464 -2.0137 -1.1405
  135OSM   C12S14652   1.943   2.567   7.929  0.6208 -0.2281 -0.2291
  135OSM   H12S14653   1.923   2.674   7.907  0.4138 -0.0280  0.8989
  135OSM   H12T14654   2.038   2.552   7.985 -0.0279 -2.0950  0.4223
  135OSM   C13S14655   1.836   2.499   8.023  0.2693 -0.2418 -0.0829
  135OSM   H13S14656   1.863   2.391   8.024  0.2080 -0.3412 -2.3342
  135OSM   H13T14657   1.735   2.517   7.981  0.3379  1.3186  0.3638
  135OSM   C14S14658   1.824   2.560   8.172 -0.9108  0.4359  0.4069
  135OSM   H14S14659   1.722   2.549   8.215 -0.3209 -1.5059  1.4093
  135OSM   H14T14660   1.861   2.664   8.163  0.2542 -0.0325 -0.6039
  135OSM   C15S14661   1.932   2.498   8.267  0.5656  0.3032 -0.0885
  135OSM   H15S14662   2.014   2.448   8.212 -0.5913 -1.5433 -0.2428
  135OSM   H15T14663   1.878   2.427   8.334 -0.1303  0.7907 -0.1194
  135OSM   C16S14664   2.006   2.599   8.360  0.3381 -0.3161  0.6172
  135OSM   H16S14665   2.054   2.676   8.296 -1.2300  1.2522  1.2310
  135OSM   H16T14666   2.080   2.537   8.415  0.1052 -0.6564  0.5448
  135OSM   C17S14667   1.912   2.679   8.453 -0.3842  0.2888 -0.9365
  135OSM   H17S14668   1.867   2.605   8.521 -0.4063  1.6196  0.5466
  135OSM   H17T14669   1.828   2.720   8.392 -2.4458 -1.3046  0.6748
  135OSM   C18S14670   1.973   2.797   8.526  0.2800 -0.4494 -0.3806
  135OSM   H18S14671   1.893   2.855   8.577  0.2720 -1.5683  0.9187
  135OSM   H18T14672   2.035   2.853   8.453 -0.1871 -1.2683 -1.4227
  135OSM   H18U14673   2.045   2.757   8.601  0.3699  1.8355  0.8706
  135OSM    C1F14674   2.303   2.508   6.658 -0.8103 -0.0764  0.7984
  135OSM     OF14675   2.218   2.558   6.589  1.1300  0.5039 -0.2072
  135OSM    C2F14676   2.440   2.558   6.661 -0.8435  0.1533 -0.2355
  135OSM    H2F14677   2.490   2.520   6.570 -0.1639  1.5983 -0.4997
  135OSM    H2G14678   2.495   2.518   6.749  1.0763 -1.1398 -1.9383
  135OSM    C3F14679   2.443   2.712   6.661 -0.0774 -0.2532 -0.1859
  135OSM    H3F14680   2.399   2.748   6.565 -1.2652  0.4882  0.6146
  135OSM    H3G14681   2.550   2.741   6.660 -0.0523 -0.3169  0.4942
  135OSM    C4F14682   2.366   2.771   6.781  0.1731  0.2302 -0.3804
  135OSM    H4F14683   2.256   2.767   6.767 -0.0510  1.6126  0.7777
  135OSM    H4G14684   2.389   2.879   6.790 -0.9439  0.3932  0.7813
  135OSM    C5F14685   2.410   2.712   6.919  0.4602  0.2241 -0.1149
  135OSM    H5F14686   2.521   2.718   6.923  0.8387 -4.1840  0.6110
  135OSM    H5G14687   2.386   2.604   6.926 -0.2751  0.1964 -2.3103
  135OSM    C6F14688   2.350   2.778   7.041 -0.0847 -0.0745  0.3535
  135OSM    H6F14689   2.244   2.748   7.052 -0.1381  0.5167  1.6534
  135OSM    H6G14690   2.344   2.888   7.021 -0.1458 -0.2397 -0.5864
  135OSM    C7F14691   2.412   2.750   7.181  0.4628 -0.4199  0.0032
  135OSM    H7F14692   2.392   2.646   7.215 -1.4979  0.3117  1.2160
  135OSM    H7G14693   2.334   2.793   7.247 -0.2707 -1.2234 -0.3191
  135OSM    C8F14694   2.556   2.805   7.198 -0.5312  0.3133  0.1961
  135OSM    H8F14695   2.603   2.755   7.111 -3.1731  0.0204 -1.1302
  135OSM    H8G14696   2.581   2.762   7.298 -1.3643 -1.2770 -0.2506
  135OSM    C9F14697   2.580   2.949   7.195 -0.4918 -0.7013 -0.1006
  135OSM    H9F14698   2.544   2.997   7.104 -1.6227 -1.9893 -0.3629
  135OSM   C10F14699   2.647   3.019   7.291  0.2873  0.0114  0.4721
  135OSM   H10F14700   2.647   3.128   7.273  1.3614 -0.3141 -1.8203
  135OSM   C11F14701   2.702   2.953   7.415  0.9341 -0.5693  0.7683
  135OSM   H11F14702   2.736   2.848   7.408 -0.5475 -0.9498 -1.8327
  135OSM   H11G14703   2.625   2.942   7.494 -0.6177  0.9995 -0.4404
  135OSM   C12F14704   2.813   3.040   7.478  0.3759  0.8434  0.1779
  135OSM   H12F14705   2.780   3.146   7.491  0.6716  0.8780  0.6713
  135OSM   H12G14706   2.904   3.043   7.414  0.6800 -2.3314  0.3022
  135OSM   C13F14707   2.851   2.976   7.616  0.5019 -0.0426 -0.5936
  135OSM   H13F14708   2.902   2.879   7.597  1.3953 -0.1238  1.8669
  135OSM   H13G14709   2.762   2.950   7.677  1.3298  1.4800  1.3843
  135OSM   C14F14710   2.932   3.072   7.703  0.6260  0.5657  0.4889
  135OSM   H14F14711   2.865   3.160   7.713  1.3779  1.4920 -1.9321
  135OSM   H14G14712   3.008   3.099   7.627 -1.3730 -2.4118 -2.8525
  135OSM   C15F14713   2.984   3.009   7.830 -0.1091  0.7215 -0.0073
  135OSM   H15F14714   3.052   2.932   7.789 -0.7858  1.2039 -2.1765
  135OSM   H15G14715   2.895   2.960   7.875  0.0690 -0.5030 -0.9441
  135OSM   C16F14716   3.039   3.113   7.929 -0.8090  0.7851  0.1885
  135OSM   H16F14717   2.972   3.199   7.948  0.9169  2.5059 -1.1500
  135OSM   H16G14718   3.138   3.151   7.897 -0.1827 -0.1281  0.9733
  135OSM   C17F14719   3.055   3.046   8.065 -0.5265  0.1083 -0.5012
  135OSM   H17F14720   3.122   2.957   8.062  0.6213  0.7104  3.0104
  135OSM   H17G14721   2.957   3.015   8.106 -0.7195  1.2936 -0.0154
  135OSM   C18F14722   3.130   3.125   8.179  0.1942 -0.2357  1.1173
  135OSM   H18F14723   3.226   3.159   8.134 -0.0039 -1.1076 -0.0163
  135OSM   H18G14724   3.158   3.058   8.263  0.7271  0.5554  1.5934
  135OSM   H18H14725   3.078   3.214   8.221 -1.5566  0.4167 -2.0864
  136OSM      N14726   6.064   4.950   5.751  0.1349  0.7685 -0.3379
  136OSM    C1514727   5.922   4.997   5.740  0.5807  0.0252  0.0044
  136OSM   H15A14728   5.916   5.103   5.760  0.4601  0.1668 -0.7537
  136OSM   H15B14729   5.862   4.947   5.815 -0.2192 -0.5383 -0.9923
  136OSM   H15C14730   5.872   4.973   5.647 -0.6331 -0.7485  0.8285
  136OSM    C1414731   6.073   4.815   5.688 -0.5233 -0.7960  0.7229
  136OSM   H14A14732   6.175   4.781   5.688 -0.0194  0.6216  1.1846
  136OSM   H14B14733   6.049   4.807   5.584  0.5148 -0.0043  0.3999
  136OSM   H14C14734   6.014   4.742   5.741 -2.7795  0.6367  0.3316
  136OSM    C1314735   6.159   5.041   5.689 -0.2949  0.0016  0.0542
  136OSM   H13A14736   6.148   5.141   5.729  2.6935  1.8767 -3.1613
  136OSM   H13B14737   6.164   5.041   5.581  0.2107 -0.1108  0.0736
  136OSM   H13C14738   6.254   5.011   5.730 -1.4975 -0.4305  2.7242
  136OSM    C1214739   6.099   4.948   5.901 -0.9837 -0.2158  0.5910
  136OSM   H12A14740   6.092   5.047   5.945 -2.5603 -1.1194  2.5647
  136OSM   H12B14741   6.203   4.920   5.911 -0.8908 -0.5047 -1.0546
  136OSM    C1114742   6.017   4.853   6.004 -0.1611 -0.1124  0.4498
  136OSM   H11A14743   6.051   4.874   6.108 -0.5531 -1.3523  0.8561
  136OSM   H11B14744   6.038   4.746   5.986 -0.2204 -0.2179  0.9707
  136OSM      P14745   5.789   4.966   6.073 -0.3712  0.4383 -0.2906
  136OSM    O1314746   5.838   5.105   6.063 -0.2478 -0.1471  0.4056
  136OSM    O1414747   5.653   4.951   6.023 -0.2599  0.3991 -0.3599
  136OSM    O1114748   5.797   4.917   6.220 -0.1860 -0.1790 -0.2938
  136OSM    O1214749   5.876   4.871   5.994  0.0646 -0.4878  0.2564
  136OSM    C1S14750   5.770   4.782   6.256  0.1847  1.0346 -0.7097
  136OSM    H1S14751   5.851   4.715   6.219 -1.5030 -1.5617  0.0471
  136OSM    H1T14752   5.677   4.735   6.218  0.9365 -1.8254  0.6708
  136OSM     NF14753   5.726   4.626   6.450 -0.2353 -0.3632 -0.5672
  136OSM    HNF14754   5.632   4.597   6.464  0.0118 -2.2091 -2.2715
  136OSM    C2S14755   5.760   4.764   6.415 -0.1074 -0.2217  0.2011
  136OSM    H2S14756   5.860   4.784   6.457 -0.8001  0.7509  1.4510
  136OSM    C3S14757   5.672   4.881   6.487  0.0683  0.0144  0.0907
  136OSM    H3S14758   5.567   4.852   6.465 -0.0530 -0.4366  1.1959
  136OSM     O314759   5.686   5.004   6.425  0.2923  0.2265  0.3425
  136OSM    HO314760   5.731   4.982   6.343  0.0254  3.6311 -0.8749
  136OSM    C4S14761   5.686   4.871   6.639 -0.6118 -0.3332  0.1841
  136OSM    H4S14762   5.624   4.787   6.674  0.6654 -0.0141  3.6244
  136OSM    C5S14763   5.771   4.932   6.717 -0.2495  0.0637 -0.2663
  136OSM    H5S14764   5.835   5.012   6.676 -1.3126  1.0603 -0.0330
  136OSM    C6S14765   5.790   4.907   6.865  0.3630 -0.4815  0.3169
  136OSM    H6S14766   5.804   5.007   6.911 -1.0344  0.0946 -0.4470
  136OSM    H6T14767   5.880   4.842   6.877  0.0972 -0.6475  1.5142
  136OSM    C7S14768   5.674   4.828   6.930  1.0213  0.0376 -0.0102
  136OSM    H7S14769   5.678   4.722   6.897  2.4288  0.2807 -0.7075
  136OSM    H7T14770   5.581   4.876   6.891  0.3545 -1.2079 -0.0034
  136OSM    C8S14771   5.673   4.827   7.089 -0.5335  0.0436  0.6160
  136OSM    H8S14772   5.780   4.829   7.119 -0.9419 -1.1283  2.2755
  136OSM    H8T14773   5.648   4.728   7.134  0.1051 -0.1043  0.6565
  136OSM    C9S14774   5.591   4.943   7.147  0.5043  0.7708 -0.4913
  136OSM    H9S14775   5.484   4.915   7.134  0.2212 -0.2184  3.0103
  136OSM    H9T14776   5.608   5.043   7.100  2.3590  0.2519 -0.9714
  136OSM   C10S14777   5.615   4.960   7.297  0.7227  0.4577  0.0439
  136OSM   H10S14778   5.618   4.856   7.338  1.4099 -0.2137 -1.6166
  136OSM   H10T14779   5.531   5.021   7.337 -0.1790 -1.0794  0.6158
  136OSM   C11S14780   5.751   5.014   7.330 -0.5493  0.0657  0.0817
  136OSM   H11S14781   5.750   5.123   7.309 -1.5126  0.0945  0.2613
  136OSM   H11T14782   5.830   4.972   7.264 -0.5578  0.5519 -0.2399
  136OSM   C12S14783   5.787   4.991   7.480  0.3219 -0.0504 -0.5728
  136OSM   H12S14784   5.892   5.022   7.498 -0.0418  0.6054  0.4917
  136OSM   H12T14785   5.768   4.884   7.505 -2.0828  0.3323 -0.5983
  136OSM   C13S14786   5.703   5.074   7.585 -1.2797 -0.3689  0.3097
  136OSM   H13S14787   5.733   5.042   7.687  1.3935  0.3182 -0.1766
  136OSM   H13T14788   5.592   5.065   7.585 -1.2867 -0.3230 -0.0453
  136OSM   C14S14789   5.753   5.219   7.592  0.4989  0.5953 -0.6563
  136OSM   H14S14790   5.724   5.272   7.499  0.0766 -3.2316 -2.9171
  136OSM   H14T14791   5.862   5.235   7.596  0.3994  1.0251  1.1811
  136OSM   C15S14792   5.690   5.303   7.702  0.0715 -0.4750  1.4213
  136OSM   H15S14793   5.587   5.336   7.676  0.2885 -1.0445 -0.2684
  136OSM   H15T14794   5.738   5.402   7.716 -0.8277 -0.3991  4.6619
  136OSM   C16S14795   5.687   5.244   7.838 -0.2738  0.0125  0.0681
  136OSM   H16S14796   5.782   5.190   7.859  0.0992 -0.1946 -1.8788
  136OSM   H16T14797   5.619   5.157   7.842  0.9996 -1.0002  0.5538
  136OSM   C17S14798   5.669   5.337   7.954 -0.4556 -0.1725 -0.4712
  136OSM   H17S14799   5.563   5.362   7.974 -0.4295  0.7379 -1.3789
  136OSM   H17T14800   5.726   5.428   7.924 -0.4840  0.2610  0.7503
  136OSM   C18S14801   5.722   5.280   8.081 -0.3515  0.0671 -0.3242
  136OSM   H18S14802   5.645   5.211   8.123 -1.2459  2.1920  1.7736
  136OSM   H18T14803   5.736   5.360   8.156  0.6444 -0.2077 -0.2060
  136OSM   H18U14804   5.822   5.236   8.061 -0.2449  1.0574 -2.2188
  136OSM    C1F14805   5.819   4.530   6.439 -0.1595 -0.4682 -0.0662
  136OSM     OF14806   5.939   4.561   6.415  0.4770 -0.4928  0.0554
  136OSM    C2F14807   5.772   4.390   6.453 -0.4751  0.3768  0.1184
  136OSM    H2F14808   5.817   4.332   6.370 -1.7490  1.0900 -1.1216
  136OSM    H2G14809   5.661   4.391   6.453 -0.6927 -0.7964  4.4663
  136OSM    C3F14810   5.802   4.331   6.588  1.0211 -0.3671  0.0101
  136OSM    H3F14811   5.761   4.387   6.675  0.8689  0.9861 -0.9081
  136OSM    H3G14812   5.911   4.337   6.610  1.0510 -1.1809  0.1391
  136OSM    C4F14813   5.752   4.189   6.592 -0.1258 -0.0923  0.2422
  136OSM    H4F14814   5.804   4.143   6.506 -0.7591  0.4429 -0.4313
  136OSM    H4G14815   5.644   4.189   6.567 -0.1849 -1.0282  0.4653
  136OSM    C5F14816   5.782   4.111   6.720  0.4284  0.4937  0.0385
  136OSM    H5F14817   5.771   4.194   6.794  0.4072  2.1288 -1.7326
  136OSM    H5G14818   5.885   4.070   6.725  1.1345  2.2862  3.5902
  136OSM    C6F14819   5.682   3.998   6.755 -1.0175 -0.2184  0.7667
  136OSM    H6F14820   5.730   3.940   6.837  0.5817 -0.7525 -0.4870
  136OSM    H6G14821   5.673   3.923   6.673  0.0093 -1.4785  1.7697
  136OSM    C7F14822   5.543   4.040   6.814 -0.1888 -1.0292  0.1250
  136OSM    H7F14823   5.493   4.075   6.722  3.2175  0.7447 -1.2235
  136OSM    H7G14824   5.554   4.122   6.888 -1.6829  0.6072 -1.3995
  136OSM    C8F14825   5.481   3.920   6.887  0.1123  0.1181 -0.2593
  136OSM    H8F14826   5.549   3.891   6.970 -2.2008 -1.6815  1.1469
  136OSM    H8G14827   5.462   3.843   6.809 -0.3013  0.7668 -0.8016
  136OSM    C9F14828   5.353   3.967   6.942  0.8266 -0.7217 -0.0869
  136OSM    H9F14829   5.286   4.012   6.867 -1.4701  0.4822  2.4756
  136OSM   C10F14830   5.321   3.986   7.073 -0.0372 -0.3877  0.3244
  136OSM   H10F14831   5.216   4.012   7.090 -0.4974 -2.1540  0.4147
  136OSM   C11F14832   5.394   3.960   7.203  0.1566  0.2826  0.4292
  136OSM   H11F14833   5.488   3.904   7.183  1.1989  2.1776 -0.2676
  136OSM   H11G14834   5.328   3.901   7.270 -0.8445 -0.5727 -1.2408
  136OSM   C12F14835   5.422   4.089   7.276 -0.1727  0.4193 -0.5682
  136OSM   H12F14836   5.441   4.171   7.203 -2.6246  0.6718 -0.9900
  136OSM   H12G14837   5.509   4.081   7.345 -2.1212 -0.0213  1.9795
  136OSM   C13F14838   5.297   4.140   7.356  0.3581  0.5427 -0.3456
  136OSM   H13F14839   5.203   4.109   7.305 -0.2261  0.1001  0.9520
  136OSM   H13G14840   5.294   4.251   7.365  2.7973  0.5213  1.7696
  136OSM   C14F14841   5.295   4.101   7.505 -0.6235  0.0473 -0.2841
  136OSM   H14F14842   5.374   4.160   7.556  0.6593 -0.9290 -1.0966
  136OSM   H14G14843   5.320   3.994   7.523 -0.2627  0.3737  1.3527
  136OSM   C15F14844   5.164   4.131   7.580  0.4483 -1.0179 -0.0260
  136OSM   H15F14845   5.092   4.054   7.544 -0.1372 -0.8682  0.8011
  136OSM   H15G14846   5.123   4.231   7.557 -0.9075 -1.7156 -0.7377
  136OSM   C16F14847   5.175   4.111   7.730  0.4497 -0.7124 -0.3520
  136OSM   H16F14848   5.236   4.188   7.782 -1.2006 -0.6983  1.6995
  136OSM   H16G14849   5.212   4.008   7.751 -0.4237 -1.1955 -1.0834
  136OSM   C17F14850   5.037   4.121   7.799  0.1431  0.0941  0.0851
  136OSM   H17F14851   4.966   4.040   7.773 -0.2469  0.7343 -0.9131
  136OSM   H17G14852   4.988   4.218   7.775  0.4951  0.1304 -0.5030
  136OSM   C18F14853   5.050   4.130   7.955  0.7355 -0.1117 -0.1596
  136OSM   H18F14854   5.153   4.160   7.985  0.9604 -1.5065  0.5589
  136OSM   H18G14855   5.024   4.029   7.994 -1.7256  0.7563  0.6710
  136OSM   H18H14856   4.971   4.199   7.992 -0.5763 -1.6555  0.0680
  137OSM      N14857   2.895   1.167   6.438  0.4290  0.4433 -0.0187
  137OSM    C1514858   2.826   1.091   6.544 -0.3570 -0.0944 -0.0195
  137OSM   H15A14859   2.754   1.014   6.522  0.7127 -0.5154 -2.3017
  137OSM   H15B14860   2.774   1.164   6.604 -1.8065  0.6188 -2.0110
  137OSM   H15C14861   2.901   1.043   6.605 -1.3287 -4.0659 -1.5891
  137OSM    C1414862   2.989   1.069   6.369  0.2274 -0.1091  0.1315
  137OSM   H14A14863   3.022   1.109   6.274 -1.0671 -1.2269 -0.8365
  137OSM   H14B14864   2.956   0.977   6.324  2.5894  0.0595 -2.2013
  137OSM   H14C14865   3.074   1.042   6.430 -0.3190 -4.5501 -0.7330
  137OSM    C1314866   2.787   1.220   6.343  0.1463  1.0459 -0.0330
  137OSM   H13A14867   2.712   1.142   6.338  2.2583 -1.1066 -0.1476
  137OSM   H13B14868   2.827   1.224   6.243  0.1827 -1.6437 -0.2165
  137OSM   H13C14869   2.750   1.318   6.367 -0.1052  0.6604  1.2495
  137OSM    C1214870   2.975   1.286   6.497 -0.1334  0.4799  0.1109
  137OSM   H12A14871   3.048   1.248   6.567  0.6856  0.2397 -0.8412
  137OSM   H12B14872   2.915   1.353   6.556 -1.4126  0.9704 -1.6738
  137OSM    C1114873   3.060   1.371   6.405  0.3976 -0.5196  0.9409
  137OSM   H11A14874   3.066   1.470   6.454 -2.6124 -0.1667  0.7888
  137OSM   H11B14875   2.999   1.389   6.313  0.8951 -0.7943  0.5498
  137OSM      P14876   3.291   1.243   6.452 -0.4960  0.2182 -0.0906
  137OSM    O1314877   3.284   1.092   6.433  0.2397  0.0926  0.3290
  137OSM    O1414878   3.418   1.311   6.416  0.2643  0.0832 -0.3342
  137OSM    O1114879   3.247   1.275   6.594 -0.4583  0.3366 -0.4087
  137OSM    O1214880   3.184   1.312   6.362 -0.4952  0.2927  0.4631
  137OSM    C1S14881   3.345   1.259   6.705  0.3556 -0.8266  0.1380
  137OSM    H1S14882   3.448   1.284   6.671  0.1052 -0.7293 -0.5537
  137OSM    H1T14883   3.345   1.155   6.745  1.0819 -1.8790 -2.3965
  137OSM     NF14884   3.418   1.295   6.936 -0.1666  0.3068 -0.4499
  137OSM    HNF14885   3.383   1.247   7.016  2.4319 -0.0775  0.5447
  137OSM    C2S14886   3.329   1.346   6.834  0.2420  0.7271  0.1022
  137OSM    H2S14887   3.353   1.453   6.816  0.3083  0.5257 -1.1019
  137OSM    C3S14888   3.179   1.351   6.876 -0.2005 -0.1709  0.4340
  137OSM    H3S14889   3.144   1.246   6.890 -0.7429 -0.3531 -1.8842
  137OSM     O314890   3.086   1.400   6.774 -0.5671 -0.2087  0.4216
  137OSM    HO314891   3.133   1.398   6.691  0.5465  0.9651  0.9749
  137OSM    C4S14892   3.167   1.421   7.008  0.3668  0.7080  0.7679
  137OSM    H4S14893   3.183   1.347   7.088  0.0965 -0.0379  0.1507
  137OSM    C5S14894   3.133   1.545   7.035 -0.4058  0.3880 -0.3953
  137OSM    H5S14895   3.111   1.611   6.950 -0.3288 -1.2240 -1.7299
  137OSM    C6S14896   3.119   1.604   7.171  0.1248  0.3607  0.1203
  137OSM    H6S14897   3.024   1.660   7.184 -0.6656 -0.7722 -0.6844
  137OSM    H6T14898   3.197   1.684   7.172  2.5687 -1.8446 -1.7945
  137OSM    C7S14899   3.143   1.526   7.301  0.1695 -0.6058  0.4881
  137OSM    H7S14900   3.235   1.464   7.296  0.0894 -0.8886  2.1489
  137OSM    H7T14901   3.058   1.454   7.299 -1.2817  1.0290  0.1550
  137OSM    C8S14902   3.142   1.613   7.428 -0.0350 -0.0993  0.8082
  137OSM    H8S14903   3.041   1.661   7.427  0.9080  2.0441 -0.8893
  137OSM    H8T14904   3.218   1.693   7.415 -0.8442  0.5477 -0.1039
  137OSM    C9S14905   3.180   1.547   7.552 -0.0603 -0.1888 -0.2680
  137OSM    H9S14906   3.291   1.548   7.562 -0.0817 -1.7135  0.4756
  137OSM    H9T14907   3.150   1.440   7.559 -0.0700 -0.2694 -1.3771
  137OSM   C10S14908   3.100   1.613   7.669 -0.7148 -0.4425 -0.5973
  137OSM   H10S14909   2.989   1.613   7.665 -0.7472 -2.8264 -1.2293
  137OSM   H10T14910   3.125   1.720   7.682 -1.9540 -0.4733  3.6586
  137OSM   C11S14911   3.134   1.537   7.799  0.0749 -0.4210  0.1336
  137OSM   H11S14912   3.242   1.509   7.797  0.7240  1.8306  0.2657
  137OSM   H11T14913   3.076   1.443   7.799  2.5875 -2.0730  1.1174
  137OSM   C12S14914   3.108   1.615   7.925 -0.6919  0.6962  0.6202
  137OSM   H12S14915   2.998   1.615   7.937 -0.5864  0.1342  1.7263
  137OSM   H12T14916   3.143   1.720   7.919  2.9879 -0.4797 -1.4589
  137OSM   C13S14917   3.152   1.537   8.043  0.2201  0.2219  0.0551
  137OSM   H13S14918   3.262   1.530   8.055  0.1219 -1.4682  0.2831
  137OSM   H13T14919   3.109   1.435   8.028 -0.1132  0.6120 -1.8585
  137OSM   C14S14920   3.083   1.602   8.168  0.0047  0.4953 -0.3007
  137OSM   H14S14921   2.976   1.591   8.141  0.4238 -1.4453 -1.3750
  137OSM   H14T14922   3.098   1.711   8.179 -1.2005  0.6155  0.3204
  137OSM   C15S14923   3.115   1.526   8.294  0.3730  0.1425 -0.1891
  137OSM   H15S14924   3.104   1.417   8.275 -2.6789  0.5857 -1.7120
  137OSM   H15T14925   3.051   1.552   8.381 -0.8856  2.2707 -1.6327
  137OSM   C16S14926   3.254   1.548   8.341 -0.0010 -0.4124  0.5391
  137OSM   H16S14927   3.270   1.649   8.384 -1.9079 -0.3706  1.2741
  137OSM   H16T14928   3.322   1.541   8.255 -0.4248 -1.0512  0.2524
  137OSM   C17S14929   3.289   1.453   8.457 -0.3880 -0.1893  0.3279
  137OSM   H17S14930   3.394   1.466   8.491 -0.3945  1.2113 -0.1242
  137OSM   H17T14931   3.296   1.349   8.419  3.1068  0.1885 -0.4653
  137OSM   C18S14932   3.194   1.459   8.575  0.2114  0.3923  0.1165
  137OSM   H18S14933   3.101   1.401   8.555  0.8687 -0.4414 -0.5940
  137OSM   H18T14934   3.167   1.560   8.612 -2.6031  0.5487 -2.0707
  137OSM   H18U14935   3.230   1.397   8.660 -1.5583 -1.0612 -0.1275
  137OSM    C1F14936   3.551   1.311   6.920 -0.3289  0.0956 -0.4498
  137OSM     OF14937   3.593   1.378   6.825 -0.1804 -0.5667  0.3401
  137OSM    C2F14938   3.651   1.232   7.009  1.2057  0.1031  0.3178
  137OSM    H2F14939   3.673   1.134   6.961  1.1557  1.0287 -1.7101
  137OSM    H2G14940   3.599   1.216   7.106  1.4362 -0.8157  0.2992
  137OSM    C3F14941   3.787   1.304   7.029 -0.6844  0.2301  0.5659
  137OSM    H3F14942   3.782   1.415   7.038  1.0218  0.3497  0.2825
  137OSM    H3G14943   3.854   1.289   6.942 -3.0421 -1.1649 -1.1134
  137OSM    C4F14944   3.861   1.260   7.155 -0.2476  0.3638  0.2742
  137OSM    H4F14945   3.884   1.151   7.154  5.1394  1.2381  0.4701
  137OSM    H4G14946   3.799   1.281   7.245  0.6409  0.5601  0.8493
  137OSM    C5F14947   3.993   1.328   7.165 -0.6638  0.1973  0.1762
  137OSM    H5F14948   3.984   1.421   7.106  0.6229  1.7820  2.3404
  137OSM    H5G14949   4.063   1.253   7.121  0.7800  2.0447 -0.7843
  137OSM    C6F14950   4.043   1.353   7.309 -0.4259 -0.0551 -0.1999
  137OSM    H6F14951   4.025   1.267   7.377  2.1672  0.0956  0.7890
  137OSM    H6G14952   3.984   1.439   7.348  1.2776  1.0624  0.0191
  137OSM    C7F14953   4.188   1.407   7.306 -0.5782  0.0275  0.3126
  137OSM    H7F14954   4.182   1.504   7.252 -1.4956  0.3500  0.9578
  137OSM    H7G14955   4.252   1.344   7.241  0.9058  1.0188  0.7557
  137OSM    C8F14956   4.256   1.449   7.433  0.4580 -0.9303 -0.2510
  137OSM    H8F14957   4.188   1.530   7.468  0.8431 -2.1885  3.9689
  137OSM    H8G14958   4.360   1.482   7.416 -0.2778  1.0799 -1.2655
  137OSM    C9F14959   4.252   1.332   7.533 -0.3005 -0.3545 -0.3822
  137OSM    H9F14960   4.272   1.231   7.495  0.2072 -1.4264  2.4983
  137OSM   C10F14961   4.212   1.334   7.660 -0.2491 -0.1712 -0.2427
  137OSM   H10F14962   4.224   1.237   7.710 -2.2453 -1.5642 -2.2698
  137OSM   C11F14963   4.179   1.457   7.737 -0.3823 -0.2777 -0.5785
  137OSM   H11F14964   4.080   1.500   7.712  0.2080 -0.0411 -2.7257
  137OSM   H11G14965   4.252   1.539   7.718 -2.0483  1.9613  1.9355
  137OSM   C12F14966   4.187   1.428   7.886 -0.1453  0.5657  0.5959
  137OSM   H12F14967   4.291   1.404   7.917 -0.2209  0.9395  1.1516
  137OSM   H12G14968   4.124   1.341   7.914  1.5134 -1.7084 -2.0498
  137OSM   C13F14969   4.120   1.525   7.978 -0.1218  0.2666 -0.5964
  137OSM   H13F14970   4.014   1.547   7.954 -0.0205  1.1787 -0.2753
  137OSM   H13G14971   4.176   1.621   7.965 -1.6423  1.3950  0.8056
  137OSM   C14F14972   4.132   1.473   8.123  0.1488  0.1229 -0.4336
  137OSM   H14F14973   4.240   1.451   8.141  0.3698  2.0274  0.8687
  137OSM   H14G14974   4.079   1.379   8.150  2.3127 -1.1795 -0.4367
  137OSM   C15F14975   4.101   1.582   8.228 -0.1565 -0.5344 -0.8021
  137OSM   H15F14976   4.013   1.635   8.185 -0.1489 -0.0543 -0.2353
  137OSM   H15G14977   4.186   1.652   8.240  0.1176 -1.1923  1.5408
  137OSM   C16F14978   4.065   1.523   8.363 -0.8120 -0.1766 -0.2548
  137OSM   H16F14979   4.159   1.477   8.403 -1.5915 -1.7042 -0.0872
  137OSM   H16G14980   3.987   1.444   8.359 -0.8639 -0.4052  2.8927
  137OSM   C17F14981   4.000   1.624   8.456  0.2202 -0.6226 -0.5955
  137OSM   H17F14982   3.903   1.667   8.423  0.1516 -0.5477 -0.2992
  137OSM   H17G14983   4.060   1.717   8.468 -0.9753  0.0939  0.0704
  137OSM   C18F14984   3.995   1.569   8.598 -0.2252 -0.1544  0.6110
  137OSM   H18F14985   3.916   1.491   8.604 -0.6261  0.0955 -0.8945
  137OSM   H18G14986   3.975   1.653   8.668 -1.2565  3.1542 -3.2546
  137OSM   H18H14987   4.088   1.514   8.624  0.3018  0.7839  0.7515
  138OSM      N14988   2.909   3.657   6.170 -0.7408 -0.3921  0.6017
  138OSM    C1514989   2.912   3.526   6.105 -0.9979 -0.0860  0.7295
  138OSM   H15A14990   2.983   3.465   6.159  2.1390  0.0211 -2.7779
  138OSM   H15B14991   2.937   3.526   5.999 -1.4203 -1.6445  0.6088
  138OSM   H15C14992   2.812   3.488   6.115 -1.0099 -1.1352 -2.2484
  138OSM    C1414993   2.787   3.732   6.134  0.2119 -0.6359 -0.3533
  138OSM   H14A14994   2.697   3.693   6.179 -0.3385  0.9266 -0.0618
  138OSM   H14B14995   2.788   3.735   6.026 -1.3744 -1.2593 -0.4086
  138OSM   H14C14996   2.788   3.835   6.165  2.9629 -0.8421  0.5492
  138OSM    C1314997   2.892   3.620   6.310  0.6444 -0.3240 -0.2894
  138OSM   H13A14998   2.980   3.592   6.366 -0.0619  1.1455  1.6814
  138OSM   H13B14999   2.821   3.540   6.324  0.3099  0.2694  1.6853
  138OSM   H13C15000   2.850   3.708   6.356  1.3145 -0.3523  0.3920
  138OSM    C1215001   3.044   3.731   6.146  0.1643  0.5139  0.5671
  138OSM   H12A15002   3.044   3.769   6.045 -2.2916 -1.1182 -0.1264
  138OSM   H12B15003   3.116   3.652   6.160 -1.7336 -1.0651  2.1317
  138OSM    C1115004   3.085   3.854   6.234 -0.3082 -0.2434  0.0804
  138OSM   H11A15005   3.185   3.895   6.206 -1.2103  2.1746  0.1275
  138OSM   H11B15006   3.084   3.809   6.336 -1.4115 -1.1011 -0.2945
  138OSM      P15007   2.992   4.083   6.148 -0.1632 -0.1167  0.2310
  138OSM    O1315008   3.091   4.046   6.045  0.4175  0.1931  0.1578
  138OSM    O1415009   2.851   4.107   6.102 -0.0196  0.0768  0.1392
  138OSM    O1115010   3.040   4.194   6.249 -0.7345 -0.2349 -0.7243
  138OSM    O1215011   2.987   3.959   6.239  0.0888  0.2440 -0.1857
  138OSM    C1S15012   2.972   4.252   6.358 -0.2726  0.5230  0.3550
  138OSM    H1S15013   2.863   4.231   6.349 -0.1038 -1.1077  1.5866
  138OSM    H1T15014   2.983   4.361   6.340  0.2425  0.4044 -0.1006
  138OSM     NF15015   2.995   4.291   6.612  0.3299 -0.5411 -0.0371
  138OSM    HNF15016   3.059   4.335   6.674  4.2702 -3.1197 -1.8950
  138OSM    C2S15017   3.041   4.222   6.498 -0.2605 -0.6732  0.3224
  138OSM    H2S15018   3.005   4.117   6.510  2.1131 -1.9241 -2.3169
  138OSM    C3S15019   3.198   4.226   6.486 -0.1655 -0.4081  0.6141
  138OSM    H3S15020   3.230   4.332   6.472 -1.0428 -0.3237 -0.9020
  138OSM     O315021   3.261   4.156   6.379  0.3899  0.1871 -0.0479
  138OSM    HO315022   3.191   4.138   6.316  0.3102  1.6184 -0.3846
  138OSM    C4S15023   3.258   4.180   6.620  0.2377  0.2272 -0.0485
  138OSM    H4S15024   3.279   4.269   6.681  1.4473  2.0961 -3.0127
  138OSM    C5S15025   3.286   4.055   6.667  0.5043 -0.6107 -0.1571
  138OSM    H5S15026   3.270   3.973   6.597 -0.2342 -0.3611 -0.2935
  138OSM    C6S15027   3.346   4.023   6.803 -0.6518  0.0106 -0.2379
  138OSM    H6S15028   3.447   3.978   6.788 -0.3947  0.4389  0.1573
  138OSM    H6T15029   3.289   3.937   6.843 -3.4562  0.0096 -3.8271
  138OSM    C7S15030   3.336   4.135   6.902 -0.4949 -0.6344  0.3834
  138OSM    H7S15031   3.230   4.169   6.900 -1.0818 -2.3698 -0.1360
  138OSM    H7T15032   3.399   4.221   6.871  0.0713 -0.0783  2.8854
  138OSM    C8S15033   3.385   4.085   7.037 -0.5174 -0.5804  0.0430
  138OSM    H8S15034   3.494   4.102   7.043 -0.2284 -2.6676  1.9360
  138OSM    H8T15035   3.375   3.975   7.047 -1.8325 -0.3612  1.7232
  138OSM    C9S15036   3.329   4.150   7.166 -0.1944 -0.1749  0.6476
  138OSM    H9S15037   3.231   4.101   7.184 -0.6098  0.3885 -0.0268
  138OSM    H9T15038   3.312   4.259   7.148 -0.2835 -0.2414  0.3129
  138OSM   C10S15039   3.424   4.111   7.278 -0.4638  0.3650 -0.0167
  138OSM   H10S15040   3.532   4.117   7.253 -0.0385 -3.2817  0.4090
  138OSM   H10T15041   3.412   4.003   7.299 -1.1539  0.4957  0.2850
  138OSM   C11S15042   3.397   4.193   7.407  0.4377 -0.5784 -0.5069
  138OSM   H11S15043   3.394   4.302   7.386 -1.2641 -0.2050  1.3321
  138OSM   H11T15044   3.493   4.177   7.461  0.3623  0.5299 -0.0301
  138OSM   C12S15045   3.280   4.144   7.490 -0.4386  0.1693  0.5577
  138OSM   H12S15046   3.282   4.034   7.497  0.2734  0.2009  0.8500
  138OSM   H12T15047   3.186   4.165   7.434  0.5491  1.6352 -0.6536
  138OSM   C13S15048   3.266   4.203   7.634  0.3817  0.6042 -0.4966
  138OSM   H13S15049   3.264   4.314   7.642  0.7579  0.7181 -1.8133
  138OSM   H13T15050   3.359   4.183   7.692  0.8501  1.3906 -0.9597
  138OSM   C14S15051   3.149   4.156   7.717  0.2879  0.2759 -1.0645
  138OSM   H14S15052   3.132   4.049   7.692 -0.5329  0.2908 -0.6110
  138OSM   H14T15053   3.062   4.218   7.689  0.3719 -0.0963 -2.1658
  138OSM   C15S15054   3.162   4.167   7.869  0.1836  0.4489  0.6535
  138OSM   H15S15055   3.254   4.119   7.908  0.4935  1.9594  1.9133
  138OSM   H15T15056   3.082   4.102   7.911  0.1749 -0.6269 -0.9475
  138OSM   C16S15057   3.172   4.316   7.910 -0.4033  0.3235  0.6562
  138OSM   H16S15058   3.078   4.364   7.874 -0.9400 -0.3681  1.1119
  138OSM   H16T15059   3.257   4.363   7.856 -0.4626 -0.9707 -0.6154
  138OSM   C17S15060   3.184   4.323   8.059 -0.5005 -1.0776 -0.6451
  138OSM   H17S15061   3.291   4.304   8.082 -0.8871 -1.3531  1.0483
  138OSM   H17T15062   3.116   4.253   8.111 -0.8445 -1.5704 -1.7206
  138OSM   C18S15063   3.169   4.461   8.122 -0.4889  0.1658 -0.6136
  138OSM   H18S15064   3.071   4.510   8.105  0.7398  3.1023  0.1259
  138OSM   H18T15065   3.244   4.524   8.069 -0.6994  0.2598 -0.7966
  138OSM   H18U15066   3.189   4.455   8.231 -1.2745  0.7429 -0.4310
  138OSM    C1F15067   2.862   4.287   6.654  1.3362 -0.0431 -1.0256
  138OSM     OF15068   2.779   4.252   6.574  0.1356 -0.0477 -0.5792
  138OSM    C2F15069   2.834   4.329   6.797 -0.0680 -0.2204  0.4830
  138OSM    H2F15070   2.863   4.436   6.805 -2.1732  0.3987  0.4357
  138OSM    H2G15071   2.903   4.272   6.864  0.8077  1.5204  1.1515
  138OSM    C3F15072   2.688   4.303   6.827  0.6670  1.2789  0.3499
  138OSM    H3F15073   2.661   4.198   6.801 -1.1065  1.8126 -0.1444
  138OSM    H3G15074   2.615   4.356   6.762 -0.3322  0.8460  1.0947
  138OSM    C4F15075   2.644   4.308   6.975 -0.2213  0.1705  0.1629
  138OSM    H4F15076   2.693   4.221   7.025  0.1121  0.0276 -0.4134
  138OSM    H4G15077   2.535   4.285   6.980 -0.6980  1.9148 -1.4646
  138OSM    C5F15078   2.661   4.451   7.040  0.3644 -0.1270  0.1083
  138OSM    H5F15079   2.585   4.521   6.999  1.7259  1.9625  0.9336
  138OSM    H5G15080   2.767   4.479   7.017  0.1730  0.2696 -0.3160
  138OSM    C6F15081   2.644   4.454   7.195  0.1992 -0.2114 -0.1337
  138OSM    H6F15082   2.673   4.551   7.240  0.8117 -0.4851  0.0768
  138OSM    H6G15083   2.724   4.384   7.230  2.9076  1.6651 -2.1775
  138OSM    C7F15084   2.510   4.407   7.255 -0.0295  0.0190 -0.1576
  138OSM    H7F15085   2.492   4.307   7.210  1.0997  0.9631 -2.9233
  138OSM    H7G15086   2.426   4.470   7.219 -0.7217 -1.1948 -0.7400
  138OSM    C8F15087   2.513   4.391   7.411  0.2115 -0.4523  0.1848
  138OSM    H8F15088   2.586   4.312   7.439 -0.1040 -0.7148  0.2804
  138OSM    H8G15089   2.413   4.343   7.423 -0.5309  0.8832 -0.3646
  138OSM    C9F15090   2.520   4.518   7.489 -0.2675  0.4139  0.3126
  138OSM    H9F15091   2.451   4.589   7.441  0.1791  0.4852 -0.2350
  138OSM   C10F15092   2.619   4.556   7.575 -0.0825  0.0356  0.2604
  138OSM   H10F15093   2.607   4.652   7.626  0.6174 -1.3086  3.2014
  138OSM   C11F15094   2.753   4.489   7.622 -0.1474  0.5752 -0.1706
  138OSM   H11F15095   2.824   4.556   7.675  2.5729 -0.1777 -2.6034
  138OSM   H11G15096   2.811   4.447   7.537  1.2974  0.0620  1.0270
  138OSM   C12F15097   2.713   4.383   7.722  0.5842 -0.0855 -0.0514
  138OSM   H12F15098   2.808   4.342   7.763  0.6284  1.0102  0.9834
  138OSM   H12G15099   2.657   4.302   7.671  0.7271  0.0097 -0.3621
  138OSM   C13F15100   2.634   4.424   7.852 -0.1985  0.0971  0.1535
  138OSM   H13F15101   2.658   4.343   7.925  0.7105  0.4370  0.2453
  138OSM   H13G15102   2.525   4.428   7.830 -0.7005 -0.3403  2.2768
  138OSM   C14F15103   2.675   4.556   7.908 -0.0811 -0.0736 -0.6463
  138OSM   H14F15104   2.662   4.637   7.833 -1.1725 -1.8797 -2.5079
  138OSM   H14G15105   2.775   4.551   7.956 -0.5847  1.5891  0.6667
  138OSM   C15F15106   2.576   4.603   8.019 -0.2178  0.0208  0.3672
  138OSM   H15F15107   2.470   4.602   7.986 -0.3174  1.2680  0.6163
  138OSM   H15G15108   2.593   4.711   8.039  1.5350 -0.5867  2.5026
  138OSM   C16F15109   2.599   4.511   8.143  0.1568  0.3048 -0.1269
  138OSM   H16F15110   2.703   4.519   8.182 -0.5236 -0.4600  1.9776
  138OSM   H16G15111   2.571   4.405   8.127 -0.7398  0.2318  1.7271
  138OSM   C17F15112   2.501   4.547   8.256  0.5740  0.2672 -0.4421
  138OSM   H17F15113   2.397   4.529   8.221 -0.0792  0.9901  1.0391
  138OSM   H17G15114   2.510   4.656   8.270  0.1024  0.1199  1.1973
  138OSM   C18F15115   2.521   4.481   8.384  0.1652  0.5760 -0.6324
  138OSM   H18F15116   2.472   4.381   8.384 -0.1246  0.5843  2.9044
  138OSM   H18G15117   2.475   4.540   8.466  0.0710  0.4986 -0.6298
  138OSM   H18H15118   2.624   4.453   8.414 -0.8291 -1.1606  1.4144
  139OSM      N15119   1.473   4.768   5.816 -0.0634  0.2407  0.3129
  139OSM    C1515120   1.513   4.808   5.673  0.5401  1.0153 -0.5069
  139OSM   H15A15121   1.421   4.811   5.616 -0.1915  0.7257  0.6183
  139OSM   H15B15122   1.582   4.735   5.635 -1.2132 -0.1445 -1.5664
  139OSM   H15C15123   1.566   4.903   5.673  2.2911  0.1677  2.4976
  139OSM    C1415124   1.375   4.867   5.856 -0.0046  0.0131  0.7890
  139OSM   H14A15125   1.425   4.961   5.839  2.2663 -1.0479  1.2711
  139OSM   H14B15126   1.344   4.860   5.959 -1.6445 -1.0890  0.2604
  139OSM   H14C15127   1.287   4.855   5.795 -0.1373 -2.5255  1.3696
  139OSM    C1315128   1.412   4.632   5.812 -0.1915  0.0081 -0.0727
  139OSM   H13A15129   1.473   4.559   5.762  1.8007  0.9099  0.9217
  139OSM   H13B15130   1.321   4.641   5.755  1.0852  1.5196 -1.9724
  139OSM   H13C15131   1.400   4.604   5.916  1.1846 -2.2905 -0.4566
  139OSM    C1215132   1.599   4.774   5.902 -0.1290 -0.9117  0.1646
  139OSM   H12A15133   1.635   4.876   5.898 -0.7319 -0.6131  1.6063
  139OSM   H12B15134   1.685   4.718   5.871  0.8841 -1.2885  3.3037
  139OSM    C1115135   1.575   4.741   6.051 -0.6558 -0.0336 -0.0867
  139OSM   H11A15136   1.493   4.807   6.086  0.9241  3.8104 -2.8434
  139OSM   H11B15137   1.664   4.778   6.106  0.4930  0.3971 -2.1382
  139OSM      P15138   1.667   4.505   6.074  0.4746  0.1819  0.4337
  139OSM    O1315139   1.604   4.369   6.091  0.0860  0.5776 -0.0911
  139OSM    O1415140   1.737   4.533   5.951 -0.4379 -0.1843  0.0874
  139OSM    O1115141   1.757   4.547   6.193  0.4683  0.2199 -0.3010
  139OSM    O1215142   1.544   4.604   6.089  0.3093 -0.5570  0.4170
  139OSM    C1S15143   1.703   4.564   6.330  0.1275 -0.1992 -0.4938
  139OSM    H1S15144   1.605   4.615   6.327  0.1742  0.4756  3.8933
  139OSM    H1T15145   1.762   4.642   6.383 -0.9177  0.3891 -0.1700
  139OSM     NF15146   1.618   4.462   6.539  0.5634  0.0258 -0.3447
  139OSM    HNF15147   1.666   4.438   6.623  1.3934 -0.1169 -0.8470
  139OSM    C2S15148   1.698   4.436   6.416  0.2610 -0.7269 -0.6547
  139OSM    H2S15149   1.640   4.361   6.358  0.2277 -0.1941 -1.3284
  139OSM    C3S15150   1.842   4.395   6.451 -0.8176 -0.5958  0.2018
  139OSM    H3S15151   1.883   4.476   6.515 -0.1797 -0.9143  0.2126
  139OSM     O315152   1.917   4.378   6.333 -0.2032 -0.0562  0.6191
  139OSM    HO315153   1.855   4.419   6.273 -3.3623 -2.7019  1.7766
  139OSM    C4S15154   1.842   4.265   6.525 -0.0182  0.5746  0.0248
  139OSM    H4S15155   1.805   4.185   6.460  2.6870 -0.0308 -0.9382
  139OSM    C5S15156   1.884   4.241   6.656 -0.6473 -0.0980  0.5229
  139OSM    H5S15157   1.917   4.328   6.715  0.1655 -0.5583  0.7604
  139OSM    C6S15158   1.884   4.116   6.736 -0.3719 -0.7277  0.5281
  139OSM    H6S15159   1.863   4.147   6.841 -0.0567 -1.6232  0.8742
  139OSM    H6T15160   1.991   4.085   6.740 -0.2024 -0.2596 -0.3038
  139OSM    C7S15161   1.796   3.995   6.688  0.1197  0.0149 -1.0607
  139OSM    H7S15162   1.825   3.904   6.744 -0.8167  0.0730 -0.4607
  139OSM    H7T15163   1.830   4.003   6.583  1.1932  0.0176 -0.7310
  139OSM    C8S15164   1.640   4.023   6.695  0.4413  0.1700  0.2483
  139OSM    H8S15165   1.586   3.928   6.673 -2.0827  1.5622 -0.0291
  139OSM    H8T15166   1.621   4.087   6.606  1.4498 -0.6926 -0.6146
  139OSM    C9S15167   1.587   4.090   6.819 -0.0464  0.1029  0.1936
  139OSM    H9S15168   1.477   4.088   6.809 -0.2192  2.2628  0.9978
  139OSM    H9T15169   1.608   4.199   6.810 -2.6738  0.8029  1.6598
  139OSM   C10S15170   1.631   4.023   6.953  0.2358 -0.1250 -0.0416
  139OSM   H10S15171   1.738   4.050   6.965  0.1390 -0.0585  0.7233
  139OSM   H10T15172   1.624   3.913   6.941 -0.5899 -0.2362  1.2894
  139OSM   C11S15173   1.560   4.064   7.082 -0.1095 -0.1629  0.4245
  139OSM   H11S15174   1.452   4.052   7.059  0.3326  0.2308 -2.2106
  139OSM   H11T15175   1.578   4.174   7.092  1.8325 -0.3826 -0.1626
  139OSM   C12S15176   1.608   4.001   7.208  0.4788 -0.2010 -0.8138
  139OSM   H12S15177   1.717   4.003   7.189  0.8258 -2.2742  0.6549
  139OSM   H12T15178   1.559   3.902   7.214  0.3074 -0.0435  0.8479
  139OSM   C13S15179   1.568   4.081   7.340 -0.1672  0.2249  0.2983
  139OSM   H13S15180   1.459   4.102   7.350  0.1061  2.3781 -0.7121
  139OSM   H13T15181   1.620   4.179   7.338  0.8004 -0.1960  2.0086
  139OSM   C14S15182   1.619   4.002   7.459 -0.0164  0.2662 -0.1838
  139OSM   H14S15183   1.725   3.977   7.437  0.0409  1.3167 -1.2361
  139OSM   H14T15184   1.554   3.912   7.460 -1.2102  1.0811 -0.9389
  139OSM   C15S15185   1.610   4.063   7.596  0.5122 -0.5810  0.2088
  139OSM   H15S15186   1.502   4.074   7.619 -0.2974 -3.6878 -1.6257
  139OSM   H15T15187   1.658   4.163   7.591 -1.3820  0.2874 -1.9933
  139OSM   C16S15188   1.679   3.991   7.713  0.1834  1.2078  0.5985
  139OSM   H16S15189   1.779   4.038   7.720  1.2089 -0.9072  0.8322
  139OSM   H16T15190   1.682   3.880   7.707  0.3037  1.1196  2.0239
  139OSM   C17S15191   1.609   4.015   7.852 -0.3684  0.4463  0.3126
  139OSM   H17S15192   1.523   3.946   7.861 -1.3242  1.7420  1.6992
  139OSM   H17T15193   1.569   4.119   7.841  2.5534  1.6203 -0.2692
  139OSM   C18S15194   1.696   4.005   7.974 -0.3495 -0.7622 -0.1511
  139OSM   H18S15195   1.788   4.064   7.958  0.2898 -1.6008  0.3403
  139OSM   H18T15196   1.735   3.903   7.992  0.8636  0.1599  3.1150
  139OSM   H18U15197   1.653   4.031   8.073 -1.8798  1.2775 -1.2618
  139OSM    C1F15198   1.489   4.486   6.541  0.0139  0.1827  0.3968
  139OSM     OF15199   1.424   4.491   6.441  0.1791 -0.5794  0.0594
  139OSM    C2F15200   1.423   4.513   6.677 -0.2883 -0.3186  0.3653
  139OSM    H2F15201   1.396   4.620   6.687  0.9153 -0.1754  2.6949
  139OSM    H2G15202   1.512   4.492   6.741  1.2840 -0.9733 -1.8973
  139OSM    C3F15203   1.304   4.424   6.700 -0.1170  0.0767  0.1350
  139OSM    H3F15204   1.337   4.319   6.684 -0.2725 -0.1832  1.4308
  139OSM    H3G15205   1.218   4.452   6.636  0.9869  0.9135 -1.0276
  139OSM    C4F15206   1.259   4.421   6.838  0.3194  0.2366 -0.3905
  139OSM    H4F15207   1.177   4.494   6.849  0.2297  0.0288  0.3661
  139OSM    H4G15208   1.339   4.442   6.912  2.1252  0.2355 -2.2532
  139OSM    C5F15209   1.195   4.288   6.876 -0.1700  0.0516  0.7945
  139OSM    H5F15210   1.280   4.217   6.884  0.0619  0.1668 -0.4543
  139OSM    H5G15211   1.119   4.257   6.801  0.4439  0.0251  0.1737
  139OSM    C6F15212   1.117   4.294   7.009  0.3578  0.6190 -0.1962
  139OSM    H6F15213   1.048   4.207   7.021  2.1001 -1.0333 -1.4087
  139OSM    H6G15214   1.056   4.386   7.001  0.5604  0.6958 -0.9776
  139OSM    C7F15215   1.204   4.316   7.134 -0.5646 -0.6616 -0.2217
  139OSM    H7F15216   1.271   4.400   7.107 -0.9146  0.1744  1.3556
  139OSM    H7G15217   1.261   4.222   7.144 -0.1402 -0.3979 -0.1578
  139OSM    C8F15218   1.120   4.342   7.259  0.1591 -0.2795  0.2025
  139OSM    H8F15219   1.041   4.265   7.260  1.0188 -1.2029  2.3340
  139OSM    H8G15220   1.069   4.440   7.250 -0.6843 -0.7004  0.2831
  139OSM    C9F15221   1.194   4.329   7.391  0.1481  0.2131  0.6103
  139OSM    H9F15222   1.280   4.398   7.395 -0.2046  1.0456 -2.8833
  139OSM   C10F15223   1.167   4.251   7.497 -0.2838  0.4861  0.3578
  139OSM   H10F15224   1.221   4.264   7.592  0.1339 -0.0431  0.2017
  139OSM   C11F15225   1.056   4.154   7.504 -0.3944  0.6514 -0.2075
  139OSM   H11F15226   0.979   4.178   7.428  1.1428  0.0026 -2.0381
  139OSM   H11G15227   1.011   4.171   7.604  1.6365 -0.8997  1.0550
  139OSM   C12F15228   1.112   4.006   7.491 -0.2250 -0.2891  0.1592
  139OSM   H12F15229   1.033   3.955   7.551 -0.8670  0.6481  0.1361
  139OSM   H12G15230   1.201   3.993   7.556  0.1254  1.9760  0.2216
  139OSM   C13F15231   1.139   3.960   7.351  0.5404  0.5256  0.2875
  139OSM   H13F15232   1.200   3.866   7.357 -0.6932 -0.4900 -1.9746
  139OSM   H13G15233   1.194   4.037   7.293  0.3573  0.1272 -0.4280
  139OSM   C14F15234   1.018   3.932   7.267 -0.4028 -0.1316 -0.3312
  139OSM   H14F15235   0.953   4.021   7.277  1.5072  1.4299 -1.0129
  139OSM   H14G15236   0.954   3.846   7.295  2.0074 -2.0273 -0.2987
  139OSM   C15F15237   1.056   3.921   7.118 -0.2686 -0.1912  0.4139
  139OSM   H15F15238   1.110   3.828   7.091  1.4585  0.7484  0.4944
  139OSM   H15G15239   1.137   3.994   7.097  0.8036 -1.1083  1.1956
  139OSM   C16F15240   0.946   3.951   7.013 -0.0065  0.6642 -0.6067
  139OSM   H16F15241   0.898   4.048   7.038 -1.4485 -0.7399  2.6898
  139OSM   H16G15242   0.866   3.876   7.031  0.7402 -0.1817 -0.7163
  139OSM   C17F15243   0.988   3.931   6.866 -0.3896  0.1348 -0.7447
  139OSM   H17F15244   1.067   3.854   6.856  1.3036  1.4569  1.4264
  139OSM   H17G15245   1.028   4.034   6.849 -1.8519  1.6207  3.3702
  139OSM   C18F15246   0.866   3.909   6.775  0.3146 -0.2214 -0.3178
  139OSM   H18F15247   0.809   4.003   6.758  1.5048  0.2687 -1.8334
  139OSM   H18G15248   0.794   3.833   6.812 -0.0969 -0.3624 -1.3787
  139OSM   H18H15249   0.898   3.872   6.675 -0.3971  0.7911 -0.9428
  140OSM      N15250   2.257   0.101   5.932  0.2174  0.1716  0.8566
  140OSM    C1515251   2.373   0.091   5.844 -0.0167  0.2282  0.5874
  140OSM   H15A15252   2.420  -0.007   5.851 -2.4602 -1.0897 -0.2380
  140OSM   H15B15253   2.443   0.169   5.869  0.0243  1.0570 -1.8915
  140OSM   H15C15254   2.345   0.091   5.740  1.2211  1.6586  0.2203
  140OSM    C1415255   2.309   0.114   6.072 -0.4940  0.0220 -0.3315
  140OSM   H14A15256   2.395   0.179   6.087 -1.4275  0.9530  1.3485
  140OSM   H14B15257   2.338   0.013   6.098 -0.2546 -0.1225 -1.1325
  140OSM   H14C15258   2.231   0.145   6.140  0.0371  1.3565 -0.2985
  140OSM    C1315259   2.177   0.216   5.894 -0.0780  0.1331  0.2939
  140OSM   H13A15260   2.226   0.311   5.882 -1.7439  0.9798 -0.2078
  140OSM   H13B15261   2.102   0.248   5.965  1.6672  2.5749  1.1580
  140OSM   H13C15262   2.138   0.200   5.794  0.8250  0.3324 -0.1025
  140OSM    C1215263   2.175  -0.022   5.917  0.2071  0.9813  0.2072
  140OSM   H12A15264   2.224  -0.102   5.970  0.1898  1.1447  0.4759
  140OSM   H12B15265   2.168  -0.052   5.814 -0.9750  1.9183 -0.0147
  140OSM    C1115266   2.028  -0.010   5.964 -0.0018 -0.4263  0.7411
  140OSM   H11A15267   1.975  -0.099   5.926 -1.2324 -0.4901  2.4730
  140OSM   H11B15268   1.964   0.072   5.924 -2.5509 -1.4483  2.4704
  140OSM      P15269   1.931   0.087   6.190 -0.1441 -0.0246  0.1638
  140OSM    O1315270   2.010   0.209   6.196  0.2766  0.2843  0.3155
  140OSM    O1415271   1.797   0.100   6.139 -0.0312  0.1582 -0.1553
  140OSM    O1115272   1.924   0.026   6.335  0.4446 -0.2852  0.0064
  140OSM    O1215273   2.016  -0.015   6.107  0.1453  0.4151  0.8636
  140OSM    C1S15274   2.035  -0.006   6.419 -0.6021 -0.8925  0.6525
  140OSM    H1S15275   2.102   0.083   6.414 -1.3287 -0.2613  1.8227
  140OSM    H1T15276   2.091  -0.095   6.383 -1.2036 -1.0687  0.1391
  140OSM     NF15277   2.088  -0.029   6.658  0.7531  0.3244  0.1026
  140OSM    HNF15278   2.115  -0.118   6.694  0.7428  0.0392 -0.5869
  140OSM    C2S15279   1.982  -0.032   6.555  0.1331 -0.5728 -0.4065
  140OSM    H2S15280   1.908   0.049   6.575  0.7043  0.1293 -1.0652
  140OSM    C3S15281   1.897  -0.168   6.567 -0.3027 -0.1849  0.6685
  140OSM    H3S15282   1.966  -0.252   6.592  0.7820  0.6957  0.6807
  140OSM     O315283   1.813  -0.208   6.456 -0.2957  0.5967 -0.1737
  140OSM    HO315284   1.827  -0.143   6.387 -0.1813  0.9146  0.1468
  140OSM    C4S15285   1.803  -0.156   6.677  0.8141  0.3419 -0.5924
  140OSM    H4S15286   1.744  -0.063   6.680 -0.5336 -0.4533 -1.4486
  140OSM    C5S15287   1.786  -0.236   6.784 -0.3045 -0.2938  0.0784
  140OSM    H5S15288   1.857  -0.319   6.795 -0.2395 -0.0440  1.8047
  140OSM    C6S15289   1.694  -0.216   6.898 -0.6256  0.5443  0.3547
  140OSM    H6S15290   1.592  -0.183   6.870 -1.4003  0.8322  3.1992
  140OSM    H6T15291   1.730  -0.146   6.977 -0.6062  1.1783 -0.2127
  140OSM    C7S15292   1.662  -0.350   6.971  0.0095 -0.3438  0.1732
  140OSM    H7S15293   1.649  -0.443   6.910  0.3363  0.2775 -0.8766
  140OSM    H7T15294   1.565  -0.337   7.024 -0.1738 -2.0302  0.2924
  140OSM    C8S15295   1.754  -0.366   7.095  0.0355  0.2391 -0.3657
  140OSM    H8S15296   1.743  -0.272   7.152 -0.1384 -0.7094  1.2158
  140OSM    H8T15297   1.860  -0.373   7.062 -0.3634 -0.2647 -1.6283
  140OSM    C9S15298   1.711  -0.466   7.202  0.0963 -0.5618 -0.2790
  140OSM    H9S15299   1.707  -0.566   7.153 -0.5662 -0.8557  0.3507
  140OSM    H9T15300   1.607  -0.444   7.233 -0.1127  2.4070 -2.5916
  140OSM   C10S15301   1.805  -0.484   7.323 -0.2118  0.0426 -0.6987
  140OSM   H10S15302   1.904  -0.524   7.291  0.1093  1.6739 -1.9050
  140OSM   H10T15303   1.753  -0.542   7.402  2.6721 -2.7437 -0.6205
  140OSM   C11S15304   1.842  -0.354   7.393  0.2723  0.1427 -1.0226
  140OSM   H11S15305   1.740  -0.314   7.409 -0.4243 -1.6381 -0.7708
  140OSM   H11T15306   1.895  -0.278   7.331  0.0927  1.0986 -0.0409
  140OSM   C12S15307   1.927  -0.370   7.525 -0.3961 -0.2516 -0.9662
  140OSM   H12S15308   2.034  -0.384   7.496  0.3020  0.6974  0.9898
  140OSM   H12T15309   1.896  -0.464   7.575 -1.2890  0.9235  0.7808
  140OSM   C13S15310   1.900  -0.253   7.617  0.8440  0.2909 -0.0952
  140OSM   H13S15311   1.791  -0.245   7.638  0.6622  0.1998 -0.9674
  140OSM   H13T15312   1.923  -0.155   7.572  0.9576  0.2260 -0.1785
  140OSM   C14S15313   1.979  -0.266   7.743 -0.1668 -0.1128  0.1697
  140OSM   H14S15314   2.086  -0.283   7.719  0.2211  0.3204  1.5040
  140OSM   H14T15315   1.946  -0.359   7.795  0.2461 -0.4986 -0.2575
  140OSM   C15S15316   1.977  -0.145   7.834  0.0427 -0.1915 -0.5845
  140OSM   H15S15317   1.872  -0.129   7.868  0.5481 -0.6386  1.3114
  140OSM   H15T15318   2.009  -0.056   7.776 -1.0785  0.1807 -0.6485
  140OSM   C16S15319   2.053  -0.171   7.961 -0.1130  0.0280  0.0509
  140OSM   H16S15320   2.162  -0.158   7.940 -0.4715  1.8971 -0.8345
  140OSM   H16T15321   2.021  -0.272   7.995 -2.7695  1.5136  2.3153
  140OSM   C17S15322   2.020  -0.060   8.066 -0.5647  0.0842  0.4123
  140OSM   H17S15323   1.914  -0.078   8.094 -0.2603 -0.0687  1.5144
  140OSM   H17T15324   2.027   0.040   8.018  2.5930 -0.0115  0.4623
  140OSM   C18S15325   2.095  -0.062   8.203  0.0411 -1.2103  0.4011
  140OSM   H18S15326   2.204  -0.063   8.181 -0.2112 -1.9684 -0.9298
  140OSM   H18T15327   2.068  -0.148   8.267 -1.9980 -0.5651  0.4587
  140OSM   H18U15328   2.069   0.034   8.253 -0.0823 -2.0015  1.9211
  140OSM    C1F15329   2.151   0.084   6.678 -0.8609 -1.0383 -0.0036
  140OSM     OF15330   2.095   0.191   6.657  0.4433 -0.9482 -0.1704
  140OSM    C2F15331   2.285   0.071   6.734 -0.5314  0.3935 -0.1198
  140OSM    H2F15332   2.358   0.067   6.651  0.2457  2.9873  0.3373
  140OSM    H2G15333   2.292  -0.031   6.778  0.0415  1.1026  1.5364
  140OSM    C3F15334   2.306   0.189   6.838  0.3909 -0.2683 -0.1205
  140OSM    H3F15335   2.279   0.291   6.803  1.4314  0.2930  0.6502
  140OSM    H3G15336   2.417   0.188   6.833  0.3332 -0.4575 -2.6680
  140OSM    C4F15337   2.227   0.164   6.971  0.6886 -0.8327  0.2245
  140OSM    H4F15338   2.235   0.058   7.001  1.2440 -0.0615  3.0314
  140OSM    H4G15339   2.119   0.191   6.970  0.3150 -2.2480  0.3061
  140OSM    C5F15340   2.290   0.249   7.086 -0.0243  0.5193  0.3906
  140OSM    H5F15341   2.302   0.354   7.051  0.1065  0.9789  1.7522
  140OSM    H5G15342   2.394   0.215   7.104 -0.1729 -1.4539 -2.0655
  140OSM    C6F15343   2.206   0.254   7.208  0.4003  0.5226 -0.8125
  140OSM    H6F15344   2.162   0.154   7.229  0.7748  0.0979 -1.9438
  140OSM    H6G15345   2.118   0.317   7.185 -0.0872 -0.1590 -0.8645
  140OSM    C7F15346   2.283   0.290   7.337 -0.8561  0.0514  0.1891
  140OSM    H7F15347   2.325   0.391   7.319 -1.4832  0.2983  0.0955
  140OSM    H7G15348   2.369   0.222   7.352 -0.9910  0.1279  1.4411
  140OSM    C8F15349   2.200   0.295   7.463 -0.2966  1.0182  0.9383
  140OSM    H8F15350   2.155   0.198   7.490  0.6135  0.6739  1.2327
  140OSM    H8G15351   2.118   0.368   7.441 -0.2192  1.0717  0.8248
  140OSM    C9F15352   2.274   0.336   7.585  0.1715 -0.7228 -0.3626
  140OSM    H9F15353   2.315   0.438   7.576  1.2596 -1.2760 -2.3120
  140OSM   C10F15354   2.306   0.269   7.699 -0.2019 -0.1239  0.0748
  140OSM   H10F15355   2.364   0.323   7.775 -1.3824  1.5755 -0.1719
  140OSM   C11F15356   2.256   0.129   7.733 -0.3339  0.2568 -0.7676
  140OSM   H11F15357   2.161   0.104   7.681  0.3929 -1.3200 -1.4356
  140OSM   H11G15358   2.229   0.132   7.840  0.2585  2.0840 -0.6371
  140OSM   C12F15359   2.367   0.030   7.703 -0.1474  0.1418 -0.6814
  140OSM   H12F15360   2.349  -0.056   7.771  0.5061 -1.1880 -2.1152
  140OSM   H12G15361   2.470   0.063   7.729  0.1424 -1.4081  0.2641
  140OSM   C13F15362   2.371  -0.011   7.554  0.9108 -1.2258  0.0367
  140OSM   H13F15363   2.412   0.076   7.498 -0.3591 -0.6362 -0.0078
  140OSM   H13G15364   2.270  -0.028   7.510  2.2764 -1.4408 -3.3854
  140OSM   C14F15365   2.460  -0.129   7.520  0.6569 -0.5395 -0.1462
  140OSM   H14F15366   2.428  -0.221   7.573 -1.2032  0.0930 -0.0898
  140OSM   H14G15367   2.564  -0.107   7.552 -0.3845  4.6405  0.6116
  140OSM   C15F15368   2.450  -0.166   7.377 -0.2050 -1.0559  0.2749
  140OSM   H15F15369   2.344  -0.182   7.346 -0.1582 -0.2750 -0.3110
  140OSM   H15G15370   2.508  -0.260   7.360  0.1793 -1.0151  1.2829
  140OSM   C16F15371   2.506  -0.058   7.279 -0.1129 -0.3287 -0.7056
  140OSM   H16F15372   2.596  -0.009   7.323 -0.5919  1.3573 -1.5210
  140OSM   H16G15373   2.434   0.027   7.280 -2.2285 -1.9990  1.5132
  140OSM   C17F15374   2.523  -0.096   7.129  0.2762  0.2992  0.6591
  140OSM   H17F15375   2.495  -0.002   7.078 -3.6024 -0.4159  1.1509
  140OSM   H17G15376   2.442  -0.164   7.095 -0.4101  1.6322 -0.4542
  140OSM   C18F15377   2.660  -0.143   7.080  0.6442  0.4635 -0.7800
  140OSM   H18F15378   2.667  -0.143   6.969 -0.5667  2.0496 -0.8809
  140OSM   H18G15379   2.690  -0.243   7.119  2.5485  1.5278  0.6613
  140OSM   H18H15380   2.742  -0.077   7.116  0.1539  0.6251  0.0795
  141OSM      N15381   2.430   1.149   5.955 -0.4443 -0.3779 -0.1442
  141OSM    C1515382   2.474   1.274   5.891  0.1233  0.1595  0.2506
  141OSM   H15A15383   2.394   1.311   5.829 -1.0496 -2.6088 -0.0245
  141OSM   H15B15384   2.559   1.254   5.827 -0.3756  1.0804 -0.7415
  141OSM   H15C15385   2.490   1.357   5.959 -0.3572  0.0728  0.4721
  141OSM    C1415386   2.283   1.157   5.970 -0.0770  0.7343  0.0625
  141OSM   H14A15387   2.257   1.245   6.026  0.8478  2.4792 -2.1208
  141OSM   H14B15388   2.251   1.064   6.016 -0.1575  0.1106 -1.2133
  141OSM   H14C15389   2.239   1.158   5.871  3.0811  0.3579 -1.4652
  141OSM    C1315390   2.465   1.030   5.867 -0.0144 -0.0727  0.0723
  141OSM   H13A15391   2.434   0.943   5.924 -1.6893 -0.6772 -1.6438
  141OSM   H13B15392   2.570   1.027   5.845  0.2164 -0.9194  1.2130
  141OSM   H13C15393   2.425   1.037   5.767  0.2391 -0.3005 -0.0471
  141OSM    C1215394   2.505   1.142   6.090 -0.0071 -0.8304 -0.6232
  141OSM   H12A15395   2.609   1.129   6.067  0.0113  0.7858 -1.6057
  141OSM   H12B15396   2.469   1.050   6.133 -0.6200 -1.4072 -2.2878
  141OSM    C1115397   2.507   1.264   6.179  0.7698  0.3632 -0.4369
  141OSM   H11A15398   2.521   1.231   6.285 -1.2434  0.3177 -0.1499
  141OSM   H11B15399   2.402   1.300   6.172 -0.9444 -4.1597 -2.3759
  141OSM      P15400   2.605   1.511   6.175 -0.5786 -0.0245  0.2375
  141OSM    O1315401   2.739   1.534   6.232  0.6057  0.7745 -0.8341
  141OSM    O1415402   2.566   1.595   6.067  0.7064 -0.5140  0.1082
  141OSM    O1115403   2.497   1.531   6.287 -0.1745  0.3333 -0.3767
  141OSM    O1215404   2.607   1.363   6.137 -0.2199  0.3424  0.3787
  141OSM    C1S15405   2.495   1.469   6.417  0.0046  0.0011  0.0649
  141OSM    H1S15406   2.581   1.400   6.429  0.4755  0.7595  1.2770
  141OSM    H1T15407   2.412   1.396   6.430  1.4066 -2.3877 -3.0657
  141OSM     NF15408   2.493   1.482   6.656  0.0222  0.0980 -0.7764
  141OSM    HNF15409   2.415   1.467   6.716  0.0635 -0.5402 -0.8654
  141OSM    C2S15410   2.475   1.564   6.537 -0.3250  0.3888  0.3122
  141OSM    H2S15411   2.558   1.638   6.538 -0.1905  0.2652  2.2444
  141OSM    C3S15412   2.346   1.643   6.525 -0.5373 -0.2081 -0.1661
  141OSM    H3S15413   2.256   1.579   6.538 -2.2114  1.7086 -1.7157
  141OSM     O315414   2.327   1.709   6.396  0.3303 -0.2541 -0.9496
  141OSM    HO315415   2.413   1.709   6.354  0.8007 -0.8984 -0.0288
  141OSM    C4S15416   2.334   1.752   6.630 -0.3509 -0.1599  0.3353
  141OSM    H4S15417   2.372   1.849   6.594  1.0383  0.1060  2.3225
  141OSM    C5S15418   2.261   1.737   6.740 -0.8941  0.0749 -0.2766
  141OSM    H5S15419   2.222   1.639   6.773 -0.3731 -0.0740 -0.0983
  141OSM    C6S15420   2.233   1.854   6.830  0.8258 -0.5436  0.5320
  141OSM    H6S15421   2.124   1.873   6.826  0.5335 -1.6504  2.3450
  141OSM    H6T15422   2.270   1.952   6.793  0.6353 -1.7422 -3.2840
  141OSM    C7S15423   2.272   1.836   6.978  0.4666  0.1060  0.6171
  141OSM    H7S15424   2.379   1.805   6.981  0.4329  0.0410  1.3637
  141OSM    H7T15425   2.216   1.752   7.024 -0.9024  0.3134 -0.6199
  141OSM    C8S15426   2.255   1.958   7.070 -0.1169  0.4842  0.5722
  141OSM    H8S15427   2.149   1.990   7.077 -0.3932 -0.3453  0.2519
  141OSM    H8T15428   2.307   2.041   7.017 -0.7062 -1.5243 -3.5789
  141OSM    C9S15429   2.307   1.942   7.210  0.4496 -0.2894  0.1186
  141OSM    H9S15430   2.418   1.937   7.219  0.6320  0.4154 -1.4511
  141OSM    H9T15431   2.274   1.839   7.238  2.7227 -0.8349  1.0357
  141OSM   C10S15432   2.252   2.053   7.307  0.3270 -0.5497 -0.3100
  141OSM   H10S15433   2.147   2.024   7.329  0.9890 -2.0301  1.1161
  141OSM   H10T15434   2.262   2.147   7.249  1.5325 -0.5887 -0.1800
  141OSM   C11S15435   2.334   2.059   7.438  0.6081  0.3200  0.3733
  141OSM   H11S15436   2.439   2.087   7.417  1.2403 -1.7302  0.5595
  141OSM   H11T15437   2.350   1.960   7.487 -0.2660 -0.1260 -0.2153
  141OSM   C12S15438   2.274   2.162   7.532  0.4261  0.6944 -0.0357
  141OSM   H12S15439   2.170   2.132   7.556  0.8339 -1.2440 -0.4752
  141OSM   H12T15440   2.275   2.266   7.494  1.5573  0.6843 -0.0694
  141OSM   C13S15441   2.348   2.145   7.674  0.0758 -0.5714  0.2526
  141OSM   H13S15442   2.458   2.148   7.660 -0.0876  1.3647 -0.8922
  141OSM   H13T15443   2.304   2.054   7.720 -0.4264 -0.7255 -0.5189
  141OSM   C14S15444   2.321   2.257   7.774 -0.3119 -0.2650 -0.7059
  141OSM   H14S15445   2.213   2.266   7.794  0.1237 -0.4890  2.0941
  141OSM   H14T15446   2.364   2.356   7.746  2.1948 -0.7747  1.0022
  141OSM   C15S15447   2.394   2.214   7.908  0.2069 -0.2503 -0.0740
  141OSM   H15S15448   2.502   2.202   7.886  0.2707  1.4792 -0.8898
  141OSM   H15T15449   2.350   2.115   7.932  0.6388 -1.3533 -3.3395
  141OSM   C16S15450   2.380   2.308   8.029 -0.6507  0.0956 -0.1235
  141OSM   H16S15451   2.272   2.320   8.052 -0.7931 -1.2848 -0.0413
  141OSM   H16T15452   2.421   2.410   8.011 -2.3987  0.9257  0.4117
  141OSM   C17S15453   2.453   2.250   8.154 -0.2440 -0.2789  0.3862
  141OSM   H17S15454   2.558   2.229   8.125 -1.1610 -2.2316 -1.8930
  141OSM   H17T15455   2.405   2.152   8.172 -2.6100  0.9991  1.4940
  141OSM   C18S15456   2.433   2.338   8.281  0.0166  0.9305  0.0615
  141OSM   H18S15457   2.488   2.433   8.262 -1.5083  1.7277 -0.4754
  141OSM   H18T15458   2.480   2.285   8.367 -3.2225 -1.2005  0.7028
  141OSM   H18U15459   2.328   2.354   8.313 -0.3025 -1.1320  0.1830
  141OSM    C1F15460   2.613   1.417   6.686  0.6151 -0.6553 -0.2998
  141OSM     OF15461   2.715   1.449   6.627  0.4244  0.4355  0.1887
  141OSM    C2F15462   2.608   1.304   6.789  0.5842  0.2290  0.1464
  141OSM    H2F15463   2.575   1.210   6.741 -1.6579 -0.6421  3.0724
  141OSM    H2G15464   2.531   1.335   6.863  1.2818 -1.2877  1.5575
  141OSM    C3F15465   2.735   1.292   6.869  0.0254  0.5622  0.4116
  141OSM    H3F15466   2.770   1.381   6.926  0.5792  1.3793 -1.1490
  141OSM    H3G15467   2.808   1.264   6.789  1.0915 -0.6165  1.7427
  141OSM    C4F15468   2.724   1.165   6.953 -0.0309  0.2869  0.3973
  141OSM    H4F15469   2.823   1.117   6.966  0.0979 -0.0147 -1.4350
  141OSM    H4G15470   2.666   1.086   6.900  1.6085 -0.8923  0.3097
  141OSM    C5F15471   2.648   1.190   7.082 -0.7050 -0.7567 -0.6745
  141OSM    H5F15472   2.570   1.114   7.106 -1.1800  0.4360  1.9385
  141OSM    H5G15473   2.592   1.286   7.074  1.7503  0.9545  1.1332
  141OSM    C6F15474   2.741   1.196   7.209  0.3571 -0.4260 -0.5106
  141OSM    H6F15475   2.831   1.256   7.183 -0.4138  1.3105  0.5872
  141OSM    H6G15476   2.771   1.093   7.237  1.0694 -0.0002  0.3411
  141OSM    C7F15477   2.674   1.273   7.329  0.1461  0.3053  0.4598
  141OSM    H7F15478   2.604   1.350   7.290 -1.0481 -0.5822  0.8002
  141OSM    H7G15479   2.758   1.322   7.384  1.4281  0.1860 -1.3089
  141OSM    C8F15480   2.606   1.175   7.425 -0.1824  0.6483 -0.9612
  141OSM    H8F15481   2.672   1.089   7.449 -1.2537  0.7488  2.9781
  141OSM    H8G15482   2.513   1.128   7.385 -0.2469 -2.8597  2.7049
  141OSM    C9F15483   2.558   1.249   7.547 -0.7462 -0.4707  0.5371
  141OSM    H9F15484   2.485   1.328   7.524  0.1356  0.8607  2.0646
  141OSM   C10F15485   2.597   1.242   7.672 -0.8518  0.0848 -0.4599
  141OSM   H10F15486   2.544   1.310   7.741 -1.9000 -1.3337  0.1855
  141OSM   C11F15487   2.694   1.140   7.727 -0.2701  0.3070  0.0196
  141OSM   H11F15488   2.786   1.192   7.761 -0.0155 -0.7899  1.1008
  141OSM   H11G15489   2.730   1.071   7.647  0.0729  1.7308 -1.0861
  141OSM   C12F15490   2.623   1.048   7.836  0.3920 -0.2328  0.3400
  141OSM   H12F15491   2.705   0.978   7.864  1.4946  1.1417  0.6468
  141OSM   H12G15492   2.527   1.003   7.805  1.5715 -2.4596 -0.2995
  141OSM   C13F15493   2.590   1.127   7.964 -0.2437  1.1627 -0.4465
  141OSM   H13F15494   2.508   1.195   7.933 -0.2961  0.1413 -2.7601
  141OSM   H13G15495   2.682   1.177   8.001  0.0418  0.1432  0.2465
  141OSM   C14F15496   2.549   1.031   8.080 -0.5274 -0.3470  0.1247
  141OSM   H14F15497   2.637   0.973   8.115  1.0068  2.0138  0.4877
  141OSM   H14G15498   2.487   0.962   8.019  1.2932 -0.9182 -1.1963
  141OSM   C15F15499   2.482   1.094   8.212 -0.3673  0.5953 -0.6150
  141OSM   H15F15500   2.401   1.163   8.180  1.5354  3.0127 -0.5348
  141OSM   H15G15501   2.563   1.152   8.263  0.4422  0.3772 -1.6246
  141OSM   C16F15502   2.402   1.000   8.307 -0.3062 -0.2452 -0.1456
  141OSM   H16F15503   2.464   0.908   8.315 -0.7478 -0.6906 -1.5503
  141OSM   H16G15504   2.314   0.981   8.242 -0.0714 -1.2920 -0.1872
  141OSM   C17F15505   2.359   1.062   8.440 -0.3189 -0.6060  0.2203
  141OSM   H17F15506   2.324   0.974   8.497 -1.7531 -0.5798 -0.5851
  141OSM   H17G15507   2.277   1.134   8.418 -1.0048 -1.8641 -1.4906
  141OSM   C18F15508   2.478   1.123   8.515  0.4644  0.3221  0.3776
  141OSM   H18F15509   2.568   1.057   8.522  1.8652  2.0204 -0.6075
  141OSM   H18G15510   2.450   1.154   8.618  0.3667 -1.3879  0.8962
  141OSM   H18H15511   2.513   1.213   8.460  1.2928  0.3814  0.9817
  142OSM      N15512   2.955   2.726   5.995  0.1548 -0.1007  0.2406
  142OSM    C1515513   3.075   2.805   5.958 -0.0972 -0.4867 -0.1091
  142OSM   H15A15514   3.173   2.784   5.996  0.4580  0.7927 -0.7655
  142OSM   H15B15515   3.059   2.910   5.981 -0.4731  0.4204 -3.7948
  142OSM   H15C15516   3.081   2.807   5.850 -2.1319 -4.1143 -0.4307
  142OSM    C1415517   2.828   2.805   5.971 -0.5596  0.7888 -0.5115
  142OSM   H14A15518   2.809   2.859   6.062 -1.1593 -0.4273  0.1084
  142OSM   H14B15519   2.744   2.738   5.976 -0.5717  0.9260  2.4396
  142OSM   H14C15520   2.839   2.871   5.886  0.7331 -1.1299 -1.9236
  142OSM    C1315521   2.939   2.611   5.905 -0.1718  0.5868  0.1443
  142OSM   H13A15522   3.036   2.568   5.886 -1.0505 -1.6205  0.4081
  142OSM   H13B15523   2.888   2.627   5.812 -0.0827 -0.3606 -0.0806
  142OSM   H13C15524   2.882   2.534   5.955 -2.4575  1.1985 -1.3868
  142OSM    C1215525   2.947   2.696   6.145 -0.5687 -0.0406 -0.0437
  142OSM   H12A15526   3.012   2.612   6.169  1.3097  1.2985 -0.2171
  142OSM   H12B15527   2.849   2.658   6.169 -0.2969 -0.1556  0.9105
  142OSM    C1115528   2.964   2.806   6.250 -0.1240  0.3035  0.3192
  142OSM   H11A15529   3.052   2.874   6.242 -0.4685  0.8689  1.1014
  142OSM   H11B15530   2.986   2.765   6.351 -1.3487  0.7680  0.8009
  142OSM      P15531   2.719   2.813   6.331 -0.2701  0.5286 -0.0652
  142OSM    O1315532   2.595   2.857   6.269 -0.1882 -0.3852 -0.1517
  142OSM    O1415533   2.745   2.672   6.355 -0.2536  0.5249  0.5370
  142OSM    O1115534   2.722   2.882   6.473  0.5728  0.6527 -0.3451
  142OSM    O1215535   2.841   2.876   6.252 -0.1058  0.0698  0.2047
  142OSM    C1S15536   2.826   2.960   6.531 -0.5639  0.2883  0.4274
  142OSM    H1S15537   2.802   3.068   6.525 -0.1173  0.4341  1.1354
  142OSM    H1T15538   2.919   2.953   6.470 -0.0216 -0.1226  1.2749
  142OSM     NF15539   2.898   3.052   6.757  0.6504 -1.1387  0.3389
  142OSM    HNF15540   2.996   3.060   6.774  0.6613 -0.8211  0.1288
  142OSM    C2S15541   2.848   2.932   6.686 -0.1688 -0.0080 -0.0167
  142OSM    H2S15542   2.750   2.909   6.731  0.7818 -0.5295  1.8932
  142OSM    C3S15543   2.943   2.809   6.687 -0.2082 -0.2495 -0.1101
  142OSM    H3S15544   3.043   2.844   6.655  0.4044  1.4569  3.1338
  142OSM     O315545   2.907   2.694   6.614  0.0591 -0.2631 -0.4084
  142OSM    HO315546   2.834   2.731   6.564  0.6107  2.9587  0.8974
  142OSM    C4S15547   2.962   2.772   6.835  0.0613  1.0058 -0.0932
  142OSM    H4S15548   3.061   2.797   6.876 -0.0133  0.2831  0.5615
  142OSM    C5S15549   2.872   2.712   6.913  0.3017  0.5163 -0.1706
  142OSM    H5S15550   2.780   2.668   6.871  0.6551 -0.0187 -0.4024
  142OSM    C6S15551   2.889   2.690   7.062 -0.9860 -0.2098  0.3090
  142OSM    H6S15552   2.950   2.601   7.088  0.0846  0.3238 -0.3212
  142OSM    H6T15553   2.795   2.672   7.118  0.4190  0.4681  3.0691
  142OSM    C7S15554   2.964   2.804   7.137  0.0038  0.4180  0.4635
  142OSM    H7S15555   2.904   2.897   7.124 -0.2966  0.2814  0.8411
  142OSM    H7T15556   3.063   2.836   7.096  0.8972 -1.8401  0.7352
  142OSM    C8S15557   2.971   2.762   7.288  0.0874  0.0475  0.2460
  142OSM    H8S15558   2.882   2.706   7.325 -0.5729 -0.8407 -2.4635
  142OSM    H8T15559   2.976   2.853   7.351  1.1435 -0.8291  1.5081
  142OSM    C9S15560   3.099   2.686   7.309 -0.5196  0.7646  0.5283
  142OSM    H9S15561   3.180   2.751   7.269 -2.0952  1.1710 -2.3057
  142OSM    H9T15562   3.105   2.587   7.258 -2.0320  0.2417  1.2996
  142OSM   C10S15563   3.124   2.637   7.458 -0.4257  0.0607  0.2359
  142OSM   H10S15564   3.105   2.527   7.464  1.9513 -0.3700  1.1405
  142OSM   H10T15565   3.059   2.684   7.534 -2.4082  0.4391 -1.6188
  142OSM   C11S15566   3.267   2.664   7.512 -0.1851  0.1661 -0.1208
  142OSM   H11S15567   3.287   2.773   7.525  0.8779 -0.1124  0.7441
  142OSM   H11T15568   3.339   2.623   7.438  0.3869  1.5818 -0.3896
  142OSM   C12S15569   3.295   2.595   7.647 -0.1191 -0.1483 -0.2611
  142OSM   H12S15570   3.226   2.632   7.726  1.2314  1.5445  0.2106
  142OSM   H12T15571   3.398   2.631   7.668 -1.4833  3.5627  0.8941
  142OSM   C13S15572   3.292   2.441   7.648  0.3205  0.5658 -0.3121
  142OSM   H13S15573   3.375   2.396   7.590  1.0668  2.1351 -0.5016
  142OSM   H13T15574   3.192   2.409   7.612  0.1282 -1.0407  1.4540
  142OSM   C14S15575   3.293   2.387   7.792  0.2374 -0.0708  0.5370
  142OSM   H14S15576   3.263   2.281   7.806  0.9854 -0.1997  1.2515
  142OSM   H14T15577   3.229   2.443   7.863 -0.9604 -0.0951 -0.4984
  142OSM   C15S15578   3.433   2.403   7.857  0.2662 -0.4621 -0.7807
  142OSM   H15S15579   3.464   2.509   7.851  0.5524 -0.5680 -1.2290
  142OSM   H15T15580   3.504   2.349   7.791  2.3897  1.9269 -0.6091
  142OSM   C16S15581   3.447   2.346   7.998 -0.1081 -0.2300  0.6601
  142OSM   H16S15582   3.427   2.236   7.993  2.4660 -0.7278 -3.6007
  142OSM   H16T15583   3.378   2.400   8.067  1.0467  0.6439  1.1464
  142OSM   C17S15584   3.588   2.376   8.054  0.1090  0.2913  0.6753
  142OSM   H17S15585   3.603   2.339   8.157  0.1150 -2.1663 -0.1581
  142OSM   H17T15586   3.610   2.485   8.042 -0.1391  0.2902  0.1586
  142OSM   C18S15587   3.699   2.302   7.971 -0.4422 -0.2619  0.6718
  142OSM   H18S15588   3.794   2.319   8.026 -0.4637 -1.9605  1.2961
  142OSM   H18T15589   3.712   2.343   7.869 -0.2104  0.7732  1.1015
  142OSM   H18U15590   3.679   2.193   7.976 -0.1280 -0.4064 -0.8737
  142OSM    C1F15591   2.826   3.165   6.763 -0.7150 -0.2801 -0.0436
  142OSM     OF15592   2.712   3.167   6.723 -0.2557 -0.3579  0.4802
  142OSM    C2F15593   2.893   3.288   6.818 -0.1957  0.1512 -0.1065
  142OSM    H2F15594   2.938   3.350   6.737  0.2184 -0.3901 -0.3010
  142OSM    H2G15595   2.986   3.259   6.870 -0.5922 -2.1318 -0.5711
  142OSM    C3F15596   2.799   3.370   6.905  0.2986  0.6512  0.3281
  142OSM    H3F15597   2.703   3.368   6.849 -0.0754 -1.6470  0.9524
  142OSM    H3G15598   2.838   3.474   6.913  0.0516  0.9712 -2.0626
  142OSM    C4F15599   2.790   3.320   7.054  1.2445  0.3641  0.5725
  142OSM    H4F15600   2.797   3.209   7.059  0.8477  0.2907 -0.2432
  142OSM    H4G15601   2.696   3.349   7.106 -0.0204  0.3717 -1.6045
  142OSM    C5F15602   2.912   3.391   7.129  0.9176 -0.6802  0.3460
  142OSM    H5F15603   2.891   3.499   7.118  1.1594 -0.7963 -1.6643
  142OSM    H5G15604   3.010   3.366   7.084 -1.0257 -1.5258 -3.9174
  142OSM    C6F15605   2.922   3.355   7.275 -0.8676  0.1601 -0.7937
  142OSM    H6F15606   2.935   3.245   7.276 -0.7548  0.1691 -1.4782
  142OSM    H6G15607   2.820   3.378   7.313 -1.2003  0.3918 -1.8081
  142OSM    C7F15608   3.027   3.436   7.358  0.2051 -0.0299  0.1420
  142OSM    H7F15609   3.014   3.545   7.340  1.8351 -0.2183 -2.7880
  142OSM    H7G15610   3.125   3.401   7.320 -0.1686  1.6097 -2.6244
  142OSM    C8F15611   3.007   3.399   7.509  0.0579 -0.7862  0.2219
  142OSM    H8F15612   3.102   3.388   7.566 -0.1813 -1.5298  0.5036
  142OSM    H8G15613   2.968   3.296   7.493 -1.1076 -0.5187  1.1452
  142OSM    C9F15614   2.900   3.472   7.584  0.8565  1.0193  0.7602
  142OSM    H9F15615   2.834   3.523   7.513 -0.5665  0.1106  1.3927
  142OSM   C10F15616   2.901   3.506   7.712 -0.2181 -0.3679  0.1661
  142OSM   H10F15617   2.807   3.552   7.747 -1.4636 -2.6872  0.1125
  142OSM   C11F15618   2.998   3.452   7.815  0.1016 -0.3211 -0.3709
  142OSM   H11F15619   3.098   3.499   7.803  0.7778 -1.0811  1.8925
  142OSM   H11G15620   3.012   3.343   7.806  0.8098 -0.4867  2.1562
  142OSM   C12F15621   2.971   3.456   7.967 -0.2857 -0.6051 -0.1991
  142OSM   H12F15622   3.055   3.419   8.030 -0.7550  0.2091  0.9519
  142OSM   H12G15623   2.875   3.409   7.999 -0.6892 -0.4402 -1.1400
  142OSM   C13F15624   2.941   3.595   8.022  0.5872 -0.1280  0.7616
  142OSM   H13F15625   2.845   3.627   7.977  0.7666 -0.2944  0.2556
  142OSM   H13G15626   3.008   3.675   7.983 -0.5524 -0.2569 -1.6645
  142OSM   C14F15627   2.922   3.605   8.174 -0.3865  0.9340  0.3417
  142OSM   H14F15628   2.896   3.705   8.216  0.4224  0.3867  2.2621
  142OSM   H14G15629   3.012   3.567   8.226  0.3638  1.0001 -0.8790
  142OSM   C15F15630   2.812   3.504   8.221  0.2572 -0.0821 -1.2961
  142OSM   H15F15631   2.793   3.533   8.326 -2.4796  1.2388 -2.0570
  142OSM   H15G15632   2.850   3.400   8.231 -0.7416 -0.6278 -2.7454
  142OSM   C16F15633   2.673   3.531   8.160  0.4010 -0.6020 -0.1019
  142OSM   H16F15634   2.585   3.469   8.187 -0.7819 -0.1023 -2.6118
  142OSM   H16G15635   2.686   3.504   8.053 -0.3735  0.0733 -0.3741
  142OSM   C17F15636   2.615   3.674   8.194  0.4505  0.5758  0.3042
  142OSM   H17F15637   2.679   3.747   8.140 -0.3304  1.0502  0.0041
  142OSM   H17G15638   2.628   3.693   8.303  0.6614 -1.6941  0.7196
  142OSM   C18F15639   2.485   3.697   8.124  0.7448 -0.2571 -0.1141
  142OSM   H18F15640   2.471   3.632   8.036 -0.3102 -2.4772  1.5851
  142OSM   H18G15641   2.469   3.801   8.089  2.1593  0.1623  0.4147
  142OSM   H18H15642   2.401   3.679   8.195  0.3659  2.2010  0.1456
  143OSM      N15643   3.467   5.174   5.847 -0.2117  0.2519 -0.0514
  143OSM    C1515644   3.527   5.288   5.766 -0.0545  0.4177 -0.7778
  143OSM   H15A15645   3.635   5.295   5.773 -0.1073 -0.0946  0.9034
  143OSM   H15B15646   3.491   5.387   5.788  2.6137  1.4739 -0.8076
  143OSM   H15C15647   3.509   5.275   5.660  1.7397 -0.7474 -0.9923
  143OSM    C1415648   3.332   5.160   5.791  0.2694  1.0199 -0.6569
  143OSM   H14A15649   3.280   5.073   5.830 -0.5421  1.1402 -1.4400
  143OSM   H14B15650   3.337   5.143   5.685 -0.3700 -3.9022 -0.1427
  143OSM   H14C15651   3.264   5.239   5.821 -0.4729  0.1154  0.1360
  143OSM    C1315652   3.543   5.044   5.830 -0.8958 -0.0433 -0.6324
  143OSM   H13A15653   3.500   4.967   5.891  2.7975  0.9220  3.7257
  143OSM   H13B15654   3.632   5.059   5.888 -0.9920 -0.2105 -0.4437
  143OSM   H13C15655   3.582   5.019   5.732  2.1997 -0.4591  0.6201
  143OSM    C1215656   3.454   5.207   5.989 -0.6805 -0.7201 -0.6739
  143OSM   H12A15657   3.413   5.117   6.032 -0.7141 -0.3850  0.0070
  143OSM   H12B15658   3.392   5.294   6.007  0.2219  0.0696 -1.2484
  143OSM    C1115659   3.596   5.224   6.052 -0.2705 -0.4035 -0.2992
  143OSM   H11A15660   3.580   5.282   6.145  2.2417  0.1251 -0.1414
  143OSM   H11B15661   3.658   5.295   5.994  0.5297 -0.0888  0.9080
  143OSM      P15662   3.670   5.009   6.198  0.3631 -0.2143  0.1224
  143OSM    O1315663   3.764   4.896   6.168 -0.0385 -0.0680 -0.0518
  143OSM    O1415664   3.696   5.078   6.325 -0.1644  0.0129  0.0930
  143OSM    O1115665   3.516   4.956   6.195 -0.1931 -0.4491 -0.0634
  143OSM    O1215666   3.671   5.105   6.069  0.0154  0.0941  0.8139
  143OSM    C1S15667   3.495   4.829   6.256  0.6069  0.1890 -0.2346
  143OSM    H1S15668   3.566   4.753   6.216 -1.5073 -1.7482 -0.5204
  143OSM    H1T15669   3.398   4.792   6.214  0.9251 -0.8312 -0.0904
  143OSM     NF15670   3.442   4.702   6.466  0.4339 -0.0883 -0.0676
  143OSM    HNF15671   3.346   4.690   6.488  0.1444  1.0069 -0.6752
  143OSM    C2S15672   3.470   4.836   6.409 -0.0700  0.2049 -0.4956
  143OSM    H2S15673   3.559   4.882   6.458 -1.3072 -0.2142  2.3045
  143OSM    C3S15674   3.355   4.941   6.433  0.6306 -0.1713  0.1167
  143OSM    H3S15675   3.262   4.881   6.422  0.9614 -0.6758  0.0797
  143OSM     O315676   3.332   5.055   6.350 -0.1723  0.1872  0.2269
  143OSM    HO315677   3.398   5.046   6.281  0.4838  1.4332  0.6552
  143OSM    C4S15678   3.358   4.981   6.574 -0.0186 -0.3306 -0.5136
  143OSM    H4S15679   3.428   5.064   6.597 -2.0853  0.6953  2.9011
  143OSM    C5S15680   3.286   4.933   6.674 -0.1807  0.3077 -0.4161
  143OSM    H5S15681   3.200   4.871   6.645 -0.3062  1.0866 -1.8166
  143OSM    C6S15682   3.295   4.965   6.821 -0.9183  1.0003  0.2816
  143OSM    H6S15683   3.361   4.887   6.864 -0.9155  1.5451  1.2870
  143OSM    H6T15684   3.200   4.950   6.875 -0.8377  2.1311  0.7623
  143OSM    C7S15685   3.345   5.110   6.861  0.1266 -0.1745 -0.6054
  143OSM    H7S15686   3.289   5.189   6.807  0.0882  1.3218  1.5150
  143OSM    H7T15687   3.449   5.100   6.823  0.5401  0.5305  0.3104
  143OSM    C8S15688   3.358   5.137   7.014 -0.4519 -0.4195  0.6870
  143OSM    H8S15689   3.406   5.055   7.071  1.1934 -1.8040 -2.4483
  143OSM    H8T15690   3.259   5.123   7.062 -1.1687  1.3266 -0.1894
  143OSM    C9S15691   3.425   5.268   7.046 -0.7277  0.2118 -0.4376
  143OSM    H9S15692   3.388   5.337   6.967 -0.6406 -0.2697 -0.9017
  143OSM    H9T15693   3.534   5.258   7.030 -0.8255 -0.0912 -0.9376
  143OSM   C10S15694   3.395   5.339   7.176 -0.6056  1.0099  0.4512
  143OSM   H10S15695   3.447   5.287   7.259 -2.4254 -1.7546 -0.0290
  143OSM   H10T15696   3.292   5.329   7.217  0.1460 -0.9768  2.0452
  143OSM   C11S15697   3.460   5.478   7.185 -0.3961 -0.0264 -0.6131
  143OSM   H11S15698   3.388   5.554   7.147 -1.6493 -1.7356 -1.8052
  143OSM   H11T15699   3.556   5.497   7.133  0.2491  0.9772  0.8589
  143OSM   C12S15700   3.504   5.512   7.331 -0.5000  0.3741 -0.4184
  143OSM   H12S15701   3.555   5.610   7.329  1.0415 -0.4222 -1.4170
  143OSM   H12T15702   3.581   5.445   7.374 -0.1203  0.5686 -0.7932
  143OSM   C13S15703   3.383   5.516   7.424  0.0841 -0.0192 -0.8038
  143OSM   H13S15704   3.325   5.422   7.439 -0.6771  0.3006 -1.6779
  143OSM   H13T15705   3.311   5.593   7.389 -0.9353 -2.5748 -5.1323
  143OSM   C14S15706   3.431   5.542   7.573  0.0690  0.1256  0.0122
  143OSM   H14S15707   3.349   5.588   7.631  1.2240  2.3521 -0.0111
  143OSM   H14T15708   3.521   5.607   7.580  0.3754 -0.2429 -0.4109
  143OSM   C15S15709   3.469   5.418   7.650  0.6195  0.4267 -0.3165
  143OSM   H15S15710   3.568   5.384   7.611  0.2542  0.5472 -1.4057
  143OSM   H15T15711   3.398   5.333   7.637  1.3288 -0.3329  0.6185
  143OSM   C16S15712   3.491   5.438   7.802  0.1354  0.1256  0.4927
  143OSM   H16S15713   3.506   5.341   7.853  0.0794 -1.1165 -1.7151
  143OSM   H16T15714   3.395   5.477   7.841 -0.2393  0.0554 -0.3346
  143OSM   C17S15715   3.596   5.530   7.847 -0.5383 -0.1167 -0.0937
  143OSM   H17S15716   3.555   5.600   7.923 -3.3575 -2.0133  0.2860
  143OSM   H17T15717   3.633   5.600   7.769  0.8430  0.0715  0.6890
  143OSM   C18S15718   3.716   5.464   7.912  0.2919  0.4844 -0.0966
  143OSM   H18S15719   3.791   5.541   7.938  0.5515  0.4382 -0.6998
  143OSM   H18T15720   3.750   5.382   7.844 -1.2002 -1.1473  1.0330
  143OSM   H18U15721   3.683   5.425   8.011  1.2298 -1.5415 -0.5333
  143OSM    C1F15722   3.531   4.607   6.462 -0.9789  0.1218 -0.4358
  143OSM     OF15723   3.640   4.624   6.426  0.5124 -0.5120 -0.4107
  143OSM    C2F15724   3.498   4.472   6.517 -0.4931 -0.0487 -0.2731
  143OSM    H2F15725   3.428   4.425   6.445 -0.2356  1.4827 -1.5711
  143OSM    H2G15726   3.434   4.489   6.606  0.5143  0.2466  0.4142
  143OSM    C3F15727   3.613   4.375   6.567  0.5601  0.4839  0.9556
  143OSM    H3F15728   3.686   4.371   6.483  0.8122 -1.3142  1.2216
  143OSM    H3G15729   3.573   4.272   6.581 -1.3240  1.1180  0.5477
  143OSM    C4F15730   3.692   4.426   6.684  0.3251  0.0804 -0.3187
  143OSM    H4F15731   3.693   4.537   6.692 -0.0946  0.2277 -1.9035
  143OSM    H4G15732   3.800   4.402   6.680  0.3182 -0.2741  1.1475
  143OSM    C5F15733   3.645   4.371   6.824 -0.2972 -0.3637  0.7230
  143OSM    H5F15734   3.651   4.260   6.818  1.0077 -0.2770  0.0848
  143OSM    H5G15735   3.541   4.393   6.855  0.0541  0.1878  1.5747
  143OSM    C6F15736   3.745   4.415   6.937 -0.4543 -0.1484 -0.1101
  143OSM    H6F15737   3.730   4.523   6.959 -3.0110 -0.1901 -1.2843
  143OSM    H6G15738   3.853   4.400   6.916  0.3374  3.2557  0.8945
  143OSM    C7F15739   3.713   4.351   7.078 -0.5923 -0.2580 -0.4469
  143OSM    H7F15740   3.743   4.244   7.083  1.9937  0.4631  1.4533
  143OSM    H7G15741   3.604   4.355   7.099 -0.2360 -0.9538  1.8135
  143OSM    C8F15742   3.795   4.434   7.190 -0.7346  0.5219  0.1390
  143OSM    H8F15743   3.773   4.541   7.168 -0.4016  0.1231 -2.4862
  143OSM    H8G15744   3.903   4.425   7.165 -1.0341  1.5423 -1.7672
  143OSM    C9F15745   3.782   4.381   7.336 -0.2547 -0.3449 -0.5896
  143OSM    H9F15746   3.840   4.289   7.351  0.0464 -0.0008  0.3978
  143OSM   C10F15747   3.726   4.445   7.441 -0.1302 -0.9979 -0.4411
  143OSM   H10F15748   3.717   4.403   7.542 -2.9353 -1.0595 -0.6509
  143OSM   C11F15749   3.662   4.589   7.440  0.0544 -0.3156 -0.0115
  143OSM   H11F15750   3.555   4.568   7.459 -0.0092 -2.6550 -2.3182
  143OSM   H11G15751   3.649   4.640   7.342 -3.2931  0.7291  0.8564
  143OSM   C12F15752   3.720   4.691   7.540  1.1571  0.5886 -0.6999
  143OSM   H12F15753   3.660   4.784   7.529  0.8023  0.3467 -0.8347
  143OSM   H12G15754   3.831   4.704   7.532  1.3866 -0.1523  0.9412
  143OSM   C13F15755   3.703   4.639   7.685 -0.0415 -0.2446  0.0136
  143OSM   H13F15756   3.768   4.551   7.700  1.1075  0.3773 -1.1837
  143OSM   H13G15757   3.605   4.599   7.719  1.0389 -1.2255  2.1735
  143OSM   C14F15758   3.743   4.741   7.792  0.4807 -0.0646  0.8707
  143OSM   H14F15759   3.662   4.817   7.796  0.4790  0.3116 -2.7536
  143OSM   H14G15760   3.835   4.786   7.751 -0.5080  0.5496 -0.7896
  143OSM   C15F15761   3.773   4.691   7.932  0.1878  1.0009 -0.2463
  143OSM   H15F15762   3.811   4.588   7.915 -1.4157  0.4442 -0.6406
  143OSM   H15G15763   3.689   4.655   7.994  1.0432  1.7471  1.4045
  143OSM   C16F15764   3.879   4.776   8.002 -0.1535  0.0093 -0.7751
  143OSM   H16F15765   3.977   4.773   7.950  0.8019  0.8918  0.9186
  143OSM   H16G15766   3.897   4.728   8.101  1.5137  0.5530 -0.7870
  143OSM   C17F15767   3.845   4.923   8.018  0.3557 -0.2101  0.4113
  143OSM   H17F15768   3.748   4.929   8.072 -0.9272 -1.6662 -1.5626
  143OSM   H17G15769   3.811   4.961   7.919 -0.4850 -1.8570  0.0375
  143OSM   C18F15770   3.952   5.018   8.060 -0.5895  0.0783 -0.3959
  143OSM   H18F15771   3.990   4.985   8.159  2.4654 -0.0150 -1.4996
  143OSM   H18G15772   3.916   5.124   8.065  0.1658  0.3775 -1.0634
  143OSM   H18H15773   4.038   5.007   7.991 -0.7930  0.9634 -0.8110
  144OSM      N15774   2.100   4.734   6.176 -0.4906 -0.4007 -0.1119
  144OSM    C1515775   1.953   4.761   6.197 -0.6781 -1.1892 -0.1060
  144OSM   H15A15776   1.906   4.789   6.104  1.3791 -0.8942 -1.0990
  144OSM   H15B15777   1.951   4.857   6.247 -0.2518  0.7905 -3.6133
  144OSM   H15C15778   1.899   4.684   6.251  0.7883  0.1256  3.5382
  144OSM    C1415779   2.160   4.700   6.308 -0.2609 -0.3579 -0.5179
  144OSM   H14A15780   2.121   4.606   6.343 -0.0062 -0.4253 -0.4084
  144OSM   H14B15781   2.137   4.786   6.369 -2.0951  0.8567 -2.7651
  144OSM   H14C15782   2.265   4.675   6.304 -0.4622 -1.2936 -0.1385
  144OSM    C1315783   2.118   4.620   6.081  0.0155 -0.5278 -0.1734
  144OSM   H13A15784   2.223   4.603   6.067  0.1948  1.7774 -2.1589
  144OSM   H13B15785   2.089   4.648   5.981 -0.4454 -0.5446 -0.0475
  144OSM   H13C15786   2.068   4.532   6.120  0.2042 -0.0742  1.1633
  144OSM    C1215787   2.172   4.862   6.120 -0.5119  0.6386 -0.3265
  144OSM   H12A15788   2.135   4.890   6.023 -1.0575 -1.1625 -0.6748
  144OSM   H12B15789   2.269   4.822   6.092 -1.3382 -1.2439 -0.6331
  144OSM    C1115790   2.190   4.991   6.204  0.0668 -0.9662 -0.4349
  144OSM   H11A15791   2.260   5.067   6.162 -0.1664 -1.2719 -1.3794
  144OSM   H11B15792   2.240   4.960   6.298  0.3873  0.3732 -0.1308
  144OSM      P15793   2.040   5.167   6.321  0.2338  0.1700  0.0129
  144OSM    O1315794   1.986   5.272   6.239  0.3165 -0.3110 -0.3980
  144OSM    O1415795   1.964   5.120   6.436  0.7340  0.2579  0.3312
  144OSM    O1115796   2.180   5.212   6.366  0.1103  0.2443 -0.5989
  144OSM    O1215797   2.056   5.051   6.227 -0.1267 -0.7923  0.0583
  144OSM    C1S15798   2.196   5.331   6.443 -0.5901 -0.3935 -0.8363
  144OSM    H1S15799   2.119   5.406   6.414 -0.5621 -0.7451 -1.8646
  144OSM    H1T15800   2.287   5.381   6.404 -0.5638  1.0728  0.9399
  144OSM     NF15801   2.180   5.434   6.665 -0.6177 -0.3628 -0.2475
  144OSM    HNF15802   2.266   5.466   6.704 -1.4584  0.7201  0.7616
  144OSM    C2S15803   2.196   5.308   6.597 -0.3177 -0.1314 -0.1152
  144OSM    H2S15804   2.104   5.250   6.617  0.2841 -0.5634  1.5973
  144OSM    C3S15805   2.321   5.223   6.646 -0.0064  0.1575 -0.1876
  144OSM    H3S15806   2.410   5.289   6.634 -1.2752  1.9529 -0.2386
  144OSM     O315807   2.361   5.111   6.570 -0.5599 -0.1365  0.3439
  144OSM    HO315808   2.306   5.114   6.491 -3.3330  2.1117  2.1480
  144OSM    C4S15809   2.295   5.189   6.797 -0.8762 -0.1424 -0.0316
  144OSM    H4S15810   2.339   5.274   6.851  1.2132 -0.0934 -1.6461
  144OSM    C5S15811   2.226   5.091   6.858 -0.5648  0.9309  0.4221
  144OSM    H5S15812   2.173   5.014   6.800 -0.0176 -0.9964  2.3326
  144OSM    C6S15813   2.209   5.081   7.008  0.0832  0.1376 -0.3296
  144OSM    H6S15814   2.220   4.974   7.036 -0.8367  0.2518  0.5201
  144OSM    H6T15815   2.104   5.103   7.034 -0.3058  2.6377 -3.4714
  144OSM    C7S15816   2.295   5.164   7.107  0.1867  0.3855 -0.1379
  144OSM    H7S15817   2.266   5.271   7.098 -1.9600 -0.0901  0.4096
  144OSM    H7T15818   2.404   5.159   7.092  0.1418  0.4040 -0.4758
  144OSM    C8S15819   2.290   5.114   7.251  0.2756  0.1603 -0.0651
  144OSM    H8S15820   2.330   5.011   7.266  0.3747 -0.0569 -1.6038
  144OSM    H8T15821   2.181   5.101   7.270  0.0116 -0.1616 -1.6194
  144OSM    C9S15822   2.335   5.214   7.357  0.0937 -0.2771  0.2753
  144OSM    H9S15823   2.292   5.311   7.325  0.8852  0.2559  0.7899
  144OSM    H9T15824   2.445   5.230   7.357  0.0144  0.5707 -1.9609
  144OSM   C10S15825   2.276   5.187   7.500 -0.2528  0.3414  0.1076
  144OSM   H10S15826   2.332   5.102   7.545 -0.2210  0.9071  1.1655
  144OSM   H10T15827   2.166   5.172   7.496  0.0315 -2.4485  0.4303
  144OSM   C11S15828   2.310   5.318   7.578 -0.4807  0.0768  0.3458
  144OSM   H11S15829   2.226   5.383   7.546 -1.1778 -0.1559  1.6512
  144OSM   H11T15830   2.412   5.355   7.554  0.6727 -3.3519 -0.5200
  144OSM   C12S15831   2.304   5.299   7.731 -0.5004 -0.2686 -0.6112
  144OSM   H12S15832   2.390   5.232   7.751  1.1973  1.4370 -1.7579
  144OSM   H12T15833   2.207   5.248   7.743  1.0035 -2.5588  4.0710
  144OSM   C13S15834   2.308   5.415   7.827 -0.0160 -0.7441 -0.7014
  144OSM   H13S15835   2.294   5.372   7.928 -0.3275  2.0135  0.5286
  144OSM   H13T15836   2.217   5.479   7.822  1.2351  1.3176  1.0179
  144OSM   C14S15837   2.434   5.496   7.821  0.4590 -0.3182  0.6824
  144OSM   H14S15838   2.447   5.553   7.726  1.4950 -0.0131  0.9982
  144OSM   H14T15839   2.516   5.423   7.835 -1.5415 -2.4540  2.0486
  144OSM   C15S15840   2.455   5.590   7.936 -0.8798 -0.6289  0.2371
  144OSM   H15S15841   2.556   5.634   7.922 -0.9287 -0.6450 -0.1841
  144OSM   H15T15842   2.444   5.531   8.030 -1.4261  2.0063  1.9424
  144OSM   C16S15843   2.372   5.717   7.928 -0.4305  0.2559 -0.4556
  144OSM   H16S15844   2.266   5.685   7.921 -0.1687 -0.7737 -0.0441
  144OSM   H16T15845   2.404   5.776   7.839 -1.1737  0.4791 -0.5757
  144OSM   C17S15846   2.397   5.805   8.053  1.6250 -0.0413 -0.2670
  144OSM   H17S15847   2.506   5.794   8.072  1.2270  0.0697  2.5163
  144OSM   H17T15848   2.344   5.767   8.143  0.7614 -1.6741 -1.4262
  144OSM   C18S15849   2.362   5.952   8.038  0.2261  0.4258 -0.3153
  144OSM   H18S15850   2.411   6.005   7.953  0.1741 -1.3230 -1.4964
  144OSM   H18T15851   2.403   6.007   8.125  1.1592  1.4829 -1.3843
  144OSM   H18U15852   2.253   5.976   8.037  0.2346  0.4606 -1.0817
  144OSM    C1F15853   2.065   5.509   6.666 -0.2956 -0.1873  0.2375
  144OSM     OF15854   1.967   5.467   6.615  0.4551  0.6347  0.5388
  144OSM    C2F15855   2.053   5.634   6.748  0.5151 -0.1437  0.2632
  144OSM    H2F15856   2.018   5.714   6.679  0.5711 -0.4707 -0.1535
  144OSM    H2G15857   2.157   5.663   6.777  1.8635 -0.7477 -3.3741
  144OSM    C3F15858   1.953   5.612   6.862  0.2763  0.6751  0.0005
  144OSM    H3F15859   1.857   5.576   6.818  0.5997  0.2156 -0.3249
  144OSM    H3G15860   1.925   5.706   6.915  2.7452  1.6809 -0.3598
  144OSM    C4F15861   1.998   5.515   6.966 -0.4277 -0.2333 -0.2923
  144OSM    H4F15862   2.089   5.558   7.013 -0.4095  1.2343 -1.6115
  144OSM    H4G15863   2.028   5.416   6.924  2.5783 -0.3082  1.7264
  144OSM    C5F15864   1.889   5.504   7.069 -0.2633 -0.3417 -0.0447
  144OSM    H5F15865   1.796   5.487   7.010  0.1659 -0.8881 -0.5689
  144OSM    H5G15866   1.900   5.586   7.142  0.1024 -0.7766  0.3980
  144OSM    C6F15867   1.897   5.372   7.147  0.2041 -0.0167  0.5648
  144OSM    H6F15868   1.825   5.386   7.231 -0.8002  0.8326 -0.4203
  144OSM    H6G15869   1.997   5.361   7.195  0.1059  2.9491  1.6587
  144OSM    C7F15870   1.861   5.252   7.059 -0.5362 -0.7436  1.1646
  144OSM    H7F15871   1.938   5.242   6.979 -0.5679  1.6183  0.7732
  144OSM    H7G15872   1.764   5.268   7.007  0.7393 -1.5551 -1.6164
  144OSM    C8F15873   1.839   5.116   7.127  0.2059  0.3530 -0.4329
  144OSM    H8F15874   1.934   5.084   7.175  0.2054  3.2138  1.7211
  144OSM    H8G15875   1.820   5.040   7.048  0.9298  0.4141 -0.6767
  144OSM    C9F15876   1.722   5.105   7.223 -0.7052  0.9151  0.0223
  144OSM    H9F15877   1.629   5.147   7.184 -0.6893 -0.5477 -1.7006
  144OSM   C10F15878   1.707   5.046   7.342  0.0257  0.7117  0.0900
  144OSM   H10F15879   1.605   5.048   7.383 -0.0726  1.3980 -0.1735
  144OSM   C11F15880   1.827   4.982   7.410  0.1611  0.9193  0.4833
  144OSM   H11F15881   1.908   4.968   7.336 -1.0359  0.8218 -0.8518
  144OSM   H11G15882   1.808   4.879   7.448 -1.7936  0.6612 -1.0201
  144OSM   C12F15883   1.878   5.074   7.528 -0.6390 -0.0120 -0.0827
  144OSM   H12F15884   1.905   5.176   7.492  0.5444 -0.2796  0.0331
  144OSM   H12G15885   1.973   5.042   7.576 -0.2122 -0.1779 -1.0269
  144OSM   C13F15886   1.779   5.083   7.646  1.4868 -0.0557  0.2521
  144OSM   H13F15887   1.781   4.990   7.706  2.9709 -0.5282 -0.4846
  144OSM   H13G15888   1.678   5.106   7.606  0.7482 -0.4453  1.7949
  144OSM   C14F15889   1.815   5.191   7.748 -0.8537  0.1672 -0.2685
  144OSM   H14F15890   1.821   5.292   7.701 -1.3785  1.3341  2.0468
  144OSM   H14G15891   1.917   5.177   7.790 -0.6667  1.6482 -0.1532
  144OSM   C15F15892   1.714   5.189   7.863 -0.1028  0.1943 -0.0124
  144OSM   H15F15893   1.738   5.269   7.936  1.3979  0.9746 -1.3187
  144OSM   H15G15894   1.714   5.096   7.924 -0.1866  0.2109  0.0152
  144OSM   C16F15895   1.573   5.220   7.817  0.1824  0.2045 -0.4096
  144OSM   H16F15896   1.522   5.150   7.748  1.4119 -1.5761  0.4386
  144OSM   H16G15897   1.561   5.326   7.785 -0.0789  0.1619 -0.4541
  144OSM   C17F15898   1.485   5.197   7.950 -0.3978 -0.0449  0.1736
  144OSM   H17F15899   1.529   5.264   8.026  2.8363  0.8785 -2.2881
  144OSM   H17G15900   1.484   5.094   7.991 -1.7568 -0.1266 -0.0018
  144OSM   C18F15901   1.335   5.244   7.924 -0.3852  0.7200 -0.1618
  144OSM   H18F15902   1.271   5.255   8.014 -0.2432 -1.6646  0.3120
  144OSM   H18G15903   1.295   5.174   7.847  0.1976  0.1368  0.0564
  144OSM   H18H15904   1.330   5.345   7.878  0.2400  2.5694  3.4482
  145SAPE     N15905   1.895   5.620  11.003 -0.5057  0.0500  0.1099
  145SAPE   HN115906   1.995   5.631  11.032 -0.2791 -1.1674 -0.1475
  145SAPE   HN215907   1.846   5.706  11.034  2.2526  1.4030  1.0717
  145SAPE   HN315908   1.868   5.525  11.035  1.6577 -0.3534  0.9350
  145SAPE   C1215909   1.898   5.630  10.848 -0.4360 -0.6392  0.4246
  145SAPE  H12A15910   1.795   5.625  10.808  0.0805 -0.7782 -0.9433
  145SAPE  H12B15911   1.957   5.544  10.811  1.3071  1.3830 -1.8109
  145SAPE   C1115912   1.974   5.762  10.805 -0.0536 -0.5764  0.3609
  145SAPE  H11A15913   1.999   5.764  10.697  1.3319 -0.5405  0.6596
  145SAPE  H11B15914   2.075   5.762  10.853 -0.4379 -1.0088  1.1950
  145SAPE     P15915   1.905   6.025  10.787  0.0628  0.3435 -0.0303
  145SAPE   O1315916   1.788   6.099  10.842  0.1976  0.8188 -0.0825
  145SAPE   O1415917   2.034   6.086  10.816 -0.2119  0.6492  0.1251
  145SAPE   O1215918   1.900   5.882  10.846 -0.4355 -0.1680  0.7864
  145SAPE   O1115919   1.898   6.000  10.641 -1.0457  0.4837 -0.1612
  145SAPE    C115920   1.793   5.918  10.584 -0.0623  0.5468  0.0098
  145SAPE    HA15921   1.832   5.819  10.549  0.3861  1.1528 -1.2859
  145SAPE    HB15922   1.708   5.896  10.652 -0.2335 -2.2088 -0.9393
  145SAPE    C215923   1.705   5.993  10.477  0.4707  0.5565 -0.2109
  145SAPE    HS15924   1.616   5.928  10.458  0.2948  0.0225  2.1739
  145SAPE   O2115925   1.784   5.982  10.359  0.0327  0.1456 -0.2526
  145SAPE   C2115926   1.726   5.961  10.240 -0.5679 -0.7111 -0.4396
  145SAPE   O2215927   1.610   5.959  10.229  0.7849  0.2814  0.1842
  145SAPE   C2215928   1.839   5.949  10.137 -0.0466 -0.0160  0.0690
  145SAPE   H2R15929   1.914   5.881  10.182  0.5915 -1.1103 -2.4763
  145SAPE   H2S15930   1.778   5.891  10.065 -0.8199 -0.7193  1.2555
  145SAPE    C315931   1.668   6.139  10.509  1.0076  0.3196  0.0838
  145SAPE    HX15932   1.756   6.190  10.554  0.2637  1.1333  0.6574
  145SAPE    HY15933   1.606   6.132  10.602  1.6174 -0.0869  0.4726
  145SAPE   O3115934   1.617   6.216  10.401  0.0375  0.9889  0.1125
  145SAPE   C3115935   1.486   6.217  10.394  0.2226 -1.0167  0.3973
  145SAPE   O3215936   1.411   6.194  10.489  0.5574 -0.5005 -0.0758
  145SAPE   C3215937   1.436   6.266  10.260  0.3409 -0.4213  0.3246
  145SAPE   H2X15938   1.497   6.214  10.183  0.0031 -0.4160  0.0504
  145SAPE   H2Y15939   1.462   6.374  10.256  1.2636 -0.6514 -0.0907
  145SAPE   C2315940   1.871   6.081  10.073  0.5191 -0.0038  0.5476
  145SAPE   H3R15941   1.925   6.146  10.145  0.3169 -0.8205  1.4452
  145SAPE   H3S15942   1.778   6.134  10.041  2.4098  1.3670 -3.4145
  145SAPE   C2415943   1.958   6.059   9.950  0.2438  0.1233  0.5517
  145SAPE   H4R15944   2.033   5.985   9.985  1.0370  0.4642 -0.4019
  145SAPE   H4S15945   2.017   6.150   9.928  1.1092 -0.9093 -1.7516
  145SAPE   C2515946   1.870   6.011   9.832 -0.2619 -0.2351 -0.7281
  145SAPE   H5R15947   1.767   5.989   9.863  0.4845 -2.4675  0.3376
  145SAPE   C2615948   1.905   6.004   9.705 -0.3607 -0.2292 -0.3369
  145SAPE   H6R15949   1.838   5.957   9.632 -0.9713  1.2829 -0.7876
  145SAPE   C2715950   2.037   6.045   9.643 -0.1751 -0.1369 -0.1161
  145SAPE   H7R15951   2.101   6.106   9.710 -0.0755 -2.0717  1.6561
  145SAPE   H7S15952   2.026   6.124   9.565  1.6616  0.9603  0.6799
  145SAPE   C2815953   2.102   5.919   9.598  0.5287 -0.6222 -0.0126
  145SAPE   H8R15954   2.124   5.842   9.672  2.6576 -1.6441 -1.6019
  145SAPE   C2915955   2.111   5.880   9.468 -0.0559  0.0805  0.2997
  145SAPE   H9R15956   2.169   5.788   9.453  1.2874  0.6168  1.8602
  145SAPE  C21015957   2.073   5.963   9.350 -0.1337  0.1546 -0.1125
  145SAPE  H10R15958   1.991   6.037   9.363 -0.8142 -0.6045  0.0139
  145SAPE  H10S15959   2.007   5.895   9.292 -0.0128 -0.5605  0.5791
  145SAPE  C21115960   2.194   6.022   9.280  0.2301 -0.5602 -0.1004
  145SAPE  H11R15961   2.251   6.090   9.346 -1.1686 -0.4005  1.0079
  145SAPE  C21215962   2.219   6.000   9.152 -0.4187  0.1688 -0.3624
  145SAPE  H12R15963   2.314   6.046   9.121  0.3317 -0.7679  0.4583
  145SAPE  C21315964   2.142   5.921   9.054  0.5132 -0.3494 -0.3021
  145SAPE  H13R15965   2.082   5.998   9.000  1.0643 -0.9579 -1.8431
  145SAPE  H13S15966   2.070   5.854   9.105 -0.3533 -1.0536 -2.3470
  145SAPE  C21415967   2.227   5.848   8.955 -0.5269  0.2179  0.3605
  145SAPE  H14R15968   2.313   5.791   8.992  0.3079  0.4159 -1.2097
  145SAPE  C21515969   2.214   5.851   8.820 -0.5863  0.8616  0.0702
  145SAPE  H15R15970   2.290   5.798   8.760 -2.9743 -0.3326 -2.0810
  145SAPE  C21615971   2.111   5.926   8.748  0.2871 -0.5553  0.4004
  145SAPE  H16R15972   2.130   6.035   8.760 -0.5003 -0.3219 -0.4038
  145SAPE  H16S15973   2.008   5.902   8.780 -0.3119  0.4472 -0.7249
  145SAPE  C21715974   2.124   5.917   8.592  0.4497  0.3201  0.0632
  145SAPE  H17R15975   2.098   5.813   8.563  1.0341  0.3978 -0.7555
  145SAPE  H17S15976   2.225   5.956   8.566  0.4646 -0.7896 -1.6938
  145SAPE  C21815977   2.032   6.011   8.511  0.1273 -0.2255  0.9756
  145SAPE  H18R15978   2.061   6.117   8.529 -2.1755  1.0495 -1.9692
  145SAPE  H18S15979   1.931   5.997   8.555  0.7190 -0.1617  2.4114
  145SAPE  C21915980   2.036   5.999   8.359 -0.3502 -0.4136 -1.0330
  145SAPE  H19R15981   1.941   6.043   8.322 -0.4709 -1.2152 -1.7236
  145SAPE  H19S15982   2.038   5.893   8.326 -2.2927 -1.1420  0.9553
  145SAPE  C22015983   2.152   6.065   8.294 -1.0909  0.6759  0.4379
  145SAPE  H20R15984   2.128   6.059   8.185  1.0368  0.9328 -0.0817
  145SAPE  H20S15985   2.252   6.027   8.323 -1.1378  0.2874  0.1090
  145SAPE  H20T15986   2.154   6.170   8.329 -1.2023  0.3668  1.4061
  145SAPE   C3315987   1.280   6.251  10.239  0.4658  0.0417 -0.3809
  145SAPE   H3X15988   1.243   6.292  10.142 -1.9382 -1.3002 -0.1114
  145SAPE   H3Y15989   1.230   6.303  10.324 -2.0213 -0.3182 -1.5286
  145SAPE   C3415990   1.233   6.106  10.254  0.7352 -0.4259 -0.4997
  145SAPE   H4X15991   1.125   6.098  10.277  1.0241 -0.9289  0.7768
  145SAPE   H4Y15992   1.278   6.055  10.342  0.0425  3.1678  2.1210
  145SAPE   C3515993   1.268   6.031  10.121  0.4899  0.3198  0.8778
  145SAPE   H5X15994   1.375   6.015  10.096  0.1053 -1.0445  0.0144
  145SAPE   H5Y15995   1.228   6.094  10.039  2.0498  1.3675  0.8808
  145SAPE   C3615996   1.196   5.897  10.122 -0.0256 -0.0586  0.4026
  145SAPE   H6X15997   1.092   5.911  10.159 -0.8938 -1.4070 -1.3630
  145SAPE   H6Y15998   1.256   5.828  10.185 -0.5546  0.1800  1.1808
  145SAPE   C3715999   1.194   5.849   9.980  0.2999  0.2535 -0.3617
  145SAPE   H7X16000   1.182   5.740   9.995  0.2969  0.2426 -0.4433
  145SAPE   H7Y16001   1.292   5.853   9.929 -0.4087  3.9480 -1.7939
  145SAPE   C3816002   1.078   5.906   9.893 -0.1207 -0.2466 -0.0245
  145SAPE   H8X16003   1.087   6.016   9.880 -1.5429 -0.2896 -1.7339
  145SAPE   H8Y16004   0.986   5.895   9.955 -0.7249  1.0163 -0.6510
  145SAPE   C3916005   1.078   5.842   9.759  0.0450  0.0096  0.0753
  145SAPE   H9X16006   1.100   5.734   9.768 -0.5026  0.0291  2.1532
  145SAPE   H9Y16007   1.166   5.892   9.712  1.1410 -1.1297  0.8702
  145SAPE  C31016008   0.964   5.869   9.655 -0.3533  0.3572  0.1023
  145SAPE  H10X16009   0.933   5.975   9.664  1.3379  0.7569  1.9178
  145SAPE  H10Y16010   0.885   5.797   9.686  1.9588 -1.9108  1.0820
  145SAPE  C31116011   1.009   5.836   9.513 -0.0164  0.2585 -0.3539
  145SAPE  H11X16012   1.094   5.904   9.490  0.3594 -0.8616 -2.5178
  145SAPE  H11Y16013   0.930   5.857   9.438  0.2037 -0.7843 -0.8999
  145SAPE  C31216014   1.073   5.703   9.497 -0.2357  0.5382  0.2850
  145SAPE  H12X16015   0.998   5.626   9.524 -0.6688  0.7501 -0.2882
  145SAPE  H12Y16016   1.166   5.687   9.554  0.1914  1.7108 -0.0503
  145SAPE  C31316017   1.100   5.662   9.351 -0.0522  0.1606  0.0952
  145SAPE  H13X16018   1.184   5.719   9.306 -0.5459  0.2670 -0.7135
  145SAPE  H13Y16019   1.011   5.684   9.288  1.0965  0.0698 -1.6332
  145SAPE  C31416020   1.118   5.506   9.329  0.4348  0.0173  0.5305
  145SAPE  H14X16021   1.028   5.464   9.379  0.0544  1.2441  0.8892
  145SAPE  H14Y16022   1.210   5.467   9.379  1.4113  1.9700  0.3447
  145SAPE  C31516023   1.123   5.459   9.188  0.2248  0.3162 -0.1973
  145SAPE  H15X16024   1.198   5.512   9.125 -1.9605  2.5503 -1.0811
  145SAPE  H15Y16025   1.030   5.482   9.132  0.7982  1.7179 -0.6170
  145SAPE  C31616026   1.155   5.309   9.182  0.1409  0.5921  0.4034
  145SAPE  H16X16027   1.065   5.251   9.210 -0.2767  0.2815 -1.4269
  145SAPE  H16Y16028   1.236   5.294   9.257  1.3945 -0.4555 -1.0889
  145SAPE  C31716029   1.214   5.258   9.050 -0.2586 -0.1868 -0.1096
  145SAPE  H17X16030   1.143   5.256   8.965  0.5769 -2.0149 -0.8315
  145SAPE  H17Y16031   1.239   5.150   9.053  2.1582  0.3267  0.6008
  145SAPE  C31816032   1.339   5.338   9.008  0.1053  0.7762 -0.3613
  145SAPE  H18X16033   1.410   5.358   9.091 -0.9651  0.3496  0.6806
  145SAPE  H18Y16034   1.312   5.434   8.958  0.6675  2.2192  1.9623
  145SAPE  H18Z16035   1.400   5.281   8.936  0.2813  1.5664 -0.8512
  146SAPE     N16036   0.515   1.599  10.513 -0.6296  0.1714  0.0328
  146SAPE   HN116037   0.521   1.521  10.581 -1.4968 -1.4339 -1.6369
  146SAPE   HN216038   0.446   1.570  10.441  0.6162 -3.3528  0.0922
  146SAPE   HN316039   0.613   1.607  10.481 -0.4874 -0.4916  0.2877
  146SAPE   C1216040   0.480   1.732  10.571 -0.6618 -0.5194  0.3543
  146SAPE  H12A16041   0.561   1.800  10.538 -1.5047  0.2928 -0.0981
  146SAPE  H12B16042   0.499   1.715  10.679 -0.0313 -0.5004  0.2502
  146SAPE   C1116043   0.333   1.769  10.557 -0.6781  0.3197 -0.1722
  146SAPE  H11A16044   0.308   1.773  10.448 -3.3244  2.8239  0.3984
  146SAPE  H11B16045   0.317   1.877  10.577 -1.7619  0.7353 -2.8079
  146SAPE     P16046   0.166   1.731  10.746  0.3688 -0.0729 -0.1029
  146SAPE   O1316047   0.042   1.653  10.771 -0.7998  0.1395  0.3930
  146SAPE   O1416048   0.261   1.739  10.860  1.0244  0.0417 -0.5023
  146SAPE   O1216049   0.242   1.672  10.621 -0.0680 -0.4512  0.3099
  146SAPE   O1116050   0.125   1.882  10.710 -0.1966  0.4445 -0.3927
  146SAPE    C116051  -0.006   1.901  10.652 -0.5877  0.8361 -0.7158
  146SAPE    HA16052  -0.077   1.834  10.705  1.8537  0.4162  2.2753
  146SAPE    HB16053  -0.035   2.003  10.684  0.3613  0.2060  2.4414
  146SAPE    C216054  -0.015   1.886  10.499 -0.3795  0.9268  0.2473
  146SAPE    HS16055   0.003   1.780  10.473 -3.1491  0.6727 -1.0217
  146SAPE   O2116056   0.076   1.979  10.446  0.2245 -0.6769  0.3532
  146SAPE   C2116057   0.117   1.955  10.323  0.5180 -0.4472 -0.0252
  146SAPE   O2216058   0.106   1.849  10.263 -0.0338 -0.2248  0.9954
  146SAPE   C2216059   0.194   2.080  10.272 -0.8106 -0.9356  0.1429
  146SAPE   H2R16060   0.117   2.153  10.241  1.4761  2.3248  1.6370
  146SAPE   H2S16061   0.256   2.122  10.354 -0.2157  0.4206 -0.9629
  146SAPE    C316062  -0.161   1.908  10.439 -0.0993  0.0823  0.2671
  146SAPE    HX16063  -0.198   2.008  10.471  0.6275  0.1019  1.0823
  146SAPE    HY16064  -0.225   1.834  10.491 -1.2550  0.3046 -0.7988
  146SAPE   O3116065  -0.173   1.890  10.292  0.1991  0.3604  0.1202
  146SAPE   C3116066  -0.176   1.761  10.254 -0.6938 -0.6502  0.1797
  146SAPE   O3216067  -0.158   1.662  10.323  0.2119 -0.3799  0.2858
  146SAPE   C3216068  -0.165   1.765  10.101  0.1279 -0.2061 -0.4307
  146SAPE   H2X16069  -0.078   1.709  10.062 -2.4461 -2.4177 -3.5454
  146SAPE   H2Y16070  -0.168   1.874  10.078 -0.2511  0.1653  1.2421
  146SAPE   C2316071   0.288   2.048  10.148 -0.0742 -0.7310 -0.2886
  146SAPE   H3R16072   0.349   1.960  10.178  0.5048  0.0965  1.0635
  146SAPE   H3S16073   0.351   2.138  10.129 -1.6961  0.5375  0.1330
  146SAPE   C2416074   0.213   2.016  10.016  0.0112 -0.4485 -0.4617
  146SAPE   H4R16075   0.163   2.107   9.977 -1.3336 -1.2620 -0.7134
  146SAPE   H4S16076   0.123   1.958  10.043 -0.8190 -0.1540 -2.4253
  146SAPE   C2516077   0.302   1.945   9.915  0.2736 -0.4481 -0.0877
  146SAPE   H5R16078   0.380   1.877   9.952  0.3488 -1.7759 -2.4583
  146SAPE   C2616079   0.312   1.972   9.784 -0.2854  0.2875 -0.5433
  146SAPE   H6R16080   0.369   1.905   9.718  1.1870 -0.5389  1.4620
  146SAPE   C2716081   0.231   2.074   9.713 -0.4876 -0.4453  0.8282
  146SAPE   H7R16082   0.134   2.084   9.765 -2.3803  0.0030 -2.4872
  146SAPE   H7S16083   0.204   2.042   9.610  1.4991  0.1435  0.0627
  146SAPE   C2816084   0.298   2.209   9.709  0.1031 -0.5859  0.3361
  146SAPE   H8R16085   0.295   2.268   9.802 -1.2200  0.3862 -0.2816
  146SAPE   C2916086   0.341   2.271   9.596 -0.7436  0.1280 -0.9011
  146SAPE   H9R16087   0.386   2.371   9.609 -0.4946 -0.1536  0.5863
  146SAPE  C21016088   0.356   2.216   9.452  0.7388 -1.2904 -0.7002
  146SAPE  H10R16089   0.342   2.106   9.444  1.7813 -1.4182 -0.9402
  146SAPE  H10S16090   0.461   2.227   9.419  0.3650  2.0558 -1.0830
  146SAPE  C21116091   0.258   2.291   9.366 -0.1797  0.2985  0.3774
  146SAPE  H11R16092   0.187   2.359   9.415  0.6500  0.6745  1.0907
  146SAPE  C21216093   0.248   2.292   9.228  0.1567  0.5724  0.0024
  146SAPE  H12R16094   0.176   2.354   9.173  0.8352  0.4882 -0.9919
  146SAPE  C21316095   0.335   2.203   9.139 -0.2040 -0.5337  0.0198
  146SAPE  H13R16096   0.270   2.125   9.094 -1.2348 -0.2594  1.0101
  146SAPE  H13S16097   0.408   2.146   9.201  0.5336 -0.3343 -0.6528
  146SAPE  C21416098   0.411   2.291   9.042 -1.1058  0.7781  0.4446
  146SAPE  H14R16099   0.480   2.357   9.096 -0.4218  0.7764 -0.3995
  146SAPE  C21516100   0.398   2.287   8.909  0.6844 -0.1648 -0.0283
  146SAPE  H15R16101   0.467   2.351   8.852  0.6031  1.3871  1.5154
  146SAPE  C21616102   0.305   2.204   8.822  0.1756 -0.0828 -0.2895
  146SAPE  H16R16103   0.234   2.272   8.769  1.4671  1.6620  0.1317
  146SAPE  H16S16104   0.242   2.150   8.896  1.4245 -0.0861  0.8116
  146SAPE  C21716105   0.394   2.108   8.737 -0.3804  0.0096 -0.1428
  146SAPE  H17R16106   0.455   2.049   8.808  2.7846  1.6469 -1.2938
  146SAPE  H17S16107   0.470   2.162   8.676  1.4393 -1.0209  1.1056
  146SAPE  C21816108   0.325   2.014   8.634 -0.0901  0.3454  0.3675
  146SAPE  H18R16109   0.273   1.932   8.688 -0.5751  0.0470 -0.5224
  146SAPE  H18S16110   0.408   1.969   8.576 -2.0643 -0.2205 -2.2334
  146SAPE  C21916111   0.226   2.080   8.533 -0.6690 -0.0121 -0.0568
  146SAPE  H19R16112   0.279   2.167   8.491 -2.1600  0.6439 -0.6513
  146SAPE  H19S16113   0.135   2.123   8.581 -1.0370  0.2803 -0.9921
  146SAPE  C22016114   0.172   1.995   8.418 -0.0363  0.7810 -0.0848
  146SAPE  H20R16115   0.246   2.002   8.336  0.0634  1.2822  0.0430
  146SAPE  H20S16116   0.080   2.041   8.374 -0.8954 -1.6026 -0.9599
  146SAPE  H20T16117   0.148   1.893   8.455  0.0945  0.4028 -1.0136
  146SAPE   C3316118  -0.283   1.683  10.031  0.3186  0.6863 -0.2816
  146SAPE   H3X16119  -0.310   1.737   9.938  1.2571  0.3780 -0.7486
  146SAPE   H3Y16120  -0.370   1.697  10.098 -0.0716 -2.4852  0.0614
  146SAPE   C3416121  -0.250   1.531  10.010 -0.4429 -0.3824  0.7953
  146SAPE   H4X16122  -0.344   1.473  10.021  0.4106 -1.9427  0.2044
  146SAPE   H4Y16123  -0.182   1.492  10.089 -2.1361 -3.0404  1.0720
  146SAPE   C3516124  -0.189   1.501   9.874 -0.0563 -0.0132 -0.8266
  146SAPE   H5X16125  -0.182   1.390   9.873  2.6055  0.0662 -2.8797
  146SAPE   H5Y16126  -0.096   1.558   9.854 -0.2795  0.2131 -1.2469
  146SAPE   C3616127  -0.272   1.526   9.747 -0.4047 -1.1466  0.4535
  146SAPE   H6X16128  -0.334   1.618   9.756  0.4866 -0.2107 -1.9848
  146SAPE   H6Y16129  -0.339   1.439   9.738 -0.0268 -1.3676 -0.3446
  146SAPE   C3716130  -0.177   1.525   9.615  0.2151  0.1754 -0.4178
  146SAPE   H7X16131  -0.113   1.435   9.628 -2.7551 -1.9450  0.5650
  146SAPE   H7Y16132  -0.115   1.615   9.595  0.6324 -0.4278 -1.9059
  146SAPE   C3816133  -0.259   1.514   9.491 -0.2773  0.0882  0.7383
  146SAPE   H8X16134  -0.312   1.612   9.490 -0.8060 -0.1965  0.8839
  146SAPE   H8Y16135  -0.343   1.443   9.500 -0.8644  0.5571 -0.7104
  146SAPE   C3916136  -0.181   1.496   9.352 -0.6796  0.1106 -0.1111
  146SAPE   H9X16137  -0.145   1.391   9.356 -1.0753  0.0130  1.5043
  146SAPE   H9Y16138  -0.087   1.555   9.349 -0.5575 -0.0973 -0.5959
  146SAPE  C31016139  -0.265   1.539   9.231 -0.4774  0.1239 -0.3944
  146SAPE  H10X16140  -0.313   1.639   9.238 -0.6787  0.0984 -1.2692
  146SAPE  H10Y16141  -0.340   1.457   9.230  0.2697 -0.6229  1.4481
  146SAPE  C31116142  -0.190   1.534   9.097 -0.2226  0.0891 -0.2660
  146SAPE  H11X16143  -0.104   1.465   9.092 -0.8762 -0.7932  0.4012
  146SAPE  H11Y16144  -0.152   1.635   9.071  0.6780  0.0341  0.7948
  146SAPE  C31216145  -0.278   1.503   8.978 -0.9291  0.0412  0.3573
  146SAPE  H12X16146  -0.307   1.396   8.979 -3.8813  0.6843 -2.1516
  146SAPE  H12Y16147  -0.210   1.512   8.890  0.5325  0.6302  1.4932
  146SAPE  C31316148  -0.390   1.597   8.954  0.0211  0.0172  0.0657
  146SAPE  H13X16149  -0.364   1.703   8.936 -1.5772  0.0351 -2.7563
  146SAPE  H13Y16150  -0.453   1.595   9.045 -0.3409  1.0736 -0.1465
  146SAPE  C31416151  -0.468   1.552   8.828  0.9683 -0.3712  0.2465
  146SAPE  H14X16152  -0.510   1.451   8.844  1.3119 -0.5338  0.1223
  146SAPE  H14Y16153  -0.396   1.558   8.744  0.5801 -1.4903 -0.1725
  146SAPE  C31516154  -0.580   1.647   8.797 -0.0534 -0.6843  0.1673
  146SAPE  H15X16155  -0.530   1.744   8.774  0.5411 -1.2378 -0.9374
  146SAPE  H15Y16156  -0.645   1.645   8.887 -1.8460 -1.0000 -1.0804
  146SAPE  C31616157  -0.682   1.605   8.689 -0.0134  0.2066 -0.4514
  146SAPE  H16X16158  -0.715   1.506   8.728  1.9090 -0.2250  0.1687
  146SAPE  H16Y16159  -0.626   1.591   8.594  1.4620 -1.8250  0.6251
  146SAPE  C31716160  -0.795   1.702   8.669  0.0394 -0.1590 -0.1091
  146SAPE  H17X16161  -0.757   1.801   8.637 -0.9438 -0.2234 -1.5452
  146SAPE  H17Y16162  -0.851   1.726   8.762  1.3766  2.4012  0.1201
  146SAPE  C31816163  -0.910   1.661   8.568 -0.5046 -0.3337 -0.0478
  146SAPE  H18X16164  -0.991   1.736   8.561 -0.5969 -0.5708 -1.9397
  146SAPE  H18Y16165  -0.961   1.572   8.610 -1.6770 -0.2275 -1.1978
  146SAPE  H18Z16166  -0.869   1.631   8.469  0.3796  1.0060 -0.1195
  147SAPE     N16167   2.155   3.633  10.944  0.4243  0.3829 -0.0286
  147SAPE   HN116168   2.179   3.715  10.884  1.7059 -1.1880 -1.8052
  147SAPE   HN216169   2.148   3.662  11.043 -2.1935  1.1934 -0.3740
  147SAPE   HN316170   2.230   3.563  10.928 -0.5718 -0.1431 -3.0873
  147SAPE   C1216171   2.023   3.596  10.901  0.5914  0.2791  0.7911
  147SAPE  H12A16172   2.034   3.576  10.792 -0.8038  2.7901  0.1343
  147SAPE  H12B16173   1.952   3.679  10.913  0.8595  0.2686  2.7326
  147SAPE   C1116174   1.964   3.485  10.987  0.1343 -0.5846 -0.2107
  147SAPE  H11A16175   1.857   3.500  11.011  0.4155 -1.2744  1.5929
  147SAPE  H11B16176   2.007   3.482  11.089 -0.7721 -0.6786  0.1767
  147SAPE     P16177   1.870   3.269  10.865  0.3913  0.0291 -0.2167
  147SAPE   O1316178   1.855   3.163  10.962  0.5015  0.9416  0.4286
  147SAPE   O1416179   1.754   3.350  10.821 -0.2868 -0.4563  0.0069
  147SAPE   O1216180   1.983   3.356  10.929 -0.0382 -0.3871 -0.1900
  147SAPE   O1116181   1.946   3.214  10.742  0.9752  0.1792 -0.4454
  147SAPE    C116182   2.060   3.287  10.683 -0.1370  0.0873 -0.4753
  147SAPE    HA16183   2.038   3.394  10.664  0.5450  0.3513  0.1723
  147SAPE    HB16184   2.148   3.267  10.748  0.1751 -1.6085 -1.3808
  147SAPE    C216185   2.106   3.213  10.552 -0.1031  0.0568  0.2473
  147SAPE    HS16186   2.180   3.272  10.493  0.1491  0.1200  0.6192
  147SAPE   O2116187   1.993   3.193  10.466 -0.1642  0.5524  0.5406
  147SAPE   C2116188   1.947   3.305  10.407 -0.1869 -0.6147  0.1624
  147SAPE   O2216189   2.004   3.414  10.408 -0.3423  0.0059 -0.6758
  147SAPE   C2216190   1.833   3.268  10.318  0.2254  0.4184 -0.1187
  147SAPE   H2R16191   1.769   3.184  10.351 -2.3767  2.5832  0.6976
  147SAPE   H2S16192   1.745   3.334  10.327 -0.7500 -1.1495  3.7223
  147SAPE    C316193   2.175   3.079  10.584  0.8041  0.7805  0.5742
  147SAPE    HX16194   2.100   3.017  10.637 -0.3415 -1.0823 -2.9319
  147SAPE    HY16195   2.269   3.085  10.643  1.6346 -0.3134 -0.5834
  147SAPE   O3116196   2.201   3.004  10.464 -0.1501  0.5206  0.0616
  147SAPE   C3116197   2.308   3.033  10.397  0.7425 -0.6715 -0.2945
  147SAPE   O3216198   2.373   3.134  10.421  0.1508  0.5521 -0.1147
  147SAPE   C3216199   2.336   2.936  10.286  0.3267  0.1224 -0.0546
  147SAPE   H2X16200   2.348   2.839  10.338 -0.6029  0.2248  0.3556
  147SAPE   H2Y16201   2.432   2.965  10.236  0.7414  2.5328  1.9460
  147SAPE   C2316202   1.868   3.230  10.174  0.0683  0.3376 -0.1511
  147SAPE   H3R16203   1.791   3.159  10.139  1.0407 -1.0210  0.3777
  147SAPE   H3S16204   1.960   3.167  10.171 -0.7205 -0.8584  0.3237
  147SAPE   C2416205   1.879   3.363  10.105 -0.4250  0.8500  0.4740
  147SAPE   H4R16206   1.953   3.423  10.162  0.6384 -0.2086  0.2484
  147SAPE   H4S16207   1.782   3.417  10.101 -0.9473 -0.0652  0.3694
  147SAPE   C2516208   1.934   3.353   9.959  0.4656  0.2218  0.2803
  147SAPE   H5R16209   2.040   3.381   9.945  0.0155  0.5514 -3.4833
  147SAPE   C2616210   1.866   3.312   9.847 -0.6547 -0.2283 -0.6332
  147SAPE   H6R16211   1.932   3.304   9.760  1.1912  0.3238  0.6530
  147SAPE   C2716212   1.728   3.256   9.847 -0.3453 -0.4818  0.0148
  147SAPE   H7R16213   1.658   3.317   9.786  0.7980  1.5505  0.6264
  147SAPE   H7S16214   1.690   3.271   9.951 -0.0181  3.1471 -0.2542
  147SAPE   C2816215   1.734   3.109   9.830  0.5833 -0.5665  0.2702
  147SAPE   H8R16216   1.821   3.056   9.870  1.0194 -1.0009 -1.2162
  147SAPE   C2916217   1.640   3.027   9.770 -0.0798 -0.5392  1.0737
  147SAPE   H9R16218   1.657   2.919   9.776 -0.2660 -0.6322 -0.0061
  147SAPE  C21016219   1.516   3.055   9.692 -0.1439 -0.4343  0.2141
  147SAPE  H10R16220   1.538   3.091   9.590  0.4185 -0.4436  0.3304
  147SAPE  H10S16221   1.477   3.149   9.736 -1.6581 -2.0771  2.6341
  147SAPE  C21116222   1.407   2.954   9.715  0.8133  0.6790 -0.0684
  147SAPE  H11R16223   1.404   2.916   9.819 -0.1905  2.2220  0.5004
  147SAPE  C21216224   1.303   2.923   9.633  0.0482  0.7289 -0.6183
  147SAPE  H12R16225   1.227   2.867   9.689 -1.4307  0.3564 -2.8528
  147SAPE  C21316226   1.259   2.952   9.504 -0.3836 -0.0044  0.1547
  147SAPE  H13R16227   1.247   2.855   9.451  1.8300 -1.0155  1.3866
  147SAPE  H13S16228   1.337   3.011   9.452  1.9586  0.7770  4.1468
  147SAPE  C21416229   1.119   3.013   9.494  0.3320  0.1678  0.6206
  147SAPE  H14R16230   1.051   3.019   9.581 -0.4060  4.0487 -0.0479
  147SAPE  C21516231   1.069   3.073   9.383 -0.9152  0.0277 -0.0505
  147SAPE  H15R16232   0.966   3.112   9.381 -1.2281 -0.7646  0.0649
  147SAPE  C21616233   1.143   3.098   9.253 -0.1230  0.1947 -0.2730
  147SAPE  H16R16234   1.242   3.048   9.264 -0.3695 -0.0353  1.1502
  147SAPE  H16S16235   1.160   3.208   9.245 -0.8328  0.3924  0.7053
  147SAPE  C21716236   1.071   3.027   9.131  0.2235 -0.7553  0.2353
  147SAPE  H17R16237   0.961   3.034   9.142  0.3088  0.0163  0.6276
  147SAPE  H17S16238   1.090   2.918   9.145  3.5235 -0.2684  0.4941
  147SAPE  C21816239   1.125   3.082   8.998 -0.1725  0.0522 -0.1868
  147SAPE  H18R16240   1.232   3.109   9.013 -0.2989  0.3639  0.1725
  147SAPE  H18S16241   1.075   3.180   8.980  1.7302  0.7271 -2.3603
  147SAPE  C21916242   1.113   2.981   8.872 -0.3347 -0.4653 -0.7498
  147SAPE  H19R16243   1.015   2.930   8.864  0.1534 -1.1715 -3.0480
  147SAPE  H19S16244   1.187   2.902   8.898  0.8084  1.1431  1.1652
  147SAPE  C22016245   1.152   3.034   8.732 -0.6312  0.2825  1.0639
  147SAPE  H20R16246   1.137   2.952   8.658 -0.9355 -0.5625  2.0326
  147SAPE  H20S16247   1.256   3.071   8.739 -1.0452  1.8477 -0.3852
  147SAPE  H20T16248   1.090   3.122   8.707 -1.8150 -0.1993  2.1334
  147SAPE   C3316249   2.228   2.920  10.178  0.6384 -0.3943 -0.1141
  147SAPE   H3X16250   2.124   2.897  10.211  0.6883 -1.3989 -0.5936
  147SAPE   H3Y16251   2.260   2.827  10.126  1.6682  1.1810 -2.4798
  147SAPE   C3416252   2.220   3.046  10.086 -0.3660 -0.7816 -0.6281
  147SAPE   H4X16253   2.316   3.085  10.046 -0.2366  2.7655  2.5643
  147SAPE   H4Y16254   2.180   3.122  10.157  1.6723 -0.9208  0.7797
  147SAPE   C3516255   2.111   3.036   9.979 -0.4364  0.4724 -0.4776
  147SAPE   H5X16256   2.081   3.142   9.960 -0.6029  0.4482 -0.3495
  147SAPE   H5Y16257   2.021   2.979  10.012 -0.2343  0.2932 -0.2305
  147SAPE   C3616258   2.172   2.973   9.853 -0.4095  0.1083 -0.6011
  147SAPE   H6X16259   2.199   2.867   9.874  0.8057  0.3362 -0.9322
  147SAPE   H6Y16260   2.265   3.024   9.819  0.4367 -0.9868  0.0033
  147SAPE   C3716261   2.065   2.958   9.740  0.6475 -0.1935  0.8615
  147SAPE   H7X16262   2.026   3.057   9.708  0.0688 -0.7061 -0.0520
  147SAPE   H7Y16263   1.975   2.900   9.770  0.0319 -0.9901 -2.2014
  147SAPE   C3816264   2.107   2.881   9.608 -0.2759  0.8202 -0.4057
  147SAPE   H8X16265   2.113   2.775   9.641  2.0936  0.5190 -1.6195
  147SAPE   H8Y16266   2.211   2.899   9.574  0.1036 -3.4855 -2.1037
  147SAPE   C3916267   2.017   2.914   9.490  0.1614  0.2938  0.4228
  147SAPE   H9X16268   2.057   2.858   9.403 -0.9201 -2.2702  1.5032
  147SAPE   H9Y16269   2.015   3.019   9.454 -0.2746 -0.7876 -3.0529
  147SAPE  C31016270   1.871   2.868   9.500 -0.5137  0.3220  0.2713
  147SAPE  H10X16271   1.824   2.906   9.592  1.1779  1.5719  0.6818
  147SAPE  H10Y16272   1.885   2.759   9.516  0.9851  0.6292  1.3166
  147SAPE  C31116273   1.802   2.899   9.376  0.7529  0.0155 -0.3150
  147SAPE  H11X16274   1.858   2.880   9.282 -2.9890  0.5497 -2.8958
  147SAPE  H11Y16275   1.766   3.004   9.369  0.8973  0.0830 -0.0344
  147SAPE  C31216276   1.663   2.825   9.375 -0.5699  0.4702 -0.2158
  147SAPE  H12X16277   1.613   2.852   9.471  3.0716 -2.0831  2.6939
  147SAPE  H12Y16278   1.674   2.715   9.380  1.6418  0.6888  0.9301
  147SAPE  C31316279   1.567   2.857   9.253  0.3619  0.9024 -0.0488
  147SAPE  H13X16280   1.547   2.966   9.262  2.8050  1.4767 -0.7028
  147SAPE  H13Y16281   1.469   2.806   9.256  0.7113  0.1845 -0.4769
  147SAPE  C31416282   1.625   2.837   9.111 -0.0716 -0.5206 -0.4545
  147SAPE  H14X16283   1.642   2.728   9.116 -3.7637 -1.1427  2.1207
  147SAPE  H14Y16284   1.722   2.891   9.102  0.1070 -0.9097 -0.9083
  147SAPE  C31516285   1.527   2.883   8.999  0.3361 -0.2759 -0.5376
  147SAPE  H15X16286   1.495   2.989   9.008 -2.2332 -0.8152 -2.1284
  147SAPE  H15Y16287   1.430   2.829   9.006  0.1962 -0.1134 -1.1329
  147SAPE  C31616288   1.586   2.866   8.852  0.6545  0.5602 -0.0084
  147SAPE  H16X16289   1.590   2.755   8.845  1.0480  0.5791 -0.0970
  147SAPE  H16Y16290   1.686   2.911   8.838  1.3582 -0.8571  0.2692
  147SAPE  C31716291   1.497   2.924   8.746  0.4554 -0.1822  0.0120
  147SAPE  H17X16292   1.508   3.035   8.749 -1.0813  0.0503 -1.3877
  147SAPE  H17Y16293   1.392   2.892   8.764 -0.5735  2.7819 -0.1652
  147SAPE  C31816294   1.531   2.892   8.599 -0.4570 -0.8170 -0.3043
  147SAPE  H18X16295   1.554   2.783   8.592 -2.4855 -1.1680 -4.1503
  147SAPE  H18Y16296   1.622   2.948   8.569  0.1208 -1.5234  0.1054
  147SAPE  H18Z16297   1.441   2.917   8.539  0.1020 -0.0027 -0.8219
  148SAPE     N16298   3.725   5.040  10.524 -0.3011  0.3265 -0.5373
  148SAPE   HN116299   3.785   4.961  10.557  0.1473  1.0129  0.3253
  148SAPE   HN216300   3.632   5.036  10.570 -0.0363 -0.9139 -0.0848
  148SAPE   HN316301   3.708   5.033  10.421  2.1908  2.1931 -1.1799
  148SAPE   C1216302   3.797   5.172  10.548  0.4119 -0.8015  0.0274
  148SAPE  H12A16303   3.905   5.148  10.558  0.8446  0.0715 -2.0408
  148SAPE  H12B16304   3.766   5.211  10.648  0.2197 -1.9945  0.4529
  148SAPE   C1116305   3.778   5.280  10.434 -1.0137 -0.0057  0.1856
  148SAPE  H11A16306   3.791   5.223  10.339  2.7956 -2.0255  1.7363
  148SAPE  H11B16307   3.851   5.361  10.450 -1.7381  1.1264 -1.8524
  148SAPE     P16308   3.607   5.476  10.379 -0.2578 -0.5287 -0.0435
  148SAPE   O1316309   3.498   5.539  10.452 -0.3186  0.3732 -0.3250
  148SAPE   O1416310   3.732   5.561  10.348 -0.1915  0.3235  0.6498
  148SAPE   O1216311   3.641   5.328  10.438 -0.7944  0.5382 -0.0303
  148SAPE   O1116312   3.543   5.430  10.248 -0.6102  0.9860 -0.7918
  148SAPE    C116313   3.434   5.336  10.250 -0.1612  0.1001 -0.3937
  148SAPE    HA16314   3.401   5.312  10.353  3.2479 -0.0723  0.7997
  148SAPE    HB16315   3.355   5.375  10.183  1.6743  2.3828 -1.3771
  148SAPE    C216316   3.496   5.204  10.193  0.4753 -0.3235  0.1124
  148SAPE    HS16317   3.594   5.177  10.238  0.0178 -1.1666  0.6301
  148SAPE   O2116318   3.499   5.214  10.053 -0.8459 -0.8254  0.2175
  148SAPE   C2116319   3.593   5.157   9.989 -0.4051 -0.7711  0.0984
  148SAPE   O2216320   3.690   5.095  10.034  0.2640 -0.3816  0.1240
  148SAPE   C2216321   3.550   5.146   9.842  0.0216  0.7850 -0.0411
  148SAPE   H2R16322   3.506   5.044   9.841 -1.0262  1.2299 -0.0982
  148SAPE   H2S16323   3.463   5.214   9.825 -1.5935 -0.4717  2.5480
  148SAPE    C316324   3.400   5.092  10.236 -0.4555  0.3381 -0.1140
  148SAPE    HX16325   3.294   5.122  10.246 -0.7012 -0.6044  0.2655
  148SAPE    HY16326   3.434   5.056  10.336  1.4806 -0.7903 -1.1183
  148SAPE   O3116327   3.424   4.979  10.155 -0.1422 -0.1351 -0.5908
  148SAPE   C3116328   3.341   4.871  10.176 -0.3096 -0.3214  0.3434
  148SAPE   O3216329   3.253   4.872  10.257 -0.3613 -0.0021  0.5001
  148SAPE   C3216330   3.395   4.753  10.092 -0.2054  0.2750 -0.4787
  148SAPE   H2X16331   3.317   4.675  10.077  1.2268 -0.9520 -1.9884
  148SAPE   H2Y16332   3.494   4.723  10.133  1.0558  2.9534 -1.3523
  148SAPE   C2316333   3.655   5.166   9.729 -0.8806  0.7324  0.2960
  148SAPE   H3R16334   3.755   5.134   9.767 -0.8259 -1.2016 -1.3271
  148SAPE   H3S16335   3.659   5.275   9.704  0.6873  0.2567 -1.7665
  148SAPE   C2416336   3.627   5.078   9.605 -0.2501  0.4380 -0.4583
  148SAPE   H4R16337   3.616   4.972   9.639 -0.6902 -0.1918 -2.4184
  148SAPE   H4S16338   3.714   5.072   9.537  0.8750 -0.4918  0.9837
  148SAPE   C2516339   3.502   5.132   9.540  0.6276 -0.2704 -0.3324
  148SAPE   H5R16340   3.426   5.171   9.610  0.8480 -0.2178 -0.1232
  148SAPE   C2616341   3.485   5.149   9.409 -0.1643  0.1933  0.1276
  148SAPE   H6R16342   3.395   5.197   9.368  1.1825  1.6464 -1.3060
  148SAPE   C2716343   3.592   5.125   9.296  0.5475  1.0380 -0.2008
  148SAPE   H7R16344   3.545   5.073   9.210 -0.4713  0.7976  0.4875
  148SAPE   H7S16345   3.670   5.056   9.333  0.7644  1.3514 -0.0632
  148SAPE   C2816346   3.648   5.252   9.245  0.2976 -0.3377  0.1192
  148SAPE   H8R16347   3.720   5.304   9.311 -0.6240  2.0461 -0.6249
  148SAPE   C2916348   3.627   5.313   9.121 -0.5354 -0.1336 -0.4995
  148SAPE   H9R16349   3.683   5.406   9.108 -0.1507 -0.2489  0.3052
  148SAPE  C21016350   3.527   5.253   9.030 -0.3531 -0.1184  0.0284
  148SAPE  H10R16351   3.431   5.230   9.082 -0.1255 -0.8639  0.1303
  148SAPE  H10S16352   3.568   5.156   8.997  3.2510  0.8606  1.1145
  148SAPE  C21116353   3.501   5.339   8.909  0.2374 -0.6910 -0.6125
  148SAPE  H11R16354   3.464   5.442   8.924  1.1392 -0.3264 -0.8091
  148SAPE  C21216355   3.534   5.313   8.785 -0.1801  0.0160  0.9149
  148SAPE  H12R16356   3.513   5.397   8.718  0.6870  1.0326  1.8703
  148SAPE  C21316357   3.604   5.194   8.722 -0.0343 -0.2616 -0.4308
  148SAPE  H13R16358   3.575   5.106   8.784 -1.1463  0.5188  0.1980
  148SAPE  H13S16359   3.714   5.194   8.737  0.0634  0.3246 -1.1350
  148SAPE  C21416360   3.553   5.174   8.582  0.7548  0.0621  0.2219
  148SAPE  H14R16361   3.457   5.121   8.573 -0.1111  1.3277  1.5791
  148SAPE  C21516362   3.612   5.208   8.465 -0.5298 -0.1830  0.0569
  148SAPE  H15R16363   3.564   5.185   8.369  0.2294 -3.5990  0.3912
  148SAPE  C21616364   3.742   5.287   8.452  0.8689  0.0019  0.0721
  148SAPE  H16R16365   3.811   5.232   8.385  0.3627 -0.0609 -0.4049
  148SAPE  H16S16366   3.790   5.297   8.552 -2.0629  0.4723  1.5557
  148SAPE  C21716367   3.711   5.427   8.389 -0.6495 -0.2638  0.2603
  148SAPE  H17R16368   3.677   5.409   8.285 -0.6604  0.3897  0.1497
  148SAPE  H17S16369   3.799   5.486   8.356 -0.0697 -1.4912 -0.4698
  148SAPE  C21816370   3.615   5.522   8.463  0.2276 -0.0476  0.2313
  148SAPE  H18R16371   3.519   5.467   8.472  0.7896 -1.0067  0.4823
  148SAPE  H18S16372   3.575   5.603   8.398 -0.8674 -0.0214  0.9159
  148SAPE  C21916373   3.682   5.577   8.592 -1.3521  0.1076 -0.1236
  148SAPE  H19R16374   3.780   5.627   8.574 -0.5534 -1.4108 -0.1566
  148SAPE  H19S16375   3.710   5.489   8.654 -1.0685  1.4001  1.6666
  148SAPE  C22016376   3.594   5.663   8.683  0.2278 -0.1531 -0.1617
  148SAPE  H20R16377   3.656   5.697   8.768  1.1334 -0.3093 -0.7469
  148SAPE  H20S16378   3.522   5.597   8.737  0.7422  0.5142  1.3957
  148SAPE  H20T16379   3.544   5.749   8.633  1.0706 -0.1063 -0.9411
  148SAPE   C3316380   3.413   4.778   9.939 -0.3580 -0.4747 -0.3782
  148SAPE   H3X16381   3.426   4.680   9.890  1.3869  0.6747 -2.3509
  148SAPE   H3Y16382   3.506   4.835   9.921 -1.0484  0.2038 -1.9222
  148SAPE   C3416383   3.285   4.845   9.875 -0.3331  0.1149 -0.0515
  148SAPE   H4X16384   3.265   4.941   9.926  2.2729  0.1999  0.9624
  148SAPE   H4Y16385   3.199   4.776   9.892  0.2855 -0.8305 -0.6687
  148SAPE   C3516386   3.304   4.875   9.725  0.0870 -0.0331  0.1626
  148SAPE   H5X16387   3.387   4.942   9.691 -1.3243  0.2659 -3.0637
  148SAPE   H5Y16388   3.212   4.924   9.686  0.2884 -0.4666 -0.9172
  148SAPE   C3616389   3.337   4.748   9.647  0.7823  0.1096  0.5221
  148SAPE   H6X16390   3.263   4.666   9.653  1.8000 -0.9170 -0.5182
  148SAPE   H6Y16391   3.436   4.704   9.670  1.1258  0.2796 -0.5488
  148SAPE   C3716392   3.358   4.776   9.495 -0.5418 -0.1350  0.4475
  148SAPE   H7X16393   3.452   4.834   9.482 -1.3474  1.2672  0.6957
  148SAPE   H7Y16394   3.262   4.828   9.473  0.5571  2.2563  0.9985
  148SAPE   C3816395   3.374   4.650   9.416  0.3253  0.6679  0.0585
  148SAPE   H8X16396   3.271   4.608   9.416  0.8153 -0.6336  1.2241
  148SAPE   H8Y16397   3.449   4.576   9.451 -0.5301 -0.6211 -0.7436
  148SAPE   C3916398   3.415   4.671   9.266  0.2167 -0.1836 -0.0333
  148SAPE   H9X16399   3.392   4.575   9.217 -2.5743 -0.4184  1.5344
  148SAPE   H9Y16400   3.523   4.691   9.250 -0.1558  2.5449  0.3587
  148SAPE  C31016401   3.336   4.788   9.194  0.1937  0.4802  0.0050
  148SAPE  H10X16402   3.384   4.888   9.199 -0.6545  1.0931 -2.4765
  148SAPE  H10Y16403   3.232   4.805   9.229 -0.1825  1.6408 -1.5451
  148SAPE  C31116404   3.311   4.752   9.045 -0.4785 -0.7251  0.1702
  148SAPE  H11X16405   3.229   4.818   9.009  0.5156  0.2339 -0.3848
  148SAPE  H11Y16406   3.252   4.657   9.048 -1.4948 -0.1560 -0.7284
  148SAPE  C31216407   3.433   4.757   8.948 -0.5540  0.0305 -0.4752
  148SAPE  H12X16408   3.523   4.717   9.001 -0.3634  2.8450  1.5636
  148SAPE  H12Y16409   3.462   4.863   8.930 -0.6566  0.1483  0.0232
  148SAPE  C31316410   3.416   4.696   8.809  0.8638  0.5709  0.0945
  148SAPE  H13X16411   3.342   4.614   8.815  0.1925  0.6092 -4.2299
  148SAPE  H13Y16412   3.516   4.668   8.769  1.1128 -2.5325  2.4692
  148SAPE  C31416413   3.351   4.798   8.709  0.2272  0.6536 -0.2660
  148SAPE  H14X16414   3.404   4.894   8.697  1.0334  0.1039 -1.2616
  148SAPE  H14Y16415   3.258   4.815   8.768  0.8217 -1.0334  1.2428
  148SAPE  C31516416   3.323   4.729   8.569  0.6459  0.3866 -0.6652
  148SAPE  H15X16417   3.216   4.720   8.538  0.9559 -1.7804 -1.2660
  148SAPE  H15Y16418   3.349   4.622   8.588  2.2137  0.5640 -1.6465
  148SAPE  C31616419   3.400   4.786   8.449 -0.5271 -0.1912  0.3184
  148SAPE  H16X16420   3.351   4.883   8.426  0.0753 -0.1045 -0.6730
  148SAPE  H16Y16421   3.383   4.712   8.368 -0.6043  0.5318 -0.3439
  148SAPE  C31716422   3.549   4.807   8.464  0.4650 -0.2578 -0.0900
  148SAPE  H17X16423   3.589   4.724   8.527  0.4162  0.8438  1.4378
  148SAPE  H17Y16424   3.564   4.898   8.525  1.0164  0.6242 -1.4840
  148SAPE  C31816425   3.627   4.821   8.329  0.2038 -0.0004 -0.2147
  148SAPE  H18X16426   3.587   4.743   8.260  0.5978 -1.3899  1.0799
  148SAPE  H18Y16427   3.735   4.804   8.351  0.4595  1.8651  0.0994
  148SAPE  H18Z16428   3.618   4.919   8.278  0.6137  0.6773  0.9979
  149SAPE     N16429   5.269   2.243  11.094 -0.6229 -0.7336 -0.0327
  149SAPE   HN116430   5.352   2.244  11.031  1.7804 -0.2391  2.9028
  149SAPE   HN216431   5.267   2.149  11.138 -0.0984 -0.5814  0.3246
  149SAPE   HN316432   5.184   2.242  11.034 -0.9496  0.1676  0.3921
  149SAPE   C1216433   5.282   2.361  11.190 -0.8429  0.8172 -0.7371
  149SAPE  H12A16434   5.365   2.339  11.260 -0.4032  1.4066 -1.0648
  149SAPE  H12B16435   5.183   2.382  11.235  0.2229 -0.4042  2.4578
  149SAPE   C1116436   5.322   2.492  11.108  0.4242  0.3962 -0.5128
  149SAPE  H11A16437   5.337   2.575  11.181 -0.7778 -0.0205  0.2448
  149SAPE  H11B16438   5.238   2.518  11.041 -1.2026 -0.5590  1.0515
  149SAPE     P16439   5.506   2.550  10.919  0.3053  0.2360 -0.1712
  149SAPE   O1316440   5.495   2.691  10.965  0.8026  0.0723 -0.1943
  149SAPE   O1416441   5.641   2.502  10.900 -0.3022  1.0229 -0.1094
  149SAPE   O1216442   5.441   2.457  11.033  0.0787  0.9139 -0.3466
  149SAPE   O1116443   5.416   2.529  10.782 -0.0715  0.3954  0.1426
  149SAPE    C116444   5.331   2.415  10.774  0.5169  0.0749 -0.4885
  149SAPE    HA16445   5.391   2.322  10.779 -0.4673 -0.5296  0.4178
  149SAPE    HB16446   5.262   2.412  10.861  1.0228  2.9078  0.1258
  149SAPE    C216447   5.241   2.417  10.642 -0.1468  0.0183  0.1647
  149SAPE    HS16448   5.183   2.324  10.621  1.5584 -1.1297  0.2991
  149SAPE   O2116449   5.324   2.446  10.530 -0.2516  0.0381  0.4255
  149SAPE   C2116450   5.398   2.341  10.492  0.2151 -0.0090 -1.2756
  149SAPE   O2216451   5.396   2.234  10.548  0.5625  0.3029  0.2594
  149SAPE   C2216452   5.468   2.351  10.354 -0.4415  0.1454 -0.0608
  149SAPE   H2R16453   5.452   2.252  10.307 -1.2907 -0.2013  0.9185
  149SAPE   H2S16454   5.412   2.422  10.289 -1.4507 -0.4232  0.1797
  149SAPE    C316455   5.145   2.530  10.660  0.0628 -0.2463 -0.1551
  149SAPE    HX16456   5.192   2.630  10.660 -1.3402  0.4506  1.4177
  149SAPE    HY16457   5.102   2.523  10.763  1.9566 -0.6443  0.6655
  149SAPE   O3116458   5.036   2.517  10.564  0.4227  0.1254  0.1041
  149SAPE   C3116459   4.923   2.451  10.594 -0.5511 -0.6660 -0.4528
  149SAPE   O3216460   4.901   2.401  10.704 -0.3829  1.0512 -0.3711
  149SAPE   C3216461   4.835   2.433  10.476  0.2428  0.2545 -0.1561
  149SAPE   H2X16462   4.784   2.527  10.447 -0.3371  0.0820  0.2925
  149SAPE   H2Y16463   4.748   2.374  10.512  1.2051 -1.9406 -1.2822
  149SAPE   C2316464   5.618   2.385  10.360 -0.5603 -0.7667  0.1503
  149SAPE   H3R16465   5.670   2.325  10.437  1.1583  1.4377  0.8012
  149SAPE   H3S16466   5.637   2.491  10.385 -0.9323 -0.2297 -1.6989
  149SAPE   C2416467   5.678   2.352  10.223 -0.5070  0.2518  0.6897
  149SAPE   H4R16468   5.668   2.243  10.207 -0.0287  0.5495 -2.2416
  149SAPE   H4S16469   5.787   2.374  10.233 -0.3332  0.6339 -1.5999
  149SAPE   C2516470   5.623   2.425  10.100  0.7563  0.5329  0.2615
  149SAPE   H5R16471   5.540   2.379  10.044  0.5238  1.5041 -0.2140
  149SAPE   C2616472   5.659   2.542  10.043  0.0473  0.0208 -0.3975
  149SAPE   H6R16473   5.616   2.577   9.948  2.3321  2.7149 -0.5811
  149SAPE   C2716474   5.768   2.632  10.103  0.8768  0.3026  0.3426
  149SAPE   H7R16475   5.851   2.620  10.030 -0.3413  1.0906 -1.2508
  149SAPE   H7S16476   5.809   2.599  10.200 -0.1601 -0.1779  0.6396
  149SAPE   C2816477   5.727   2.781  10.104  0.5698  0.2076 -0.0847
  149SAPE   H8R16478   5.673   2.801  10.198 -0.7685 -1.9584 -0.3408
  149SAPE   C2916479   5.758   2.883  10.025 -0.3018  0.0012  0.0998
  149SAPE   H9R16480   5.732   2.989  10.037 -0.8542  0.5289 -4.1861
  149SAPE  C21016481   5.851   2.868   9.912  0.7636  0.7188 -0.8394
  149SAPE  H10R16482   5.822   2.776   9.858 -0.3948  0.8794 -0.4957
  149SAPE  H10S16483   5.951   2.848   9.956  0.1870  0.8209  0.5404
  149SAPE  C21116484   5.846   2.979   9.812  0.2100 -0.4825  0.0614
  149SAPE  H11R16485   5.913   3.063   9.835 -1.3440  0.4978  1.2110
  149SAPE  C21216486   5.773   2.998   9.703 -0.0618 -0.0489  0.3721
  149SAPE  H12R16487   5.781   3.094   9.650 -0.7141 -0.0234  0.3100
  149SAPE  C21316488   5.657   2.918   9.658  0.0625 -0.6888  0.1946
  149SAPE  H13R16489   5.630   2.846   9.738  0.0525 -1.5504 -0.5679
  149SAPE  H13S16490   5.690   2.862   9.568 -1.7472 -0.8265 -0.4281
  149SAPE  C21416491   5.530   2.994   9.619  0.3107 -0.4768  0.1554
  149SAPE  H14R16492   5.447   2.987   9.690  1.1056 -1.3608  1.0177
  149SAPE  C21516493   5.521   3.066   9.504  0.0490  0.2296 -0.7742
  149SAPE  H15R16494   5.420   3.106   9.486 -0.5257 -1.1413 -0.7424
  149SAPE  C21616495   5.629   3.086   9.397  0.5790 -0.0208  0.9106
  149SAPE  H16R16496   5.652   3.005   9.325  1.0412  0.0633  0.9574
  149SAPE  H16S16497   5.721   3.112   9.454  1.3878  1.5906 -1.0125
  149SAPE  C21716498   5.601   3.209   9.312  0.1884 -0.4944  0.0532
  149SAPE  H17R16499   5.699   3.257   9.291  0.5663 -0.5238  1.5885
  149SAPE  H17S16500   5.551   3.284   9.377  0.6423 -0.5619  0.4843
  149SAPE  C21816501   5.541   3.173   9.183  0.6489  0.1619 -0.6153
  149SAPE  H18R16502   5.446   3.117   9.196  0.2512  0.7673 -0.8740
  149SAPE  H18S16503   5.610   3.103   9.132  0.4346  0.5002 -1.3790
  149SAPE  C21916504   5.491   3.285   9.098 -0.4471  0.1706  0.6702
  149SAPE  H19R16505   5.461   3.240   9.001 -1.6952  1.0517  0.6232
  149SAPE  H19S16506   5.577   3.351   9.074 -1.0554 -0.0254 -2.6099
  149SAPE  C22016507   5.381   3.363   9.159  0.1333  0.4866 -0.0138
  149SAPE  H20R16508   5.346   3.447   9.095  0.1467  1.2816  1.0059
  149SAPE  H20S16509   5.409   3.415   9.253 -0.5457  0.9466 -0.0534
  149SAPE  H20T16510   5.295   3.296   9.182 -0.0324  0.7752  0.2104
  149SAPE   C3316511   4.894   2.358  10.358 -0.3651 -0.7561  0.3617
  149SAPE   H3X16512   4.936   2.260  10.388 -1.3785 -1.2986  0.0189
  149SAPE   H3Y16513   4.968   2.413  10.296 -0.8462 -1.9646 -1.3504
  149SAPE   C3416514   4.786   2.304  10.262  1.1720 -0.9189  0.0464
  149SAPE   H4X16515   4.768   2.379  10.182 -3.0072 -4.0016 -2.2913
  149SAPE   H4Y16516   4.689   2.292  10.315  2.2549 -2.2363  1.8293
  149SAPE   C3516517   4.828   2.175  10.183 -0.1907 -0.4558 -0.5396
  149SAPE   H5X16518   4.829   2.091  10.255 -0.6194 -0.4476 -0.5179
  149SAPE   H5Y16519   4.931   2.185  10.144 -0.6107 -0.7537 -1.7840
  149SAPE   C3616520   4.731   2.143  10.071 -0.1094 -0.2922  0.0878
  149SAPE   H6X16521   4.733   2.229  10.001  0.0787 -0.8406 -0.5925
  149SAPE   H6Y16522   4.627   2.122  10.103 -0.4844  2.6230  1.0263
  149SAPE   C3716523   4.763   2.017   9.985 -0.4386  0.0498 -0.8503
  149SAPE   H7X16524   4.681   1.984   9.918 -1.1054 -0.9454  0.4199
  149SAPE   H7Y16525   4.769   1.935  10.059 -1.8780  0.5341 -0.1613
  149SAPE   C3816526   4.900   2.032   9.920 -0.3504  0.0749 -0.3263
  149SAPE   H8X16527   4.972   1.992   9.995 -1.2922  0.3641  0.7588
  149SAPE   H8Y16528   4.929   2.137   9.900  1.1048 -0.6551 -2.3140
  149SAPE   C3916529   4.916   1.940   9.801 -0.1704  0.6508  0.5404
  149SAPE   H9X16530   4.822   1.881   9.793  0.2186  0.2603 -2.1930
  149SAPE   H9Y16531   5.001   1.870   9.816 -0.4889  0.7984  3.5576
  149SAPE  C31016532   4.955   2.016   9.669  0.2868  0.0002  0.3136
  149SAPE  H10X16533   5.059   2.050   9.691  0.3968 -0.0546 -0.1191
  149SAPE  H10Y16534   4.889   2.102   9.646  1.8917  1.0828 -0.4573
  149SAPE  C31116535   4.967   1.938   9.538 -0.4157 -0.0274  0.5530
  149SAPE  H11X16536   4.871   1.898   9.499  0.0987  1.1346 -2.1110
  149SAPE  H11Y16537   5.036   1.852   9.553  0.3095  0.1888 -1.2309
  149SAPE  C31216538   5.044   2.010   9.427 -0.1256  0.2109  0.4737
  149SAPE  H12X16539   5.127   2.050   9.490 -0.9233 -1.8811  2.9901
  149SAPE  H12Y16540   4.990   2.100   9.390 -0.5323 -0.2671 -0.1127
  149SAPE  C31316541   5.100   1.931   9.312 -0.2138 -0.7327 -0.4371
  149SAPE  H13X16542   5.164   1.847   9.347 -1.0807 -1.2728 -0.0893
  149SAPE  H13Y16543   5.157   2.001   9.249 -2.8274 -0.1086 -2.2728
  149SAPE  C31416544   5.000   1.875   9.214  0.0651  0.3910  0.0203
  149SAPE  H14X16545   4.932   1.955   9.177  1.7546  1.0276 -1.8881
  149SAPE  H14Y16546   4.934   1.800   9.262  1.3257 -0.0712  1.0901
  149SAPE  C31516547   5.051   1.808   9.082 -0.2478  0.8645 -0.8002
  149SAPE  H15X16548   5.124   1.874   9.032  1.5301 -0.1127  0.3907
  149SAPE  H15Y16549   4.974   1.799   9.003 -1.2670 -0.0344  0.2452
  149SAPE  C31616550   5.128   1.672   9.110 -0.2634 -0.1926  0.1942
  149SAPE  H16X16551   5.088   1.624   9.202  0.9907  1.5074  1.7062
  149SAPE  H16Y16552   5.235   1.689   9.134 -0.7195  0.7097  1.7734
  149SAPE  C31716553   5.097   1.567   9.007  0.1625 -0.4092  0.2899
  149SAPE  H17X16554   5.167   1.480   9.009 -0.5765 -1.0405 -0.8366
  149SAPE  H17Y16555   5.113   1.621   8.912  0.0521 -1.3816 -0.2949
  149SAPE  C31816556   4.957   1.508   9.008  0.2264  0.8293  0.3572
  149SAPE  H18X16557   4.935   1.453   8.914  0.3765 -1.8321  1.7915
  149SAPE  H18Y16558   4.871   1.576   9.029  0.3734  0.2496  3.2172
  149SAPE  H18Z16559   4.942   1.423   9.078  0.1160  0.4031 -0.1790
  150SAPE     N16560   0.695   0.281  11.029 -0.0177 -0.1504 -0.3388
  150SAPE   HN116561   0.769   0.348  11.059 -0.5417 -0.6442  2.2398
  150SAPE   HN216562   0.720   0.187  11.065  2.0898 -0.2701 -1.9466
  150SAPE   HN316563   0.695   0.273  10.925  1.9637  1.1483 -0.4879
  150SAPE   C1216564   0.562   0.325  11.076 -0.5492  0.4237 -0.1552
  150SAPE  H12A16565   0.570   0.365  11.179  0.4881 -1.3991  0.5257
  150SAPE  H12B16566   0.495   0.236  11.071 -0.3081  0.2188  0.1725
  150SAPE   C1116567   0.494   0.429  10.983 -0.0338 -1.0620  0.1437
  150SAPE  H11A16568   0.567   0.513  10.979 -0.9974 -0.2336 -0.4581
  150SAPE  H11B16569   0.402   0.467  11.032 -0.8893 -1.1287 -1.3611
  150SAPE     P16570   0.338   0.311  10.797 -0.2664 -0.0176 -0.0462
  150SAPE   O1316571   0.374   0.196  10.713  0.0034 -0.2562 -1.0402
  150SAPE   O1416572   0.249   0.285  10.913 -0.4685  0.0794  0.1078
  150SAPE   O1216573   0.469   0.374  10.847 -0.2731  0.6276  0.0307
  150SAPE   O1116574   0.268   0.428  10.718  0.0993  0.5837  0.4498
  150SAPE    C116575   0.330   0.465  10.587  0.2320  0.2516 -0.3857
  150SAPE    HA16576   0.435   0.430  10.575 -0.0286 -0.6724 -0.0802
  150SAPE    HB16577   0.276   0.421  10.500 -0.3906 -0.5561  0.4025
  150SAPE    C216578   0.329   0.612  10.556  0.0019  0.0587  0.1946
  150SAPE    HS16579   0.339   0.670  10.651 -0.0851 -2.8465  2.0997
  150SAPE   O2116580   0.212   0.645  10.484 -0.0244  0.2916  0.1809
  150SAPE   C2116581   0.179   0.774  10.492  0.6113 -0.8911 -0.1728
  150SAPE   O2216582   0.244   0.865  10.540  0.2310 -0.0403  0.1022
  150SAPE   C2216583   0.042   0.793  10.430 -0.4438  0.2751  0.3173
  150SAPE   H2R16584  -0.031   0.825  10.508 -2.1915 -0.0899 -1.1021
  150SAPE   H2S16585   0.046   0.872  10.351  1.6049 -1.1720 -1.1070
  150SAPE    C316586   0.456   0.658  10.472  0.4996  0.2186  0.1957
  150SAPE    HX16587   0.547   0.655  10.537 -0.0714  0.5484  1.0257
  150SAPE    HY16588   0.450   0.763  10.437 -0.1690 -0.0609 -0.5572
  150SAPE   O3116589   0.476   0.575  10.359  0.0415  0.4913 -0.1134
  150SAPE   C3116590   0.593   0.505  10.342  0.1971  0.0520  1.3679
  150SAPE   O3216591   0.691   0.522  10.409 -0.0012  0.4971 -0.5222
  150SAPE   C3216592   0.565   0.397  10.234 -0.5821 -0.8325  0.1662
  150SAPE   H2X16593   0.642   0.318  10.246 -0.5167 -0.7874  0.0447
  150SAPE   H2Y16594   0.575   0.449  10.137 -1.1862 -0.6243  0.2127
  150SAPE   C2316595  -0.012   0.669  10.362 -0.1684 -0.2318  0.6436
  150SAPE   H3R16596  -0.119   0.686  10.336  0.3336  2.1217 -0.1821
  150SAPE   H3S16597  -0.013   0.567  10.406 -1.5873 -1.7864 -2.6190
  150SAPE   C2416598   0.057   0.659  10.222 -0.2543 -0.7378 -0.2595
  150SAPE   H4R16599   0.160   0.623  10.241 -0.2981 -0.3948  0.6744
  150SAPE   H4S16600   0.090   0.761  10.191 -0.7857 -0.2347  0.7843
  150SAPE   C2516601  -0.020   0.574  10.123 -0.8697 -0.2285 -0.0660
  150SAPE   H5R16602  -0.003   0.467  10.139 -1.3038 -0.3021 -0.0928
  150SAPE   C2616603  -0.099   0.612  10.019  0.8488  0.6283 -0.2725
  150SAPE   H6R16604  -0.150   0.530   9.967 -1.1683  0.8649  1.2165
  150SAPE   C2716605  -0.129   0.750   9.982  0.3097 -0.4539 -0.5153
  150SAPE   H7R16606  -0.118   0.753   9.871 -2.9968 -0.7402 -0.9516
  150SAPE   H7S16607  -0.055   0.814  10.033 -2.3274  1.0966  1.6086
  150SAPE   C2816608  -0.268   0.784  10.029  0.6172 -0.3965  0.0069
  150SAPE   H8R16609  -0.273   0.846  10.119 -2.9082 -0.6606  0.1157
  150SAPE   C2916610  -0.380   0.769   9.958  0.1976  0.3408 -0.5240
  150SAPE   H9R16611  -0.468   0.805  10.013 -0.5071 -1.5978 -0.3182
  150SAPE  C21016612  -0.395   0.704   9.822  0.5051  0.0416  0.2435
  150SAPE  H10R16613  -0.432   0.600   9.833 -1.6883  0.4867 -2.0567
  150SAPE  H10S16614  -0.298   0.685   9.771  0.3383  1.7427 -0.7894
  150SAPE  C21116615  -0.481   0.772   9.717  0.1868  0.0888 -0.1818
  150SAPE  H11R16616  -0.589   0.758   9.731  0.2013  0.7245  0.6787
  150SAPE  C21216617  -0.438   0.859   9.624 -0.9683  0.1729  0.2110
  150SAPE  H12R16618  -0.506   0.891   9.544  0.6153  0.5742 -1.0265
  150SAPE  C21316619  -0.290   0.909   9.613  0.1463  0.0948  0.2666
  150SAPE  H13R16620  -0.253   0.927   9.716 -0.2905  2.9014  0.0154
  150SAPE  H13S16621  -0.287   1.008   9.561  1.2808  0.5589  1.1704
  150SAPE  C21416622  -0.205   0.810   9.529  0.3154  0.7389  0.5484
  150SAPE  H14R16623  -0.173   0.725   9.590 -3.6572 -0.8571  0.7228
  150SAPE  C21516624  -0.177   0.837   9.398 -0.1121  0.1694 -0.9838
  150SAPE  H15R16625  -0.105   0.767   9.352 -0.8677 -0.5741 -1.0718
  150SAPE  C21616626  -0.229   0.943   9.307 -0.0337 -0.3142 -0.0553
  150SAPE  H16R16627  -0.157   0.936   9.222 -1.5792 -1.1944 -1.3572
  150SAPE  H16S16628  -0.217   1.044   9.352  0.3303 -0.4951  0.2497
  150SAPE  C21716629  -0.374   0.920   9.258 -0.4708 -0.5957  0.4870
  150SAPE  H17R16630  -0.447   0.987   9.307  1.3265  2.4039 -0.6602
  150SAPE  H17S16631  -0.410   0.819   9.286 -2.1585  0.3916  2.0957
  150SAPE  C21816632  -0.389   0.938   9.107  0.3869 -0.2864  0.4444
  150SAPE  H18R16633  -0.490   0.911   9.071 -0.3767  2.6278  0.1149
  150SAPE  H18S16634  -0.319   0.870   9.054  0.3057 -0.5772  0.7099
  150SAPE  C21916635  -0.361   1.085   9.064 -0.1352 -0.3899  0.5333
  150SAPE  H19R16636  -0.263   1.124   9.099 -1.0569  1.8538  0.8285
  150SAPE  H19S16637  -0.435   1.144   9.122 -0.1307  1.8990 -1.5800
  150SAPE  C22016638  -0.391   1.115   8.915 -0.0864 -0.2622  0.4816
  150SAPE  H20R16639  -0.486   1.066   8.883 -1.3369  2.1534  0.3035
  150SAPE  H20S16640  -0.317   1.096   8.834 -0.7532 -1.7477  0.1785
  150SAPE  H20T16641  -0.416   1.223   8.913 -1.6558 -0.6029 -1.1403
  150SAPE   C3316642   0.417   0.343  10.223 -0.8135 -0.2796 -0.3631
  150SAPE   H3X16643   0.351   0.423  10.184 -0.4591 -0.6455 -1.7697
  150SAPE   H3Y16644   0.377   0.300  10.318  1.7743 -1.3188  0.3588
  150SAPE   C3416645   0.398   0.239  10.105 -0.6558  0.8902  0.3937
  150SAPE   H4X16646   0.421   0.143  10.155  0.1347  0.6529 -0.3964
  150SAPE   H4Y16647   0.474   0.257  10.026 -1.4940  1.2296 -0.3657
  150SAPE   C3516648   0.262   0.234  10.042 -0.2677 -0.1163  0.0022
  150SAPE   H5X16649   0.262   0.309   9.961 -0.2547  0.3609  0.4382
  150SAPE   H5Y16650   0.193   0.264  10.124  0.8643 -1.7395  1.6324
  150SAPE   C3616651   0.230   0.099   9.979 -0.4019  0.3760  0.3493
  150SAPE   H6X16652   0.241   0.013  10.048  2.3687  1.3610  1.2511
  150SAPE   H6Y16653   0.307   0.069   9.905 -1.0891 -0.8528  0.0986
  150SAPE   C3716654   0.089   0.099   9.924  0.0798  0.2054  0.0938
  150SAPE   H7X16655   0.021   0.120  10.010  0.5291  1.5846  0.1338
  150SAPE   H7Y16656   0.053   0.010   9.868 -0.6939  1.2177 -1.0564
  150SAPE   C3816657   0.046   0.213   9.833 -0.2684  0.5219  0.3663
  150SAPE   H8X16658   0.099   0.187   9.738 -2.7153 -0.5544 -0.7777
  150SAPE   H8Y16659   0.082   0.311   9.871  0.5511  0.2498  0.3179
  150SAPE   C3916660  -0.108   0.201   9.814 -0.4822  0.7575  0.5659
  150SAPE   H9X16661  -0.181   0.196   9.897 -0.9748 -0.7422  0.0781
  150SAPE   H9Y16662  -0.134   0.115   9.748 -2.5214  2.2649 -0.7269
  150SAPE  C31016663  -0.166   0.317   9.723 -0.7236 -0.1984  0.3064
  150SAPE  H10X16664  -0.098   0.322   9.636 -2.2661  1.6549 -0.8898
  150SAPE  H10Y16665  -0.150   0.403   9.792 -0.0633  0.9986 -1.2912
  150SAPE  C31116666  -0.309   0.296   9.679  0.6920  0.3651  0.5312
  150SAPE  H11X16667  -0.369   0.296   9.773  2.6985  3.6247  1.9785
  150SAPE  H11Y16668  -0.321   0.206   9.615  0.2449  1.6768 -1.3062
  150SAPE  C31216669  -0.363   0.406   9.582 -0.0130  1.0500  0.3225
  150SAPE  H12X16670  -0.379   0.498   9.642  2.6441  0.4864  2.0728
  150SAPE  H12Y16671  -0.463   0.370   9.550 -0.6022  2.6850  0.2328
  150SAPE  C31316672  -0.281   0.422   9.448  0.0748 -0.3151  0.5143
  150SAPE  H13X16673  -0.235   0.327   9.414 -0.8798 -0.3148 -0.8525
  150SAPE  H13Y16674  -0.189   0.481   9.468  1.1661 -2.1344  1.0618
  150SAPE  C31416675  -0.358   0.497   9.334  0.0083  0.3959 -0.4615
  150SAPE  H14X16676  -0.366   0.602   9.369  0.4008  0.2179  0.1917
  150SAPE  H14Y16677  -0.462   0.458   9.324  0.8006 -1.1348 -4.6601
  150SAPE  C31516678  -0.290   0.496   9.201  0.4864 -0.0331  1.3558
  150SAPE  H15X16679  -0.257   0.392   9.181 -0.8277 -0.2615  0.2030
  150SAPE  H15Y16680  -0.195   0.554   9.211  1.9144 -2.0607  0.2994
  150SAPE  C31616681  -0.375   0.547   9.077  0.6168  0.6858 -0.6224
  150SAPE  H16X16682  -0.387   0.657   9.079 -0.7390  0.6469 -2.7383
  150SAPE  H16Y16683  -0.479   0.508   9.076 -0.6446  3.7322 -2.5853
  150SAPE  C31716684  -0.316   0.504   8.937  0.2369 -0.3498 -0.4251
  150SAPE  H17X16685  -0.320   0.393   8.940 -1.0701 -0.3896 -2.0416
  150SAPE  H17Y16686  -0.219   0.559   8.938  0.0738  0.0873 -2.7369
  150SAPE  C31816687  -0.388   0.553   8.813  0.1861 -0.1829 -0.5138
  150SAPE  H18X16688  -0.495   0.528   8.826  0.4841 -2.0644 -1.3839
  150SAPE  H18Y16689  -0.343   0.502   8.725  2.4698 -0.3468  0.6511
  150SAPE  H18Z16690  -0.373   0.663   8.806 -0.3049 -0.2154 -2.5773
  151SAPE     N16691   4.325   4.203  10.836  0.0174 -0.2512 -0.3060
  151SAPE   HN116692   4.349   4.218  10.736  3.4802 -2.0247  0.1062
  151SAPE   HN216693   4.396   4.136  10.872  1.4809  1.9108  1.0059
  151SAPE   HN316694   4.225   4.175  10.833 -0.3536  0.9944 -3.3246
  151SAPE   C1216695   4.331   4.344  10.890  0.0487 -0.1346  0.0220
  151SAPE  H12A16696   4.435   4.384  10.884 -0.7813  1.9779 -1.5563
  151SAPE  H12B16697   4.306   4.342  10.999  1.4551 -0.7345  0.3594
  151SAPE   C1116698   4.240   4.436  10.807  0.3238  0.0619  0.0147
  151SAPE  H11A16699   4.242   4.539  10.848 -1.4869 -0.2086  0.8851
  151SAPE  H11B16700   4.137   4.397  10.815  0.2073  0.1188 -1.0337
  151SAPE     P16701   4.380   4.534  10.604 -0.1403 -0.1942  0.2568
  151SAPE   O1316702   4.515   4.540  10.670  1.0064 -0.0539 -0.1922
  151SAPE   O1416703   4.377   4.508  10.459  0.1451 -0.0932 -0.1242
  151SAPE   O1216704   4.282   4.427  10.671  0.1585  0.1837  0.0928
  151SAPE   O1116705   4.297   4.668  10.643  0.6413 -0.5654 -0.1705
  151SAPE    C116706   4.159   4.678  10.591 -0.4496 -0.4014  0.7724
  151SAPE    HA16707   4.119   4.583  10.549 -1.2906  0.1982  0.1855
  151SAPE    HB16708   4.089   4.717  10.668 -1.2218  1.3125 -0.7276
  151SAPE    C216709   4.137   4.784  10.478 -0.7101  0.3489  0.2949
  151SAPE    HS16710   4.029   4.777  10.454 -1.1937  1.2499  1.9876
  151SAPE   O2116711   4.231   4.769  10.369  0.0947  0.3869 -0.1309
  151SAPE   C2116712   4.207   4.676  10.273  0.3087 -0.9921 -0.0145
  151SAPE   O2216713   4.100   4.614  10.263  0.0920  0.2954 -0.3675
  151SAPE   C2216714   4.324   4.680  10.161 -0.6265 -0.1992  0.0074
  151SAPE   H2R16715   4.410   4.643  10.220 -0.6386  1.3807  1.0856
  151SAPE   H2S16716   4.289   4.607  10.085 -0.3408  0.2359 -0.5454
  151SAPE    C316717   4.171   4.926  10.537 -0.4328  0.4491 -0.3257
  151SAPE    HX16718   4.262   4.896  10.594 -1.7190 -0.3721  1.4125
  151SAPE    HY16719   4.104   4.954  10.621 -1.9067 -0.0225 -1.3017
  151SAPE   O3116720   4.207   5.022  10.434  0.1835 -0.5142  0.6343
  151SAPE   C3116721   4.112   5.048  10.351  0.7137  0.8354 -0.6626
  151SAPE   O3216722   3.998   5.008  10.364 -0.5504  0.1632 -0.4197
  151SAPE   C3216723   4.151   5.144  10.234  0.6242  0.8654 -0.9184
  151SAPE   H2X16724   4.230   5.078  10.192  0.1349  1.8563 -3.5981
  151SAPE   H2Y16725   4.187   5.243  10.270 -1.8235  0.5264  2.9920
  151SAPE   C2316726   4.345   4.822  10.099 -0.4865 -0.0899 -0.1627
  151SAPE   H3R16727   4.357   4.888  10.188 -1.3555  1.0381 -0.8556
  151SAPE   H3S16728   4.249   4.853  10.053 -2.2526 -0.0255  3.2476
  151SAPE   C2416729   4.476   4.828  10.015  0.2960 -0.3266 -0.0730
  151SAPE   H4R16730   4.552   4.790  10.087 -2.6016 -1.9254  2.3666
  151SAPE   H4S16731   4.496   4.934   9.985  0.0456 -0.9493 -2.6892
  151SAPE   C2516732   4.473   4.734   9.895  0.8329 -0.9771 -0.0138
  151SAPE   H5R16733   4.504   4.629   9.911  1.4000 -0.6359  1.2397
  151SAPE   C2616734   4.457   4.778   9.767  0.6280  0.2688  0.1752
  151SAPE   H6R16735   4.456   4.697   9.692  1.9323 -0.5622  1.0068
  151SAPE   C2716736   4.443   4.919   9.717  0.3730  0.5420  0.0396
  151SAPE   H7R16737   4.542   4.953   9.682  0.4518  0.4322  0.1534
  151SAPE   H7S16738   4.396   4.983   9.795 -2.4597 -2.0926  0.7043
  151SAPE   C2816739   4.343   4.932   9.599 -0.0721 -0.0881  0.7012
  151SAPE   H8R16740   4.238   4.946   9.626  0.2003  1.2033  1.1643
  151SAPE   C2916741   4.369   4.920   9.467  0.2185 -0.3097  0.2981
  151SAPE   H9R16742   4.290   4.935   9.392  0.6800 -3.7922 -1.1090
  151SAPE  C21016743   4.497   4.888   9.408  0.2938  0.4034  0.2479
  151SAPE  H10R16744   4.579   4.904   9.482  1.8878 -0.0292 -1.3683
  151SAPE  H10S16745   4.520   4.943   9.315 -0.6048  0.2684 -0.0592
  151SAPE  C21116746   4.502   4.740   9.383  0.8342  0.5031 -0.2430
  151SAPE  H11R16747   4.520   4.675   9.470 -0.5658  0.8167  0.3124
  151SAPE  C21216748   4.505   4.684   9.266  0.1529  0.2263 -0.4675
  151SAPE  H12R16749   4.517   4.576   9.250 -0.5697  0.1745 -0.6863
  151SAPE  C21316750   4.479   4.772   9.141  0.2652 -0.3241 -0.4553
  151SAPE  H13R16751   4.578   4.803   9.099 -0.4293 -1.1078 -2.7939
  151SAPE  H13S16752   4.409   4.849   9.180 -0.7295 -1.0894 -0.6894
  151SAPE  C21416753   4.391   4.705   9.038 -0.4262  0.0142  0.2044
  151SAPE  H14R16754   4.312   4.643   9.082  1.4243 -3.3126 -0.7934
  151SAPE  C21516755   4.402   4.724   8.904 -0.0968 -0.5072 -0.1326
  151SAPE  H15R16756   4.328   4.672   8.842 -0.6289 -1.0871  0.9593
  151SAPE  C21616757   4.493   4.823   8.833  0.3669  0.3071 -0.0469
  151SAPE  H16R16758   4.573   4.761   8.787 -0.2390 -1.0418  0.6742
  151SAPE  H16S16759   4.531   4.892   8.910 -1.2671 -0.7838  1.8358
  151SAPE  C21716760   4.429   4.929   8.732 -0.4702  0.4707 -0.2087
  151SAPE  H17R16761   4.514   4.983   8.686 -0.4825 -0.2721 -1.1364
  151SAPE  H17S16762   4.366   5.001   8.790  1.0756  2.3355 -0.7402
  151SAPE  C21816763   4.345   4.870   8.624  0.6771  0.3567  0.5640
  151SAPE  H18R16764   4.307   4.948   8.554  2.3620  0.2589 -0.5158
  151SAPE  H18S16765   4.264   4.814   8.675  1.3721 -0.3901  0.8608
  151SAPE  C21916766   4.426   4.784   8.521 -0.4646  0.2546 -0.1678
  151SAPE  H19R16767   4.352   4.747   8.446 -0.2775 -0.2698 -0.1015
  151SAPE  H19S16768   4.465   4.692   8.570 -0.9454  0.5039  0.7001
  151SAPE  C22016769   4.533   4.862   8.445 -0.2207 -0.8286  0.3160
  151SAPE  H20R16770   4.581   4.807   8.361  0.6461 -0.0210  0.2730
  151SAPE  H20S16771   4.617   4.899   8.507 -0.5599  0.3640  0.0875
  151SAPE  H20T16772   4.493   4.955   8.401  1.7294  0.6079  1.4295
  151SAPE   C3316773   4.050   5.164  10.116 -0.5398  0.3907  0.2098
  151SAPE   H3X16774   3.974   5.240  10.143  0.6147  1.6151  0.1357
  151SAPE   H3Y16775   4.000   5.065  10.109  0.3229 -0.0964  0.7135
  151SAPE   C3416776   4.117   5.205   9.992  0.1691  0.8758 -0.7170
  151SAPE   H4X16777   4.197   5.134   9.962  1.1072  1.4960  0.2457
  151SAPE   H4Y16778   4.162   5.305  10.009  3.6008 -0.5159 -0.7472
  151SAPE   C3516779   4.022   5.209   9.875  0.4441  0.2384 -0.6852
  151SAPE   H5X16780   3.945   5.281   9.908 -0.2161 -0.9679  0.5217
  151SAPE   H5Y16781   3.960   5.118   9.860  1.8225 -0.9964  0.6677
  151SAPE   C3616782   4.096   5.259   9.741  0.1226 -0.0320 -0.3044
  151SAPE   H6X16783   4.186   5.195   9.731 -0.8442 -1.0968 -3.6479
  151SAPE   H6Y16784   4.117   5.368   9.748 -1.4742  0.2033  1.9527
  151SAPE   C3716785   4.013   5.241   9.611  0.2369 -1.5301 -0.1348
  151SAPE   H7X16786   3.924   5.309   9.612 -0.7230 -2.7316  1.4640
  151SAPE   H7Y16787   3.978   5.137   9.596 -0.2299 -1.3126 -0.5857
  151SAPE   C3816788   4.098   5.281   9.488  0.1129 -0.3545 -0.3030
  151SAPE   H8X16789   4.175   5.206   9.462 -0.0221 -0.6087  0.0161
  151SAPE   H8Y16790   4.142   5.382   9.502  0.8406 -0.3150 -2.5484
  151SAPE   C3916791   4.012   5.294   9.363 -0.4229 -0.0356  0.3212
  151SAPE   H9X16792   3.927   5.364   9.377  0.0683  0.8616 -1.0662
  151SAPE   H9Y16793   3.967   5.200   9.324  0.1793  0.5599 -1.9524
  151SAPE  C31016794   4.093   5.344   9.241 -0.2826  0.1378  0.2511
  151SAPE  H10X16795   4.183   5.283   9.219  0.3751  1.5534 -1.0562
  151SAPE  H10Y16796   4.133   5.442   9.274 -0.5366  0.3886 -0.1802
  151SAPE  C31116797   4.007   5.344   9.116  0.1301 -0.1762  0.4161
  151SAPE  H11X16798   3.909   5.393   9.136  0.6154  0.8476  0.3502
  151SAPE  H11Y16799   3.980   5.240   9.087  2.2855 -0.6445 -0.0879
  151SAPE  C31216800   4.082   5.390   8.996 -0.1029 -0.2283  0.0906
  151SAPE  H12X16801   4.179   5.337   8.995  0.1940  0.2705  1.2584
  151SAPE  H12Y16802   4.101   5.497   9.018 -0.3441 -0.5567  2.0953
  151SAPE  C31316803   4.006   5.380   8.867 -0.0823 -0.5359  0.2368
  151SAPE  H13X16804   3.913   5.440   8.869 -0.7124 -1.4875  0.1119
  151SAPE  H13Y16805   3.970   5.276   8.851 -0.0330 -0.6662  0.9215
  151SAPE  C31416806   4.098   5.418   8.746 -0.5741 -0.3391  0.1800
  151SAPE  H14X16807   4.193   5.363   8.764  0.0250  0.6717  0.2047
  151SAPE  H14Y16808   4.131   5.524   8.756  2.4150 -0.9863 -1.6249
  151SAPE  C31516809   4.056   5.408   8.596  0.6554 -0.0469  0.1227
  151SAPE  H15X16810   3.980   5.486   8.575  0.3501 -0.6978 -1.3354
  151SAPE  H15Y16811   4.002   5.313   8.577 -1.8553  1.0704  1.1744
  151SAPE  C31616812   4.170   5.417   8.491 -0.5400  0.2061 -0.4018
  151SAPE  H16X16813   4.247   5.340   8.508  0.4523  1.0602 -0.9393
  151SAPE  H16Y16814   4.223   5.514   8.498  2.7814 -1.4612 -0.5383
  151SAPE  C31716815   4.129   5.408   8.340  0.3318  0.2598 -0.5255
  151SAPE  H17X16816   4.042   5.475   8.321  0.3918  0.7070  0.6777
  151SAPE  H17Y16817   4.090   5.307   8.312  2.9201 -0.6798 -0.9848
  151SAPE  C31816818   4.245   5.418   8.248  0.3545  0.0878 -0.2969
  151SAPE  H18X16819   4.316   5.332   8.246  2.0684  1.4744 -0.6962
  151SAPE  H18Y16820   4.299   5.513   8.265  1.4332 -0.8809  2.1414
  151SAPE  H18Z16821   4.203   5.420   8.144 -0.0809 -0.9225 -0.1566
  152SAPE     N16822   6.502   4.027  10.706  0.1277 -0.4528  0.5912
  152SAPE   HN116823   6.589   3.990  10.662 -0.1894  0.1920 -0.6363
  152SAPE   HN216824   6.537   4.108  10.762  2.7033 -2.1381  1.5850
  152SAPE   HN316825   6.475   3.958  10.778 -1.0076 -2.1103 -1.3275
  152SAPE   C1216826   6.394   4.081  10.617 -0.1793  0.6998 -0.3469
  152SAPE  H12A16827   6.377   4.015  10.529 -2.8674  1.3409 -0.3885
  152SAPE  H12B16828   6.424   4.182  10.580 -0.1041 -0.3522 -3.5037
  152SAPE   C1116829   6.262   4.103  10.693  0.5905  0.1741 -0.7991
  152SAPE  H11A16830   6.295   4.183  10.763 -0.3663  0.9871 -1.2436
  152SAPE  H11B16831   6.230   4.014  10.752  2.2062  1.0966  1.6132
  152SAPE     P16832   6.046   4.240  10.645  0.3588  0.0757  0.2640
  152SAPE   O1316833   5.938   4.220  10.544 -0.5285  0.1650 -0.0981
  152SAPE   O1416834   6.012   4.219  10.789  0.5699 -0.0731 -0.5220
  152SAPE   O1216835   6.161   4.146  10.607  0.6125  0.2944 -0.3307
  152SAPE   O1116836   6.102   4.392  10.616 -0.0366  0.0446 -0.0387
  152SAPE    C116837   6.182   4.409  10.496  0.3607  0.1097 -0.2767
  152SAPE    HA16838   6.226   4.511  10.501  0.7028  0.0755 -1.8876
  152SAPE    HB16839   6.265   4.335  10.488 -1.0567 -1.6446  0.6274
  152SAPE    C216840   6.111   4.413  10.354  0.1480  0.1087 -0.5725
  152SAPE    HS16841   6.074   4.311  10.329 -1.2890  0.8526 -1.6473
  152SAPE   O2116842   6.203   4.462  10.257  0.0703  0.6731 -0.0209
  152SAPE   C2116843   6.289   4.375  10.206  0.8304 -0.8132  0.6336
  152SAPE   O2216844   6.306   4.258  10.228 -0.2086 -0.4146  0.6096
  152SAPE   C2216845   6.338   4.441  10.072 -0.3581  0.1769 -0.7184
  152SAPE   H2R16846   6.249   4.487  10.023 -0.7077 -1.3519 -1.5608
  152SAPE   H2S16847   6.403   4.520  10.117  1.5626 -2.0164  0.5378
  152SAPE    C316848   5.982   4.499  10.370  0.8099  0.4855  0.5150
  152SAPE    HX16849   6.011   4.596  10.415  0.5103  0.3756  0.9551
  152SAPE    HY16850   5.903   4.459  10.438  1.0637  1.8708  1.6708
  152SAPE   O3116851   5.913   4.530  10.248 -0.6178 -0.0628 -0.2646
  152SAPE   C3116852   5.850   4.434  10.191 -0.5316 -0.1800  0.1713
  152SAPE   O3216853   5.830   4.327  10.249 -0.4448 -0.0380  0.1463
  152SAPE   C3216854   5.810   4.469  10.053  0.3545 -0.0241 -0.2647
  152SAPE   H2X16855   5.763   4.570  10.061  2.4150  1.2776 -2.8662
  152SAPE   H2Y16856   5.743   4.385  10.024 -0.2072  0.4746 -0.4231
  152SAPE   C2316857   6.414   4.362   9.964 -0.4931  0.0644 -0.6486
  152SAPE   H3R16858   6.362   4.264   9.968 -1.9928  0.8590  0.4496
  152SAPE   H3S16859   6.521   4.348   9.990 -0.3049  1.4064 -0.5861
  152SAPE   C2416860   6.386   4.412   9.815  0.5367  0.8236  0.3074
  152SAPE   H4R16861   6.283   4.454   9.818  0.2344  0.3913 -1.8632
  152SAPE   H4S16862   6.385   4.325   9.746 -1.7219  1.5083 -0.6118
  152SAPE   C2516863   6.480   4.519   9.765 -0.5709 -0.1550 -0.0386
  152SAPE   H5R16864   6.507   4.596   9.838  0.6683  0.1991 -0.8331
  152SAPE   C2616865   6.536   4.539   9.644  0.5576 -0.4815  0.7659
  152SAPE   H6R16866   6.614   4.617   9.638  0.5225 -0.5178 -0.4991
  152SAPE   C2716867   6.510   4.459   9.515 -0.7093 -0.0992 -0.6575
  152SAPE   H7R16868   6.544   4.519   9.428  0.6844  0.4413  0.2284
  152SAPE   H7S16869   6.401   4.436   9.513 -0.5612 -0.8205 -0.4974
  152SAPE   C2816870   6.586   4.328   9.522 -0.3558 -0.3591 -0.7441
  152SAPE   H8R16871   6.569   4.260   9.606  0.3777  0.5787  0.1885
  152SAPE   C2916872   6.667   4.281   9.426 -0.7468 -0.2270  0.2230
  152SAPE   H9R16873   6.718   4.185   9.444 -0.7662 -0.3898 -0.5276
  152SAPE  C21016874   6.697   4.353   9.297  0.2537  0.0218 -0.2497
  152SAPE  H10R16875   6.779   4.294   9.251 -0.0014 -0.4382 -0.1252
  152SAPE  H10S16876   6.746   4.451   9.311  0.9134  0.4765 -4.3290
  152SAPE  C21116877   6.585   4.352   9.199 -0.2615 -0.1170  0.6657
  152SAPE  H11R16878   6.506   4.425   9.217  0.9717  2.3349 -2.7744
  152SAPE  C21216879   6.569   4.270   9.095  0.1774  0.0823  0.1572
  152SAPE  H12R16880   6.486   4.283   9.024 -0.1145 -1.7195  0.1116
  152SAPE  C21316881   6.671   4.163   9.050 -0.2621  0.3557 -0.2090
  152SAPE  H13R16882   6.704   4.105   9.139  1.7284 -0.4750 -1.4171
  152SAPE  H13S16883   6.764   4.211   9.010  0.4736  0.1485  1.1814
  152SAPE  C21416884   6.622   4.061   8.950 -0.1781  0.4251 -0.4237
  152SAPE  H14R16885   6.520   4.023   8.966  0.4525 -0.4734  1.7743
  152SAPE  C21516886   6.684   4.011   8.842  0.0372  1.0653 -0.6872
  152SAPE  H15R16887   6.630   3.937   8.781  1.8158 -0.4642 -0.5280
  152SAPE  C21616888   6.816   4.059   8.793  0.0208  0.3382 -0.8555
  152SAPE  H16R16889   6.884   3.973   8.778 -2.7734 -2.1250 -0.1558
  152SAPE  H16S16890   6.871   4.117   8.870 -1.4535 -2.9307  2.9957
  152SAPE  C21716891   6.797   4.147   8.663  0.4095 -0.1264  0.0341
  152SAPE  H17R16892   6.760   4.076   8.586 -0.0699 -1.3968  1.3840
  152SAPE  H17S16893   6.901   4.151   8.624  0.4574 -3.9502 -0.6318
  152SAPE  C21816894   6.722   4.278   8.669  0.2223 -0.0503 -0.0133
  152SAPE  H18R16895   6.619   4.263   8.707  0.0655  0.6335 -0.1570
  152SAPE  H18S16896   6.712   4.315   8.564 -1.6729  3.3195  1.1778
  152SAPE  C21916897   6.789   4.398   8.745  0.1217  0.0556  0.4445
  152SAPE  H19R16898   6.892   4.398   8.703 -0.0023 -2.3772 -0.0302
  152SAPE  H19S16899   6.795   4.378   8.854 -0.7407 -1.0831  0.3034
  152SAPE  C22016900   6.716   4.528   8.725 -0.2612  0.9215 -0.3953
  152SAPE  H20R16901   6.713   4.553   8.617 -0.7952  0.3709 -0.5100
  152SAPE  H20S16902   6.765   4.617   8.771  1.2891  0.5542 -1.2455
  152SAPE  H20T16903   6.615   4.520   8.770  0.4696 -1.1529  1.0081
  152SAPE   C3316904   5.933   4.472   9.961  0.1554 -0.5460  0.3498
  152SAPE   H3X16905   5.990   4.377   9.970 -0.7761 -1.2885 -1.1771
  152SAPE   H3Y16906   5.997   4.557   9.994  0.9015 -1.7538  2.1753
  152SAPE   C3416907   5.899   4.480   9.810  0.1955 -0.2994 -0.1101
  152SAPE   H4X16908   5.832   4.567   9.796  2.4469  1.7447  1.0148
  152SAPE   H4Y16909   5.858   4.379   9.787  2.1509 -1.0634 -0.5004
  152SAPE   C3516910   6.027   4.490   9.731 -0.6002 -0.7604  0.4404
  152SAPE   H5X16911   6.096   4.409   9.764  3.0255  1.5657 -0.7569
  152SAPE   H5Y16912   6.090   4.578   9.757  0.3984 -1.4592  0.4322
  152SAPE   C3616913   6.000   4.483   9.578  0.4686  0.1075  0.4828
  152SAPE   H6X16914   5.923   4.563   9.563 -1.5808 -1.4529  2.0883
  152SAPE   H6Y16915   5.950   4.389   9.547 -0.0634  1.5472 -3.7240
  152SAPE   C3716916   6.113   4.490   9.481  0.0295  0.2683 -0.6783
  152SAPE   H7X16917   6.192   4.421   9.518  2.3118  2.8186 -0.4626
  152SAPE   H7Y16918   6.156   4.592   9.474  0.0348  0.3228  0.0443
  152SAPE   C3816919   6.069   4.448   9.341 -0.0938  0.4607  0.1222
  152SAPE   H8X16920   6.011   4.354   9.349  1.2799 -0.6948 -2.3247
  152SAPE   H8Y16921   6.167   4.416   9.298  0.5759  0.5414  1.5095
  152SAPE   C3916922   6.003   4.556   9.256  0.4003 -0.5761  0.2619
  152SAPE   H9X16923   6.036   4.657   9.288  3.0090 -1.3492  0.2656
  152SAPE   H9Y16924   5.898   4.535   9.285 -0.4994  1.8779 -0.9423
  152SAPE  C31016925   6.020   4.530   9.105  1.1593  0.1023 -0.3435
  152SAPE  H10X16926   5.958   4.606   9.053 -0.6912 -0.3636  1.1027
  152SAPE  H10Y16927   5.979   4.430   9.084 -0.0433  0.3464  0.7576
  152SAPE  C31116928   6.156   4.570   9.046 -0.1567  0.5290 -0.3012
  152SAPE  H11X16929   6.221   4.615   9.125 -0.1773  0.7057 -0.3841
  152SAPE  H11Y16930   6.143   4.654   8.975  1.2701  1.4210  0.4439
  152SAPE  C31216931   6.225   4.451   8.980 -0.6400 -0.0058  0.2400
  152SAPE  H12X16932   6.151   4.400   8.914  1.4704 -1.7177 -0.9065
  152SAPE  H12Y16933   6.268   4.382   9.056 -1.7071 -1.3070 -0.2950
  152SAPE  C31316934   6.329   4.493   8.879 -0.1863  0.4021  0.3058
  152SAPE  H13X16935   6.385   4.403   8.845  1.4667  1.4639  0.1054
  152SAPE  H13Y16936   6.405   4.556   8.930 -0.0283 -0.5734  1.2999
  152SAPE  C31416937   6.271   4.566   8.764  0.4104  0.5775  0.1331
  152SAPE  H14X16938   6.225   4.666   8.779 -1.6947 -0.3445  0.0630
  152SAPE  H14Y16939   6.193   4.492   8.737  0.9631 -0.0238  0.1625
  152SAPE  C31516940   6.364   4.581   8.642 -0.4464  0.1282 -0.0403
  152SAPE  H15X16941   6.399   4.480   8.611 -1.0428 -0.7957  2.1375
  152SAPE  H15Y16942   6.448   4.648   8.672  0.3951 -0.8648 -0.1219
  152SAPE  C31616943   6.291   4.661   8.528 -0.1255 -0.2644  0.5676
  152SAPE  H16X16944   6.251   4.757   8.568  3.7988  2.2682 -1.0177
  152SAPE  H16Y16945   6.208   4.596   8.494 -0.0581 -0.9662  1.6917
  152SAPE  C31716946   6.386   4.692   8.411  0.5153 -0.0135  1.1169
  152SAPE  H17X16947   6.471   4.749   8.453 -0.5670  1.3888  1.5104
  152SAPE  H17Y16948   6.336   4.765   8.343 -0.2883 -0.0975  1.6009
  152SAPE  C31816949   6.447   4.572   8.343 -0.0512  0.0549 -0.0736
  152SAPE  H18X16950   6.505   4.613   8.258 -0.6306  3.3747  0.9828
  152SAPE  H18Y16951   6.366   4.509   8.300 -1.1261  0.5915  1.0906
  152SAPE  H18Z16952   6.517   4.520   8.412 -1.0294 -2.5859 -0.9258
  153SAPE     N16953   6.008   5.961  10.852  1.0920  0.2900 -0.0458
  153SAPE   HN116954   6.005   5.858  10.844 -0.4096  0.0467  2.5739
  153SAPE   HN216955   5.932   5.992  10.915  2.4601  0.8757  1.4110
  153SAPE   HN316956   5.997   5.995  10.755  0.5768  1.1955  0.3142
  153SAPE   C1216957   6.142   6.001  10.900 -0.1829 -0.1275 -0.2386
  153SAPE  H12A16958   6.203   5.912  10.929  0.0164 -0.5724 -1.9141
  153SAPE  H12B16959   6.135   6.057  10.996  0.0017 -2.0905  0.9907
  153SAPE   C1116960   6.213   6.083  10.789 -0.0599  0.1773  0.1309
  153SAPE  H11A16961   6.310   6.128  10.819  0.3510  0.0949 -1.0135
  153SAPE  H11B16962   6.159   6.179  10.778 -0.0039  0.0770 -1.2885
  153SAPE     P16963   6.311   5.878  10.644 -0.0908  0.1889 -0.0448
  153SAPE   O1316964   6.399   5.847  10.762  0.3706 -0.3368 -0.6929
  153SAPE   O1416965   6.223   5.767  10.597  0.3773 -0.3865  0.6060
  153SAPE   O1216966   6.217   6.011  10.667 -0.1093  0.1268 -0.4129
  153SAPE   O1116967   6.404   5.918  10.517  0.2729 -0.0671 -0.4804
  153SAPE    C116968   6.374   6.038  10.441 -0.3221  0.3174  0.7293
  153SAPE    HA16969   6.338   6.119  10.507 -1.0392  0.4656  0.1671
  153SAPE    HB16970   6.466   6.067  10.386 -1.0010 -1.2714 -1.3837
  153SAPE    C216971   6.272   6.008  10.335 -0.2307 -0.5645 -0.3491
  153SAPE    HS16972   6.196   5.943  10.384 -0.1666  0.6163  1.4121
  153SAPE   O2116973   6.334   5.938  10.223 -0.5192  0.0520 -0.2001
  153SAPE   C2116974   6.241   5.873  10.157  0.1754 -0.0630 -0.4194
  153SAPE   O2216975   6.124   5.851  10.186 -0.8033  0.1654 -0.1388
  153SAPE   C2216976   6.300   5.830  10.025 -0.1090  0.4655 -0.0431
  153SAPE   H2R16977   6.344   5.915   9.969  2.5384 -0.9733 -0.3298
  153SAPE   H2S16978   6.379   5.752  10.035  0.2018  0.8362  0.4409
  153SAPE    C316979   6.212   6.138  10.287 -0.1121 -0.3865  0.2112
  153SAPE    HX16980   6.174   6.188  10.379  0.0999 -1.1037  0.6933
  153SAPE    HY16981   6.119   6.112  10.232 -0.6983 -1.5486  1.6662
  153SAPE   O3116982   6.305   6.238  10.217 -0.1705  0.7111 -0.5935
  153SAPE   C3116983   6.300   6.227  10.086 -1.0603  0.0992  0.2114
  153SAPE   O3216984   6.218   6.165  10.021  0.3920 -0.0838 -0.6066
  153SAPE   C3216985   6.430   6.280  10.020  0.1508 -0.7742  0.5602
  153SAPE   H2X16986   6.513   6.216  10.058  0.7161 -1.4167 -1.6177
  153SAPE   H2Y16987   6.433   6.389  10.043 -3.7420  0.3738 -3.0804
  153SAPE   C2316988   6.198   5.763   9.930 -0.0177 -0.5143  0.1111
  153SAPE   H3R16989   6.131   5.694   9.985  1.3549 -0.4263  1.9916
  153SAPE   H3S16990   6.240   5.701   9.847  0.1291 -0.6535  0.2898
  153SAPE   C2416991   6.116   5.874   9.861 -0.8965  0.3196 -0.8077
  153SAPE   H4R16992   6.185   5.941   9.806  0.7260  0.9191  1.7740
  153SAPE   H4S16993   6.071   5.931   9.946  1.3051 -1.4120  1.7078
  153SAPE   C2516994   6.004   5.829   9.781 -0.1099 -0.0561 -0.0280
  153SAPE   H5R16995   5.940   5.763   9.841 -1.2985  0.0599 -1.1119
  153SAPE   C2616996   5.984   5.835   9.649 -0.4364  0.9490 -0.5749
  153SAPE   H6R16997   5.899   5.779   9.607 -0.5282 -2.7251  3.7752
  153SAPE   C2716998   6.076   5.898   9.554  0.1450  0.1996 -0.5277
  153SAPE   H7R16999   6.078   6.008   9.569 -2.4476  0.4257 -1.2759
  153SAPE   H7S17000   6.017   5.888   9.460  0.2853  3.9368 -1.1668
  153SAPE   C2817001   6.214   5.839   9.538 -0.1594 -0.1563 -0.6095
  153SAPE   H8R17002   6.251   5.767   9.612 -0.5127  1.1436  0.8873
  153SAPE   C2917003   6.298   5.888   9.451  0.0919 -0.1257  1.0870
  153SAPE   H9R17004   6.401   5.850   9.442 -0.0796 -0.2831 -0.4212
  153SAPE  C21017005   6.270   6.008   9.355 -0.9122  0.5004 -0.1715
  153SAPE  H10R17006   6.171   6.006   9.305  0.4790  1.7815 -3.1884
  153SAPE  H10S17007   6.340   5.998   9.269 -2.2286  0.5161 -1.2774
  153SAPE  C21117008   6.309   6.138   9.415  0.6097 -0.4965  0.2122
  153SAPE  H11R17009   6.336   6.145   9.521  0.5185  0.3859  0.1815
  153SAPE  C21217010   6.328   6.254   9.335  0.1405  0.4039  0.2719
  153SAPE  H12R17011   6.345   6.351   9.385 -0.8369  0.0163  1.3929
  153SAPE  C21317012   6.320   6.258   9.181  0.1253  0.2334 -0.4678
  153SAPE  H13R17013   6.357   6.164   9.134  1.4376  0.3115  0.3714
  153SAPE  H13S17014   6.380   6.343   9.143 -1.0298  2.1286  1.7047
  153SAPE  C21417015   6.179   6.275   9.124  0.5496 -0.2352 -0.0506
  153SAPE  H14R17016   6.108   6.202   9.165  0.1054  0.7811  1.0448
  153SAPE  C21517017   6.134   6.363   9.030  0.2642  0.5727 -0.3007
  153SAPE  H15R17018   6.029   6.353   9.000  0.3185 -1.7762  0.1323
  153SAPE  C21617019   6.223   6.461   8.958  0.0705 -0.6507 -0.4017
  153SAPE  H16R17020   6.317   6.484   9.013 -1.5694 -1.1581  2.9206
  153SAPE  H16S17021   6.174   6.561   8.955  0.0042 -0.6300  0.6861
  153SAPE  C21717022   6.246   6.430   8.809  0.0625 -0.0853 -0.0012
  153SAPE  H17R17023   6.301   6.520   8.773 -0.3816 -0.8826 -3.0056
  153SAPE  H17S17024   6.148   6.416   8.759 -0.6462  1.0891  1.0147
  153SAPE  C21817025   6.331   6.309   8.774 -0.2940 -0.4999  0.0619
  153SAPE  H18R17026   6.273   6.221   8.809 -1.0517  0.2700  0.7687
  153SAPE  H18S17027   6.430   6.313   8.824 -0.2955  1.0758 -0.0248
  153SAPE  C21917028   6.355   6.290   8.626 -0.8931 -0.0303 -0.6974
  153SAPE  H19R17029   6.408   6.378   8.584 -1.5496 -0.1746 -1.8694
  153SAPE  H19S17030   6.255   6.284   8.579 -1.4769  1.9531  0.2179
  153SAPE  C22017031   6.429   6.159   8.605 -0.2950 -0.4139  0.1036
  153SAPE  H20R17032   6.515   6.169   8.674 -1.7931  1.5604  1.8429
  153SAPE  H20S17033   6.446   6.125   8.501 -0.3691 -1.7063  0.4982
  153SAPE  H20T17034   6.357   6.083   8.642 -0.1420 -0.2594  0.7350
  153SAPE   C3317035   6.423   6.262   9.864 -0.3487 -0.4565 -0.6629
  153SAPE   H3X17036   6.339   6.322   9.823 -0.6032 -1.3082 -1.4177
  153SAPE   H3Y17037   6.407   6.158   9.829 -1.6387 -0.2009 -0.8502
  153SAPE   C3417038   6.555   6.310   9.804  0.0666 -0.2193 -0.4275
  153SAPE   H4X17039   6.629   6.245   9.856  0.6844  2.7008  2.6860
  153SAPE   H4Y17040   6.589   6.412   9.831  1.0184 -0.9713  1.4189
  153SAPE   C3517041   6.555   6.296   9.650 -0.6864 -0.1296 -0.6085
  153SAPE   H5X17042   6.460   6.317   9.596  0.2402 -2.5962 -3.4758
  153SAPE   H5Y17043   6.583   6.193   9.619  1.1128 -0.3148  1.3817
  153SAPE   C3617044   6.653   6.404   9.600  0.2363 -0.3938  0.4731
  153SAPE   H6X17045   6.752   6.357   9.617 -0.6400 -2.3128  0.5505
  153SAPE   H6Y17046   6.640   6.498   9.657  1.0038 -0.1620  0.2719
  153SAPE   C3717047   6.637   6.428   9.455  0.0781 -0.2009  0.1363
  153SAPE   H7X17048   6.539   6.476   9.437  0.1622 -0.6512 -1.6715
  153SAPE   H7Y17049   6.642   6.329   9.405 -0.3714 -0.2450  0.1742
  153SAPE   C3817050   6.731   6.521   9.385  0.2358 -0.1205  0.1047
  153SAPE   H8X17051   6.835   6.482   9.381 -0.8864 -3.6804  1.2626
  153SAPE   H8Y17052   6.722   6.619   9.436 -2.9061 -0.0379 -0.3799
  153SAPE   C3917053   6.691   6.547   9.231 -0.7437 -0.1498  0.3073
  153SAPE   H9X17054   6.591   6.595   9.232 -1.2830 -1.2432  0.4514
  153SAPE   H9Y17055   6.681   6.451   9.176  0.5856  0.1995 -0.6007
  153SAPE  C31017056   6.782   6.646   9.164 -0.3952 -0.1324  0.6911
  153SAPE  H10X17057   6.886   6.607   9.168  0.4542  1.8210 -0.6786
  153SAPE  H10Y17058   6.773   6.736   9.229 -2.5185  1.3449 -1.4832
  153SAPE  C31117059   6.734   6.687   9.017 -0.4142 -0.3524  0.2175
  153SAPE  H11X17060   6.635   6.736   9.031 -1.0069 -0.8994 -1.7838
  153SAPE  H11Y17061   6.725   6.595   8.956  1.5730 -1.0757  0.9269
  153SAPE  C31217062   6.816   6.785   8.944  0.2392 -0.4887  0.8445
  153SAPE  H12X17063   6.775   6.782   8.840 -1.2322  2.0813  1.2629
  153SAPE  H12Y17064   6.920   6.752   8.922  0.6934 -0.4677  2.8289
  153SAPE  C31317065   6.810   6.931   8.991 -0.7745  1.1580  0.1456
  153SAPE  H13X17066   6.861   6.934   9.090  2.3507  0.8816 -1.3335
  153SAPE  H13Y17067   6.704   6.959   9.005 -0.8623  0.7268  0.3728
  153SAPE  C31417068   6.887   7.028   8.903  0.3840  0.6196  0.4939
  153SAPE  H14X17069   6.858   7.133   8.923 -3.8539 -0.7642  2.7438
  153SAPE  H14Y17070   6.861   7.006   8.797  0.0056 -1.0132  0.8950
  153SAPE  C31517071   7.041   7.022   8.923 -0.2339  0.2805  0.3625
  153SAPE  H15X17072   7.090   6.925   8.903 -0.4518  0.3947 -0.8067
  153SAPE  H15Y17073   7.056   7.038   9.032  2.1770  0.1431  0.1152
  153SAPE  C31617074   7.115   7.129   8.850  0.0039 -0.2195 -0.0986
  153SAPE  H16X17075   7.059   7.224   8.863 -0.7127 -0.4293 -1.4264
  153SAPE  H16Y17076   7.110   7.101   8.742  2.2523 -0.8178 -0.1025
  153SAPE  C31717077   7.265   7.131   8.896 -0.2866 -0.0850  0.5320
  153SAPE  H17X17078   7.309   7.029   8.900  1.0364  0.4834  1.1239
  153SAPE  H17Y17079   7.272   7.180   8.996  1.5622 -1.4736  1.1349
  153SAPE  C31817080   7.359   7.205   8.804 -0.0058 -0.3306 -0.2911
  153SAPE  H18X17081   7.352   7.146   8.711 -0.3209 -0.4512 -0.1929
  153SAPE  H18Y17082   7.462   7.201   8.844  1.0853  2.2501 -2.5264
  153SAPE  H18Z17083   7.338   7.309   8.769  0.6241 -0.4728 -1.1169
  154SAPE     N17084   0.423   5.149  10.860  0.3098 -0.1129  0.6213
  154SAPE   HN117085   0.323   5.146  10.890  0.5473 -2.1190  1.3845
  154SAPE   HN217086   0.465   5.056  10.879  0.1053  0.0203  1.7660
  154SAPE   HN317087   0.473   5.217  10.921  0.3607  0.5736 -0.1726
  154SAPE   C1217088   0.448   5.186  10.716 -0.3496 -0.7544 -0.2022
  154SAPE  H12A17089   0.514   5.275  10.718  1.4332 -2.0259  0.4452
  154SAPE  H12B17090   0.355   5.232  10.677  1.5189  1.4602 -2.4005
  154SAPE   C1117091   0.484   5.067  10.624  0.1476  0.0576  0.1882
  154SAPE  H11A17092   0.494   5.107  10.521  0.6886 -1.4380 -0.3584
  154SAPE  H11B17093   0.405   4.989  10.617  1.4445 -1.1644 -2.7860
  154SAPE     P17094   0.629   4.887  10.743  0.2301  0.2008 -0.2679
  154SAPE   O1317095   0.763   4.837  10.765 -0.0148 -0.3024 -0.0441
  154SAPE   O1417096   0.553   4.930  10.861 -0.2715  0.3328  0.1723
  154SAPE   O1217097   0.616   5.014  10.650  0.0150  0.0519  0.7459
  154SAPE   O1117098   0.550   4.765  10.672  0.7637  0.1408 -0.7933
  154SAPE    C117099   0.612   4.696  10.563  0.0794 -0.0122  0.1776
  154SAPE    HA17100   0.722   4.693  10.575  0.2825  0.4139 -1.2959
  154SAPE    HB17101   0.572   4.592  10.561 -0.2003 -0.0136  2.8731
  154SAPE    C217102   0.595   4.771  10.431  1.1242  0.2398 -0.2901
  154SAPE    HS17103   0.636   4.874  10.445 -0.8812  1.4085 -2.2876
  154SAPE   O2117104   0.447   4.784  10.411 -1.4488 -0.1402  0.4938
  154SAPE   C2117105   0.402   4.872  10.321 -0.3925  0.2724 -0.3369
  154SAPE   O2217106   0.474   4.955  10.271 -0.4671 -0.0993  0.3348
  154SAPE   C2217107   0.255   4.883  10.332 -0.4645 -0.5296  0.0665
  154SAPE   H2R17108   0.220   4.875  10.437 -1.8811  0.5314 -0.3033
  154SAPE   H2S17109   0.227   4.986  10.300 -1.7936 -0.7859  0.3485
  154SAPE    C317110   0.669   4.701  10.308 -0.6480 -0.2255 -0.4571
  154SAPE    HX17111   0.620   4.603  10.294  0.4317 -1.0652  1.3702
  154SAPE    HY17112   0.768   4.678  10.351 -0.6658  2.1418  1.0496
  154SAPE   O3117113   0.677   4.769  10.184  0.0969 -0.5167 -0.4034
  154SAPE   C3117114   0.776   4.854  10.171 -1.1656  0.2224 -0.1611
  154SAPE   O3217115   0.857   4.879  10.259  0.5891 -0.3354 -0.1261
  154SAPE   C3217116   0.773   4.905  10.033  0.1607 -0.4017 -0.4728
  154SAPE   H2X17117   0.690   4.976  10.014  2.3324  2.4620 -0.1580
  154SAPE   H2Y17118   0.764   4.812   9.973 -1.1645 -0.4852 -0.1676
  154SAPE   C2317119   0.186   4.776  10.247 -0.4508 -0.0271 -0.2117
  154SAPE   H3R17120   0.080   4.781  10.280  0.3151 -0.3111  2.5325
  154SAPE   H3S17121   0.210   4.670  10.266  0.3224  0.3193  0.8218
  154SAPE   C2417122   0.200   4.800  10.097  0.2828 -0.4528 -0.7436
  154SAPE   H4R17123   0.181   4.906  10.069  0.2585 -0.4849 -0.8539
  154SAPE   H4S17124   0.107   4.752  10.059 -1.2312  0.7580  1.2700
  154SAPE   C2517125   0.326   4.756  10.034  0.7691  0.0488  0.0729
  154SAPE   H5R17126   0.359   4.657  10.066 -0.2142 -1.3123 -2.7006
  154SAPE   C2617127   0.393   4.808   9.923  0.2581  0.0832 -0.2061
  154SAPE   H6R17128   0.488   4.757   9.900 -0.1361 -0.8826  0.2534
  154SAPE   C2717129   0.361   4.934   9.843  0.1446  0.0793 -0.6577
  154SAPE   H7R17130   0.263   4.973   9.877  0.5049  1.0858 -0.7194
  154SAPE   H7S17131   0.344   4.910   9.736  0.5517 -1.9173 -0.3006
  154SAPE   C2817132   0.458   5.045   9.852  0.1246 -0.0737  0.0731
  154SAPE   H8R17133   0.563   5.023   9.874 -0.1512 -0.1518  1.4045
  154SAPE   C2917134   0.427   5.173   9.825 -0.0503  0.4366 -0.6403
  154SAPE   H9R17135   0.506   5.245   9.854 -0.6812  0.6264  0.6677
  154SAPE  C21017136   0.297   5.236   9.796  0.1681  0.1417 -0.3818
  154SAPE  H10R17137   0.214   5.167   9.823  1.0285 -0.3438  1.1902
  154SAPE  H10S17138   0.303   5.239   9.685 -0.6260  0.0558 -0.4348
  154SAPE  C21117139   0.266   5.374   9.857 -1.1448 -0.2178  0.2771
  154SAPE  H11R17140   0.281   5.370   9.966  0.1149  1.3810  0.1970
  154SAPE  C21217141   0.237   5.493   9.802 -0.0814 -1.0001 -0.6294
  154SAPE  H12R17142   0.227   5.584   9.863 -1.7217 -0.6656 -1.3491
  154SAPE  C21317143   0.213   5.532   9.656  0.8761  0.6262 -0.1283
  154SAPE  H13R17144   0.282   5.476   9.589 -2.5011 -2.2900 -1.4470
  154SAPE  H13S17145   0.234   5.640   9.640 -1.2614  1.2826  1.1833
  154SAPE  C21417146   0.075   5.493   9.606  1.0764  0.2790 -0.7861
  154SAPE  H14R17147   0.003   5.465   9.685  2.4475  0.3268  0.5076
  154SAPE  C21517148   0.045   5.479   9.475  0.7102  0.2460 -0.8304
  154SAPE  H15R17149  -0.056   5.463   9.433  1.2529  0.2806 -2.1899
  154SAPE  C21617150   0.147   5.499   9.367  0.4880  0.0874  0.0995
  154SAPE  H16R17151   0.237   5.550   9.407  0.9623  0.7911 -1.7779
  154SAPE  H16S17152   0.104   5.555   9.282 -0.1621  1.0570  1.0438
  154SAPE  C21717153   0.205   5.369   9.327  0.2623  0.1047  0.4846
  154SAPE  H17R17154   0.234   5.316   9.420 -1.1792 -0.6739  0.5267
  154SAPE  H17S17155   0.296   5.371   9.264 -0.4041  0.7147 -0.4885
  154SAPE  C21817156   0.097   5.284   9.251 -0.3585  0.3250 -0.1268
  154SAPE  H18R17157   0.001   5.302   9.304  0.3558  0.0328  1.3167
  154SAPE  H18S17158   0.121   5.175   9.253 -0.5578  0.2985  0.8027
  154SAPE  C21917159   0.090   5.316   9.106 -0.4378  0.2262  1.2298
  154SAPE  H19R17160   0.184   5.276   9.061 -1.5029 -0.1631 -0.7660
  154SAPE  H19S17161   0.071   5.424   9.084  0.1545 -0.1184 -1.3048
  154SAPE  C22017162  -0.027   5.250   9.031 -0.2437  0.0681  0.7127
  154SAPE  H20R17163  -0.027   5.258   8.921 -2.5150  0.0864  0.6702
  154SAPE  H20S17164  -0.123   5.296   9.065 -1.0311 -0.4873 -0.6932
  154SAPE  H20T17165  -0.037   5.140   9.035  2.7333 -0.3093 -0.2734
  154SAPE   C3317166   0.897   4.996   9.989 -0.4184 -0.1650  0.3714
  154SAPE   H3X17167   0.989   4.937  10.007 -1.6777 -2.9356 -1.5528
  154SAPE   H3Y17168   0.899   5.089  10.050 -2.5752 -0.4408  0.9331
  154SAPE   C3417169   0.896   5.048   9.841  0.4164  0.2632 -0.0831
  154SAPE   H4X17170   0.981   5.118   9.827  0.3550  0.0119 -1.9570
  154SAPE   H4Y17171   0.797   5.099   9.836  0.3886  0.4427  1.6873
  154SAPE   C3517172   0.918   4.945   9.728 -0.2960 -0.3081  0.3482
  154SAPE   H5X17173   0.854   4.858   9.751 -1.4615  0.2439 -0.6926
  154SAPE   H5Y17174   1.027   4.925   9.730 -0.0823  0.6266 -0.6016
  154SAPE   C3617175   0.885   4.995   9.586 -1.1567  0.1335 -0.4092
  154SAPE   H6X17176   0.931   5.093   9.561 -0.8586  0.1654  0.2296
  154SAPE   H6Y17177   0.775   5.006   9.574 -1.4982 -3.2626 -1.2837
  154SAPE   C3717178   0.940   4.919   9.477 -0.1726  0.5070  0.3995
  154SAPE   H7X17179   0.922   4.809   9.479  0.2745  0.4206  0.0246
  154SAPE   H7Y17180   1.050   4.934   9.469 -0.1057 -0.7260 -1.7982
  154SAPE   C3817181   0.878   4.962   9.345  1.0285 -0.0324  1.3282
  154SAPE   H8X17182   0.878   5.072   9.355  3.0997  0.0419  0.9775
  154SAPE   H8Y17183   0.774   4.923   9.337 -0.0209  2.8959 -2.1645
  154SAPE   C3917184   0.946   4.922   9.216 -0.0811  0.0026  0.1946
  154SAPE   H9X17185   0.953   4.811   9.204 -0.4469 -0.0408  0.3722
  154SAPE   H9Y17186   1.043   4.971   9.235  0.2743  0.1005 -1.6850
  154SAPE  C31017187   0.869   4.981   9.094  0.1832  0.3155 -0.4030
  154SAPE  H10X17188   0.866   5.088   9.122 -1.2622  0.2665 -0.2838
  154SAPE  H10Y17189   0.774   4.926   9.080 -0.2802  0.5851  1.4884
  154SAPE  C31117190   0.960   4.971   8.963 -0.0629  0.3314  0.6121
  154SAPE  H11X17191   0.966   4.867   8.923  0.5418  1.3588 -2.1623
  154SAPE  H11Y17192   1.061   5.010   8.987 -0.9914  1.3566  3.2552
  154SAPE  C31217193   0.890   5.028   8.840 -0.0561  0.1956  0.4782
  154SAPE  H12X17194   0.840   5.122   8.872 -0.4673 -0.2324  1.1196
  154SAPE  H12Y17195   0.810   4.966   8.796 -1.1900  1.7172  0.2980
  154SAPE  C31317196   0.973   5.063   8.712 -0.2518 -0.4944 -0.2190
  154SAPE  H13X17197   1.081   5.079   8.735  0.6841  1.6545 -4.8979
  154SAPE  H13Y17198   0.945   5.164   8.677 -1.9658 -1.3991 -1.6456
  154SAPE  C31417199   0.967   4.967   8.596  0.0216 -0.5332  0.5608
  154SAPE  H14X17200   0.859   4.957   8.569 -0.5280 -3.8954  3.3151
  154SAPE  H14Y17201   0.994   4.864   8.629 -1.0069 -1.7199 -1.9474
  154SAPE  C31517202   1.053   4.992   8.471 -0.4706 -0.3546  0.7050
  154SAPE  H15X17203   1.163   4.983   8.483 -0.2499  1.3161  0.0654
  154SAPE  H15Y17204   1.035   5.098   8.443 -2.0557 -1.2100 -1.8697
  154SAPE  C31617205   1.008   4.911   8.345 -0.2876  0.2137  0.7613
  154SAPE  H16X17206   0.902   4.933   8.320 -0.4657 -0.7930  0.5870
  154SAPE  H16Y17207   1.024   4.804   8.370  2.2588  0.0389 -1.2631
  154SAPE  C31717208   1.087   4.939   8.218  0.5458  0.0246 -0.6146
  154SAPE  H17X17209   1.196   4.934   8.239  0.1008  0.3854  2.0766
  154SAPE  H17Y17210   1.058   5.042   8.186  1.2879 -0.0294 -1.4919
  154SAPE  C31817211   1.062   4.843   8.103  0.0103 -0.1123 -0.6494
  154SAPE  H18X17212   0.958   4.817   8.074  0.0279 -1.6289  0.4927
  154SAPE  H18Y17213   1.110   4.745   8.124  1.6520  0.7706 -0.1192
  154SAPE  H18Z17214   1.109   4.872   8.007 -2.1353  1.1503 -1.4036
  155SAPE     N17215   1.140   4.985  10.848 -0.1942  0.2155 -0.6835
  155SAPE   HN117216   1.205   4.915  10.888 -0.1113  0.4964 -0.3172
  155SAPE   HN217217   1.083   4.943  10.772 -0.6562 -1.5246  0.5813
  155SAPE   HN317218   1.202   5.065  10.822  3.2654 -1.0376  2.7565
  155SAPE   C1217219   1.045   5.023  10.964 -0.2526  0.4230 -0.3342
  155SAPE  H12A17220   1.111   5.057  11.047 -0.5819 -1.1733  0.6394
  155SAPE  H12B17221   0.995   4.930  10.999 -0.6874  1.0455  0.7341
  155SAPE   C1117222   0.942   5.134  10.920  0.4107  0.1908 -0.0335
  155SAPE  H11A17223   0.903   5.183  11.012  0.1069  0.3103 -0.2244
  155SAPE  H11B17224   0.865   5.081  10.860  1.0710  0.4167 -1.1125
  155SAPE     P17225   0.986   5.388  10.876  0.3747 -0.4155 -0.1055
  155SAPE   O1317226   0.839   5.431  10.868  0.4476  0.3393 -0.1721
  155SAPE   O1417227   1.050   5.411  11.008 -0.0495  0.5309  0.4101
  155SAPE   O1217228   1.007   5.232  10.845 -0.2368  0.0926  0.7597
  155SAPE   O1117229   1.067   5.454  10.757 -0.4164  0.2586  0.2722
  155SAPE    C117230   1.199   5.412  10.749 -0.1815 -0.9954 -0.1283
  155SAPE    HA17231   1.254   5.450  10.839 -0.9683  0.7720 -0.3545
  155SAPE    HB17232   1.209   5.301  10.744  1.1336 -0.9761  1.2204
  155SAPE    C217233   1.267   5.462  10.618 -0.5679  0.1165  0.1948
  155SAPE    HS17234   1.271   5.572  10.606  2.2486 -0.1961 -3.5317
  155SAPE   O2117235   1.201   5.393  10.501 -0.3100 -0.0340 -0.1948
  155SAPE   C2117236   1.200   5.468  10.401 -0.2810 -0.6931  0.3575
  155SAPE   O2217237   1.239   5.585  10.391 -0.8128 -0.5140  0.4315
  155SAPE   C2217238   1.168   5.377  10.282 -0.0465 -0.2778  0.8985
  155SAPE   H2R17239   1.241   5.294  10.288  0.1193 -0.1075  1.3209
  155SAPE   H2S17240   1.069   5.328  10.290  0.4978 -1.4557  0.5149
  155SAPE    C317241   1.418   5.421  10.616 -0.3319 -0.3153  0.3917
  155SAPE    HX17242   1.422   5.312  10.599  0.0170 -0.1172 -0.8792
  155SAPE    HY17243   1.455   5.444  10.718  2.0926 -1.0843 -0.2723
  155SAPE   O3117244   1.490   5.480  10.506  0.5035 -0.1830 -0.2533
  155SAPE   C3117245   1.556   5.589  10.531  0.0879 -0.4744  0.0814
  155SAPE   O3217246   1.558   5.648  10.638  0.7091 -0.1707 -0.3500
  155SAPE   C3217247   1.630   5.632  10.403  0.0915 -0.1521  0.0301
  155SAPE   H2X17248   1.711   5.558  10.389 -0.0744 -0.2743 -0.2827
  155SAPE   H2Y17249   1.672   5.734  10.412  2.2517 -0.8080 -1.8902
  155SAPE   C2317250   1.167   5.459  10.144  0.3906 -0.7212  0.3825
  155SAPE   H3R17251   1.265   5.511  10.139  0.6645 -1.2451  0.2011
  155SAPE   H3S17252   1.084   5.532  10.137  0.5582 -0.4106  1.4649
  155SAPE   C2417253   1.161   5.361  10.023 -0.4003  0.1718 -0.8995
  155SAPE   H4R17254   1.059   5.319  10.018 -0.3985  0.1388 -0.6798
  155SAPE   H4S17255   1.229   5.279  10.054  0.1078  1.1911  0.8477
  155SAPE   C2517256   1.206   5.423   9.896 -0.1104 -0.6981  0.7791
  155SAPE   H5R17257   1.311   5.457   9.891 -0.6167  0.7902 -0.4797
  155SAPE   C2617258   1.131   5.454   9.788 -0.0883 -0.3748  0.4893
  155SAPE   H6R17259   1.174   5.506   9.701  1.5632 -0.3388  1.2828
  155SAPE   C2717260   0.983   5.431   9.763  0.3255 -0.3638 -0.3197
  155SAPE   H7R17261   0.927   5.525   9.743  0.3660 -0.5434 -1.3553
  155SAPE   H7S17262   0.946   5.383   9.856  0.3629  0.8018  0.3169
  155SAPE   C2817263   0.963   5.357   9.630  0.1883 -0.5349 -0.3192
  155SAPE   H8R17264   1.048   5.295   9.599 -0.4315 -0.9737 -1.1604
  155SAPE   C2917265   0.853   5.376   9.556 -0.1905 -0.1806  0.3577
  155SAPE   H9R17266   0.854   5.345   9.451 -3.6616  1.4281 -0.2856
  155SAPE  C21017267   0.733   5.461   9.588  0.2874 -0.3607 -0.1433
  155SAPE  H10R17268   0.734   5.566   9.553 -1.0050 -0.4009 -0.3450
  155SAPE  H10S17269   0.716   5.473   9.697 -0.4390  1.6053 -0.4312
  155SAPE  C21117270   0.608   5.388   9.540 -0.2645  0.0300  0.4283
  155SAPE  H11R17271   0.548   5.341   9.619  0.2989 -0.7107  0.4202
  155SAPE  C21217272   0.561   5.386   9.411 -0.0218 -0.6548  0.4443
  155SAPE  H12R17273   0.466   5.336   9.388  0.1482 -0.5839 -0.4398
  155SAPE  C21317274   0.625   5.456   9.292 -0.0703 -0.0015 -0.2741
  155SAPE  H13R17275   0.694   5.538   9.321 -1.3543  0.7253  0.8317
  155SAPE  H13S17276   0.545   5.518   9.246 -1.6988 -0.9076  1.1969
  155SAPE  C21417277   0.680   5.361   9.193  1.2961 -0.3498  0.0910
  155SAPE  H14R17278   0.714   5.270   9.244 -0.3911 -1.3176 -0.4292
  155SAPE  C21517279   0.713   5.386   9.067 -0.0769 -0.4272  0.1442
  155SAPE  H15R17280   0.754   5.310   8.999 -0.5330  0.0999 -0.7397
  155SAPE  C21617281   0.696   5.522   8.997  0.1786  0.6213 -0.1699
  155SAPE  H16R17282   0.663   5.604   9.064  2.1609 -0.5629  2.4442
  155SAPE  H16S17283   0.615   5.516   8.922  0.1680  0.4788 -0.1484
  155SAPE  C21717284   0.817   5.536   8.905  0.1158 -0.2564 -0.4324
  155SAPE  H17R17285   0.827   5.451   8.834 -1.1614  1.2026 -2.4707
  155SAPE  H17S17286   0.905   5.530   8.973  0.3883 -0.6204 -0.8135
  155SAPE  C21817287   0.838   5.671   8.839 -0.4425  0.1740  0.1791
  155SAPE  H18R17288   0.944   5.669   8.806 -0.2072  0.1937  0.9238
  155SAPE  H18S17289   0.829   5.746   8.919 -2.0287 -1.1699  1.3334
  155SAPE  C21917290   0.743   5.695   8.728  0.3704 -0.1804  0.1138
  155SAPE  H19R17291   0.778   5.770   8.654 -0.3607  0.2159  0.1688
  155SAPE  H19S17292   0.650   5.738   8.769  1.2862  2.8593 -0.7227
  155SAPE  C22017293   0.703   5.579   8.643  0.6317  0.2492 -1.2331
  155SAPE  H20R17294   0.635   5.608   8.560  0.2750  1.8451 -0.4097
  155SAPE  H20S17295   0.653   5.497   8.699 -0.3989  0.7084 -1.4491
  155SAPE  H20T17296   0.794   5.541   8.593  2.3033 -0.0417  1.8216
  155SAPE   C3317297   1.545   5.634  10.276 -0.2976 -0.7628 -0.6109
  155SAPE   H3X17298   1.481   5.725  10.284  0.7416 -0.0256 -0.4878
  155SAPE   H3Y17299   1.476   5.547  10.272 -1.1646 -0.1284  0.1210
  155SAPE   C3417300   1.630   5.621  10.154  0.1985 -0.5388  0.2811
  155SAPE   H4X17301   1.666   5.516  10.156  0.0051 -0.6269 -0.6634
  155SAPE   H4Y17302   1.719   5.687  10.165 -0.5422  0.3858  0.7981
  155SAPE   C3517303   1.550   5.651  10.021  0.2910  0.4347 -0.4855
  155SAPE   H5X17304   1.490   5.744  10.026 -1.2343 -0.5214 -0.2661
  155SAPE   H5Y17305   1.496   5.556  10.004 -0.3915  0.0044  3.2941
  155SAPE   C3617306   1.636   5.654   9.898  0.2480 -0.1541  0.2209
  155SAPE   H6X17307   1.700   5.565   9.911  1.3380  0.8415  1.9897
  155SAPE   H6Y17308   1.698   5.746   9.902  0.0194  0.0240 -0.2642
  155SAPE   C3717309   1.545   5.665   9.769  0.7140 -0.8039 -0.1863
  155SAPE   H7X17310   1.480   5.755   9.773 -0.0938 -1.4196  2.7170
  155SAPE   H7Y17311   1.473   5.580   9.760  2.5182 -2.3699 -0.4694
  155SAPE   C3817312   1.632   5.665   9.639 -0.0206  0.1125 -0.3940
  155SAPE   H8X17313   1.693   5.573   9.628  1.7818  1.2830 -0.5840
  155SAPE   H8Y17314   1.697   5.755   9.637 -1.5054  1.2092 -0.9415
  155SAPE   C3917315   1.544   5.668   9.516  0.1871 -0.2711  0.4885
  155SAPE   H9X17316   1.468   5.748   9.504 -0.3072 -0.7783  0.1629
  155SAPE   H9Y17317   1.481   5.577   9.518  1.2635 -1.0303  0.7401
  155SAPE  C31017318   1.640   5.701   9.395  0.2859  0.2749  0.2687
  155SAPE  H10X17319   1.736   5.645   9.403  2.4596  3.5250 -0.8506
  155SAPE  H10Y17320   1.657   5.810   9.410  0.8937 -0.1972  4.0763
  155SAPE  C31117321   1.576   5.686   9.256 -0.5565  0.4758  0.4766
  155SAPE  H11X17322   1.565   5.578   9.231 -0.6610  0.5777  0.0789
  155SAPE  H11Y17323   1.653   5.731   9.190  0.0079 -1.4949 -0.2998
  155SAPE  C31217324   1.448   5.759   9.253  0.1333 -0.0414  0.3444
  155SAPE  H12X17325   1.447   5.851   9.315 -2.2638  0.1974  0.0367
  155SAPE  H12Y17326   1.376   5.682   9.289 -0.1668 -0.2449 -0.6331
  155SAPE  C31317327   1.424   5.813   9.111 -0.2258  0.4072 -0.0975
  155SAPE  H13X17328   1.406   5.722   9.050 -1.8120  1.0326 -0.6070
  155SAPE  H13Y17329   1.508   5.870   9.066  1.2688 -0.2533  1.7290
  155SAPE  C31417330   1.288   5.886   9.081 -0.0430  0.1121 -0.0438
  155SAPE  H14X17331   1.273   5.979   9.139 -0.9216 -0.1176  0.1132
  155SAPE  H14Y17332   1.213   5.813   9.118  0.1144 -0.2289 -0.3889
  155SAPE  C31517333   1.278   5.899   8.929 -0.0464 -0.0202  0.1399
  155SAPE  H15X17334   1.306   5.799   8.890 -1.2075  0.0880 -1.0106
  155SAPE  H15Y17335   1.363   5.962   8.893  2.6180 -1.9482  2.5075
  155SAPE  C31617336   1.145   5.933   8.864  0.2036  0.2051  0.2717
  155SAPE  H16X17337   1.120   6.041   8.868 -0.7725 -0.0427  1.6569
  155SAPE  H16Y17338   1.064   5.884   8.922 -1.6282 -0.1967 -2.4239
  155SAPE  C31717339   1.133   5.894   8.717 -0.2701 -0.4896 -0.9134
  155SAPE  H17X17340   1.110   5.785   8.718  2.2657 -1.1170 -1.8155
  155SAPE  H17Y17341   1.229   5.911   8.663  0.5678  0.2984  0.7554
  155SAPE  C31817342   1.021   5.961   8.644 -0.2184 -0.5354  0.3203
  155SAPE  H18X17343   1.024   6.070   8.624 -0.9754 -0.2100  1.7807
  155SAPE  H18Y17344   0.924   5.952   8.699 -1.2725  0.4979 -1.3021
  155SAPE  H18Z17345   1.018   5.913   8.544 -0.7346  1.1571 -0.5052
  156SAPE     N17346   5.026   3.199  10.525  0.0103 -0.1950 -0.2542
  156SAPE   HN117347   5.035   3.173  10.626  0.5469 -1.4325 -0.6014
  156SAPE   HN217348   5.036   3.302  10.515  0.6307 -0.2959 -0.7148
  156SAPE   HN317349   4.934   3.163  10.493 -1.3068  1.5172  1.3648
  156SAPE   C1217350   5.139   3.162  10.429 -0.3135  1.1932  0.4445
  156SAPE  H12A17351   5.102   3.173  10.325 -2.2850 -0.0655  0.9631
  156SAPE  H12B17352   5.171   3.057  10.450  0.6714  1.4867  0.4413
  156SAPE   C1117353   5.255   3.249  10.467  0.0042 -0.3278 -0.3748
  156SAPE  H11A17354   5.342   3.221  10.405  0.3190 -1.2643  0.4496
  156SAPE  H11B17355   5.283   3.229  10.573  1.3920  0.6462 -0.5442
  156SAPE     P17356   5.304   3.504  10.509 -0.0802 -0.1461 -0.1085
  156SAPE   O1317357   5.244   3.640  10.488  0.1733  0.4077 -0.4838
  156SAPE   O1417358   5.335   3.471  10.650  0.2576 -0.3557 -0.2248
  156SAPE   O1217359   5.217   3.386  10.444  0.2658  0.3925 -0.4683
  156SAPE   O1117360   5.441   3.512  10.423 -0.1212  0.2854  0.2110
  156SAPE    C117361   5.436   3.493  10.285 -0.2362  0.9168 -0.2330
  156SAPE    HA17362   5.538   3.464  10.253  0.5039  0.1060  2.5658
  156SAPE    HB17363   5.363   3.415  10.253  0.1573 -0.3523  1.8025
  156SAPE    C217364   5.412   3.632  10.213  0.2094 -0.0869  0.3149
  156SAPE    HS17365   5.313   3.665  10.253 -0.9207 -1.2573 -1.3857
  156SAPE   O2117366   5.418   3.619  10.068 -0.1772 -0.0462  0.3019
  156SAPE   C2117367   5.390   3.725  10.004 -0.4157  0.6348 -0.1165
  156SAPE   O2217368   5.343   3.829  10.050  0.3109  0.0847 -0.2606
  156SAPE   C2217369   5.414   3.703   9.853  0.3303  0.0161  0.6933
  156SAPE   H2R17370   5.498   3.769   9.824  1.1562 -1.7801 -1.2264
  156SAPE   H2S17371   5.437   3.597   9.831 -0.2520  0.3641 -1.8851
  156SAPE    C317372   5.522   3.731  10.263  0.0207  0.8131  0.0283
  156SAPE    HX17373   5.494   3.768  10.364  1.8282  0.5671  0.6451
  156SAPE    HY17374   5.527   3.822  10.199 -1.2282 -0.2286 -1.6278
  156SAPE   O3117375   5.651   3.678  10.277  0.2845  0.3124 -0.0728
  156SAPE   C3117376   5.718   3.660  10.158  0.4712  0.8231 -0.9273
  156SAPE   O3217377   5.696   3.714  10.054  0.4211 -0.4155  0.3584
  156SAPE   C3217378   5.836   3.569  10.197  0.1175 -0.2200  0.4181
  156SAPE   H2X17379   5.809   3.482  10.260 -0.7575 -0.4583 -0.2511
  156SAPE   H2Y17380   5.910   3.638  10.244  0.1201  1.0969 -1.3720
  156SAPE   C2317381   5.283   3.746   9.784  0.2660 -0.3594 -0.3100
  156SAPE   H3R17382   5.273   3.857   9.786  3.2896  0.0110 -1.1249
  156SAPE   H3S17383   5.196   3.712   9.844  1.4552  0.4586  2.0124
  156SAPE   C2417384   5.288   3.688   9.643  0.4442 -0.6736 -0.0958
  156SAPE   H4R17385   5.299   3.580   9.663  2.3954 -0.4004  0.4987
  156SAPE   H4S17386   5.381   3.709   9.585  0.0504  2.9491  0.3371
  156SAPE   C2517387   5.156   3.707   9.568 -0.7926  0.0442  0.4027
  156SAPE   H5R17388   5.066   3.714   9.629 -0.5492  0.7947  0.6810
  156SAPE   C2617389   5.142   3.687   9.428  0.3771 -0.9852 -0.2207
  156SAPE   H6R17390   5.038   3.697   9.393  0.4439 -3.5125 -1.3864
  156SAPE   C2717391   5.238   3.662   9.315  0.6696 -0.0621  0.0230
  156SAPE   H7R17392   5.201   3.586   9.243  2.1643 -2.5886  1.7616
  156SAPE   H7S17393   5.327   3.612   9.357  0.5941  0.0074  0.2689
  156SAPE   C2817394   5.291   3.788   9.251 -0.0002 -0.1493 -0.0608
  156SAPE   H8R17395   5.350   3.860   9.310  0.7199  0.5242 -1.5555
  156SAPE   C2917396   5.296   3.819   9.119 -0.0007 -0.1006 -0.1922
  156SAPE   H9R17397   5.344   3.912   9.086 -2.1564  0.3580 -2.2979
  156SAPE  C21017398   5.238   3.738   9.007  0.1236 -0.2502  0.7747
  156SAPE  H10R17399   5.128   3.736   9.016  0.0538 -1.7828 -0.0647
  156SAPE  H10S17400   5.263   3.630   9.019 -0.2521 -0.4845 -0.4183
  156SAPE  C21117401   5.268   3.779   8.864 -0.1220  0.6279 -0.7139
  156SAPE  H11R17402   5.199   3.860   8.835  0.0165  0.7336 -0.7505
  156SAPE  C21217403   5.360   3.723   8.782  0.2699  0.3497 -0.6359
  156SAPE  H12R17404   5.387   3.775   8.689 -1.2975  1.0626 -0.7278
  156SAPE  C21317405   5.457   3.608   8.821  0.7626 -0.1970 -0.6648
  156SAPE  H13R17406   5.428   3.546   8.909 -1.4187 -0.3173 -1.4108
  156SAPE  H13S17407   5.551   3.650   8.862 -0.6684 -0.4148  3.2967
  156SAPE  C21417408   5.485   3.516   8.706 -0.7592  0.2383 -0.1219
  156SAPE  H14R17409   5.574   3.537   8.644 -1.0748  1.9917 -0.0346
  156SAPE  C21517410   5.400   3.414   8.678  0.0641  0.1722  0.2881
  156SAPE  H15R17411   5.411   3.344   8.593 -0.7790 -2.2042  2.0265
  156SAPE  C21617412   5.275   3.371   8.760  0.1095 -0.2050  0.1416
  156SAPE  H16R17413   5.247   3.457   8.824 -0.1968 -0.4969  0.4003
  156SAPE  H16S17414   5.295   3.297   8.841 -2.1694  1.1585  2.0749
  156SAPE  C21717415   5.161   3.345   8.658  0.0778 -0.3009 -0.2223
  156SAPE  H17R17416   5.195   3.265   8.588  1.8792 -0.7863  1.1282
  156SAPE  H17S17417   5.148   3.436   8.596 -1.4549  0.7225  1.5147
  156SAPE  C21817418   5.030   3.319   8.730 -0.5830 -0.5267 -0.2214
  156SAPE  H18R17419   5.020   3.399   8.807 -1.8978 -0.9309  0.0584
  156SAPE  H18S17420   5.022   3.225   8.789 -1.6481 -0.5598 -0.3826
  156SAPE  C21917421   4.906   3.316   8.645  0.0562 -0.4055  0.0991
  156SAPE  H19R17422   4.925   3.264   8.548 -0.7669 -2.0839  0.7884
  156SAPE  H19S17423   4.863   3.413   8.613  0.4827 -0.6736 -1.4062
  156SAPE  C22017424   4.788   3.241   8.721 -0.0671 -0.3102 -0.7255
  156SAPE  H20R17425   4.700   3.220   8.657  0.7778  0.1713 -2.0778
  156SAPE  H20S17426   4.763   3.272   8.825  0.7510 -3.1457  0.4247
  156SAPE  H20T17427   4.835   3.142   8.742 -0.2800 -0.2265  0.2067
  156SAPE   C3317428   5.896   3.499  10.070 -0.6833  0.6298 -0.3594
  156SAPE   H3X17429   5.939   3.578  10.005 -2.1824  0.2940 -1.8129
  156SAPE   H3Y17430   5.818   3.450  10.008 -0.0472  0.3234 -0.9321
  156SAPE   C3417431   5.996   3.392  10.105  0.5984 -0.1522 -0.4479
  156SAPE   H4X17432   5.967   3.322  10.186 -3.7974  1.3090 -0.4889
  156SAPE   H4Y17433   6.085   3.438  10.152  1.2366 -1.9255  0.1316
  156SAPE   C3517434   6.026   3.304   9.986  0.2720 -0.3750  0.7050
  156SAPE   H5X17435   5.939   3.244   9.951  1.4921 -1.2880 -0.9114
  156SAPE   H5Y17436   6.104   3.226   9.999  0.7654 -0.5890 -2.5411
  156SAPE   C3617437   6.075   3.387   9.863 -0.3715  0.6809 -0.0798
  156SAPE   H6X17438   6.151   3.464   9.889  0.0722 -0.0253  0.7468
  156SAPE   H6Y17439   5.988   3.446   9.826 -1.4526 -0.1077  1.1289
  156SAPE   C3717440   6.120   3.301   9.746  0.1178 -0.7194  0.1536
  156SAPE   H7X17441   6.063   3.205   9.749 -0.7224 -0.3042 -1.5411
  156SAPE   H7Y17442   6.230   3.287   9.738 -0.1521 -2.5790 -0.9972
  156SAPE   C3817443   6.083   3.364   9.605 -0.3284  0.3116 -0.0569
  156SAPE   H8X17444   6.145   3.454   9.587 -0.7574 -0.0141 -4.1370
  156SAPE   H8Y17445   5.977   3.398   9.606 -0.1251  0.9586 -0.2699
  156SAPE   C3917446   6.108   3.270   9.485 -0.1479  0.0001 -0.1598
  156SAPE   H9X17447   6.049   3.177   9.493  0.3800 -0.2995  0.4269
  156SAPE   H9Y17448   6.218   3.252   9.476  0.1209  0.5500  1.5259
  156SAPE  C31017449   6.076   3.345   9.359  0.4422 -0.0536  0.3592
  156SAPE  H10X17450   6.127   3.444   9.363  1.7186 -0.6799 -0.0468
  156SAPE  H10Y17451   5.966   3.361   9.368  0.3991 -0.1261 -0.0322
  156SAPE  C31117452   6.107   3.274   9.231  0.2926 -0.6287  0.0488
  156SAPE  H11X17453   6.054   3.177   9.229  0.0203 -0.5332  1.3960
  156SAPE  H11Y17454   6.216   3.254   9.219  0.2487 -1.4574  0.9004
  156SAPE  C31217455   6.065   3.367   9.116  0.2746  0.2325  0.7346
  156SAPE  H12X17456   6.097   3.469   9.147  1.2344  0.5716 -1.2309
  156SAPE  H12Y17457   5.959   3.361   9.082  1.0798  1.1767 -2.1699
  156SAPE  C31317458   6.152   3.344   8.984  0.0818 -0.2558 -0.4776
  156SAPE  H13X17459   6.256   3.368   9.015  0.1256  0.8799 -1.3887
  156SAPE  H13Y17460   6.116   3.418   8.909 -2.3353 -0.2804  0.5797
  156SAPE  C31417461   6.142   3.196   8.928  0.6336 -0.1707  0.0598
  156SAPE  H14X17462   6.034   3.168   8.925 -0.1349  2.3787  1.1691
  156SAPE  H14Y17463   6.199   3.140   9.005 -0.6867 -0.6255  0.7349
  156SAPE  C31517464   6.216   3.172   8.794 -0.4727 -0.0783  0.2604
  156SAPE  H15X17465   6.327   3.172   8.799 -0.3266 -0.2081 -2.0044
  156SAPE  H15Y17466   6.184   3.257   8.729 -0.3921 -0.3811 -0.1718
  156SAPE  C31617467   6.178   3.042   8.735 -0.8755  0.3987  0.6154
  156SAPE  H16X17468   6.069   3.029   8.723 -0.7528  0.6080 -1.0535
  156SAPE  H16Y17469   6.206   2.969   8.814  1.4612  0.4346 -0.0938
  156SAPE  C31717470   6.251   3.011   8.601  0.2376  0.2164 -0.2807
  156SAPE  H17X17471   6.220   2.909   8.569  1.9372 -0.7871  1.0847
  156SAPE  H17Y17472   6.360   2.997   8.616  0.3092  0.1099 -0.8767
  156SAPE  C31817473   6.232   3.118   8.486 -0.2801  0.1874 -0.3553
  156SAPE  H18X17474   6.270   3.221   8.502 -2.2804  0.7601  1.0938
  156SAPE  H18Y17475   6.123   3.132   8.474  0.0745  2.8026 -1.1373
  156SAPE  H18Z17476   6.280   3.066   8.400 -0.2715 -0.5132  0.0708
  157SAPE     N17477   4.124   3.251  11.117  0.5603 -0.1723 -0.1365
  157SAPE   HN117478   4.214   3.237  11.068 -1.0565 -0.1222 -3.3703
  157SAPE   HN217479   4.099   3.351  11.099 -1.0294 -0.8095 -1.7193
  157SAPE   HN317480   4.141   3.253  11.220  1.8863 -0.9334 -0.3195
  157SAPE   C1217481   4.012   3.155  11.077 -0.0077 -0.5841  0.1973
  157SAPE  H12A17482   3.960   3.104  11.162  0.7218 -1.8957 -0.1088
  157SAPE  H12B17483   4.053   3.072  11.016  0.2798  0.5571 -1.2070
  157SAPE   C1117484   3.912   3.223  10.989 -0.7088  0.2665  0.5072
  157SAPE  H11A17485   3.857   3.292  11.056 -1.8145 -0.8285  0.7537
  157SAPE  H11B17486   3.848   3.145  10.942  0.4403  0.4809 -1.5348
  157SAPE     P17487   3.930   3.401  10.799 -0.1628 -0.0208  0.0346
  157SAPE   O1317488   3.874   3.501  10.890  0.2871  0.6276 -0.2154
  157SAPE   O1417489   4.038   3.442  10.707 -0.0302 -0.4103  0.4622
  157SAPE   O1217490   3.988   3.281  10.884  0.1059  0.6597  0.4216
  157SAPE   O1117491   3.810   3.345  10.715 -0.5369  0.3051  0.3844
  157SAPE    C117492   3.819   3.221  10.638 -0.3633 -0.1070 -0.4109
  157SAPE    HA17493   3.889   3.144  10.679 -2.7168 -1.7154  0.8150
  157SAPE    HB17494   3.725   3.166  10.659 -0.5517 -0.0608 -1.1034
  157SAPE    C217495   3.820   3.240  10.483  0.2896  0.2352  0.3751
  157SAPE    HS17496   3.908   3.300  10.453  1.5911 -1.8806 -0.3167
  157SAPE   O2117497   3.698   3.315  10.463 -0.3237 -0.3231  0.2612
  157SAPE   C2117498   3.699   3.391  10.362 -0.2313 -0.1183  0.3962
  157SAPE   O2217499   3.799   3.419  10.295 -0.2492 -0.3782 -0.3437
  157SAPE   C2217500   3.562   3.457  10.344  0.1960  0.1081 -0.6562
  157SAPE   H2R17501   3.488   3.376  10.328  0.6967 -0.8778  1.7052
  157SAPE   H2S17502   3.543   3.516  10.436 -0.1728 -0.6963 -0.2101
  157SAPE    C317503   3.812   3.096  10.415  0.0572 -0.3209  0.6213
  157SAPE    HX17504   3.713   3.059  10.449  0.5580 -2.4096 -0.0852
  157SAPE    HY17505   3.883   3.019  10.452 -0.8394 -0.8343  1.3094
  157SAPE   O3117506   3.813   3.096  10.266 -0.4981 -0.0184 -0.5032
  157SAPE   C3117507   3.928   3.092  10.209 -0.8437  0.0883  0.3522
  157SAPE   O3217508   4.034   3.114  10.266  0.0910 -0.7499 -0.4500
  157SAPE   C3217509   3.912   3.048  10.066 -0.5545  0.7799 -0.0548
  157SAPE   H2X17510   3.808   3.066  10.031 -0.7242 -0.2036 -0.0830
  157SAPE   H2Y17511   3.922   2.938  10.076  3.7880  1.1504  2.1014
  157SAPE   C2317512   3.536   3.545  10.222 -0.8655 -0.0045  0.4263
  157SAPE   H3R17513   3.587   3.500  10.135  0.4132  2.7448 -0.3310
  157SAPE   H3S17514   3.567   3.650  10.237 -0.4967 -0.3111  1.9759
  157SAPE   C2417515   3.388   3.564  10.184  1.1284  0.2136  0.1174
  157SAPE   H4R17516   3.344   3.462  10.181 -3.1552  1.7743 -4.2865
  157SAPE   H4S17517   3.380   3.603  10.080  0.1779 -1.5786 -0.5414
  157SAPE   C2517518   3.304   3.640  10.286 -0.4210 -0.3164  0.4544
  157SAPE   H5R17519   3.307   3.600  10.389  0.6693 -1.2860  0.0722
  157SAPE   C2617520   3.247   3.759  10.266 -0.2210 -0.1563 -0.0225
  157SAPE   H6R17521   3.206   3.811  10.354  1.0918 -1.2924  1.3072
  157SAPE   C2717522   3.266   3.842  10.139 -0.5552  0.3206  0.0192
  157SAPE   H7R17523   3.222   3.786  10.053 -1.0234  0.9797 -0.1796
  157SAPE   H7S17524   3.376   3.855  10.128 -0.3890 -1.1976 -0.4140
  157SAPE   C2817525   3.209   3.980  10.163  0.8943 -0.8332  0.3281
  157SAPE   H8R17526   3.249   4.040  10.247  0.9292  1.9170 -1.5273
  157SAPE   C2917527   3.143   4.048  10.068 -0.2988 -0.2914 -0.0077
  157SAPE   H9R17528   3.114   4.152  10.087 -0.9952 -0.4330 -0.2497
  157SAPE  C21017529   3.122   3.987   9.931  0.4918  0.1051  1.0798
  157SAPE  H10R17530   3.052   4.056   9.879 -1.4911 -1.6297  1.2843
  157SAPE  H10S17531   3.069   3.890   9.941  0.7376 -0.0370  0.9941
  157SAPE  C21117532   3.245   3.968   9.849 -0.2385 -0.4309 -0.0826
  157SAPE  H11R17533   3.334   4.026   9.878 -0.1087 -0.3678 -0.5880
  157SAPE  C21217534   3.256   3.883   9.744  0.3702 -0.1700  0.0675
  157SAPE  H12R17535   3.347   3.883   9.682 -0.3952 -1.0122 -1.1076
  157SAPE  C21317536   3.148   3.786   9.695  0.3405 -0.8175  0.7124
  157SAPE  H13R17537   3.127   3.713   9.777  1.9330 -0.6612  1.3023
  157SAPE  H13S17538   3.188   3.728   9.609 -0.8891 -0.8187  0.1238
  157SAPE  C21417539   3.032   3.865   9.651  0.1226 -0.1650 -0.3490
  157SAPE  H14R17540   2.967   3.910   9.727 -1.3160 -1.1780 -0.9355
  157SAPE  C21517541   3.002   3.893   9.522  0.1422 -0.0137 -0.2146
  157SAPE  H15R17542   2.915   3.958   9.504 -0.5103 -0.6945  0.3999
  157SAPE  C21617543   3.075   3.840   9.404 -0.1049  0.0432  0.6517
  157SAPE  H16R17544   3.147   3.758   9.424 -0.4684  0.1231  2.4045
  157SAPE  H16S17545   3.127   3.922   9.349 -0.3388 -0.7376 -0.7965
  157SAPE  C21717546   2.967   3.782   9.311  0.4008  0.2327 -0.7464
  157SAPE  H17R17547   2.887   3.857   9.291  1.0881  1.1814  0.0012
  157SAPE  H17S17548   2.915   3.693   9.351  1.1499  0.4317  0.7135
  157SAPE  C21817549   3.036   3.740   9.178  0.3782  0.1964 -0.3814
  157SAPE  H18R17550   3.101   3.656   9.213  0.3011  1.6640  3.8766
  157SAPE  H18S17551   3.109   3.813   9.136 -0.6501  0.9190 -0.9503
  157SAPE  C21917552   2.941   3.694   9.063 -0.2182  0.2435  0.1416
  157SAPE  H19R17553   2.880   3.775   9.018 -0.8078  0.2484  0.9247
  157SAPE  H19S17554   2.880   3.617   9.114  1.1635 -2.1969 -1.6508
  157SAPE  C22017555   3.003   3.622   8.944  0.0851 -0.4379 -0.4141
  157SAPE  H20R17556   3.077   3.685   8.890  1.6161 -0.6145  1.3680
  157SAPE  H20S17557   2.920   3.573   8.888  0.8399  0.8378 -2.7720
  157SAPE  H20T17558   3.066   3.537   8.979  0.1807 -0.1315  0.1565
  157SAPE   C3317559   4.013   3.114   9.958  0.4943  0.9085 -0.5355
  157SAPE   H3X17560   4.111   3.063   9.972  0.1142  0.6910  1.8740
  157SAPE   H3Y17561   4.023   3.223   9.973  1.1519  0.6280  1.3186
  157SAPE   C3417562   3.968   3.077   9.813  0.2995 -0.3391 -0.5237
  157SAPE   H4X17563   3.868   3.125   9.808  0.9367  0.9389 -1.9344
  157SAPE   H4Y17564   3.954   2.968   9.795  0.0971 -0.7665  1.8353
  157SAPE   C3517565   4.069   3.145   9.723 -0.4752 -0.0822 -0.0395
  157SAPE   H5X17566   4.157   3.078   9.734 -0.7884 -0.0750  3.8499
  157SAPE   H5Y17567   4.106   3.240   9.768 -4.2461  1.2932  0.5063
  157SAPE   C3617568   4.019   3.162   9.585 -0.6762 -0.2657  0.6380
  157SAPE   H6X17569   3.916   3.202   9.596  0.4313  2.1211  4.4110
  157SAPE   H6Y17570   4.008   3.061   9.542 -1.1061 -1.1730  2.7290
  157SAPE   C3717571   4.100   3.254   9.495  0.1927 -0.3739 -0.6945
  157SAPE   H7X17572   4.208   3.234   9.511  0.9002  1.4450 -2.6773
  157SAPE   H7Y17573   4.080   3.356   9.533 -0.1291 -1.4904  2.4396
  157SAPE   C3817574   4.087   3.251   9.343 -0.2198 -0.2748 -0.2359
  157SAPE   H8X17575   4.125   3.151   9.312  0.6548  0.1473 -0.5456
  157SAPE   H8Y17576   4.158   3.328   9.307  1.5352 -1.7131 -0.0294
  157SAPE   C3917577   3.943   3.278   9.288 -0.4312  0.1503 -0.2057
  157SAPE   H9X17578   3.911   3.373   9.335 -0.6419  0.1190 -0.2840
  157SAPE   H9Y17579   3.887   3.190   9.326 -2.3660  2.0636  1.7084
  157SAPE  C31017580   3.936   3.283   9.134 -0.2575 -0.8679 -0.2309
  157SAPE  H10X17581   3.833   3.264   9.098 -0.5051  0.5898 -0.3422
  157SAPE  H10Y17582   3.996   3.200   9.090  0.2511  0.0687 -1.3760
  157SAPE  C31117583   3.966   3.420   9.073 -0.1954  0.0936 -0.3259
  157SAPE  H11X17584   4.076   3.431   9.060  0.0947 -1.2444  0.8110
  157SAPE  H11Y17585   3.919   3.494   9.142  0.6453  0.5802 -0.2554
  157SAPE  C31217586   3.894   3.445   8.938 -0.4611 -0.5280 -0.0868
  157SAPE  H12X17587   3.883   3.554   8.924 -2.3868 -0.6805  0.0875
  157SAPE  H12Y17588   3.790   3.408   8.946 -0.7763  0.8028  3.9605
  157SAPE  C31317589   3.969   3.396   8.819  0.1548  0.3670  0.2168
  157SAPE  H13X17590   3.991   3.290   8.842  0.7822  0.0858 -1.5381
  157SAPE  H13Y17591   4.065   3.452   8.818  0.5946 -0.3904  0.0618
  157SAPE  C31417592   3.886   3.418   8.692  0.0528 -1.0193  1.0975
  157SAPE  H14X17593   3.881   3.527   8.671 -0.5741 -1.2954 -0.2283
  157SAPE  H14Y17594   3.783   3.386   8.716  1.1207 -4.2582  1.8988
  157SAPE  C31517595   3.943   3.342   8.571  0.8764 -0.0469  0.2313
  157SAPE  H15X17596   3.955   3.232   8.585  0.9828 -0.4018 -2.1793
  157SAPE  H15Y17597   4.041   3.388   8.546  0.8390 -0.7326 -1.2854
  157SAPE  C31617598   3.841   3.361   8.457 -0.0421 -0.1922  0.5660
  157SAPE  H16X17599   3.829   3.471   8.446 -0.2323  0.1089  3.1253
  157SAPE  H16Y17600   3.738   3.327   8.481  0.0181 -0.5321  0.3462
  157SAPE  C31717601   3.883   3.297   8.326  0.4171  0.3569 -0.1159
  157SAPE  H17X17602   3.803   3.324   8.255  2.1597 -0.1080 -2.3629
  157SAPE  H17Y17603   3.878   3.187   8.335 -0.7994  0.4271  0.2830
  157SAPE  C31817604   4.004   3.344   8.262 -0.7118  0.0734 -0.3590
  157SAPE  H18X17605   4.093   3.332   8.328 -0.0542 -0.7613 -1.3649
  157SAPE  H18Y17606   4.015   3.447   8.221  3.2311  0.8362  2.0026
  157SAPE  H18Z17607   4.033   3.287   8.171  0.5206  1.3355 -0.8056
  158SAPE     N17608   5.524   4.463  10.928 -0.3573  0.1409  0.7230
  158SAPE   HN117609   5.502   4.386  10.862  1.2964 -0.4230  0.7754
  158SAPE   HN217610   5.566   4.529  10.859 -0.0811 -2.1494 -1.4202
  158SAPE   HN317611   5.601   4.450  10.997 -1.7024 -0.1858  2.2119
  158SAPE   C1217612   5.401   4.523  10.979 -0.2337  0.1253 -0.5868
  158SAPE  H12A17613   5.435   4.604  11.048 -2.0052  1.6431 -1.4061
  158SAPE  H12B17614   5.346   4.441  11.030 -0.4945  0.7722  0.2134
  158SAPE   C1117615   5.316   4.574  10.863  0.0682 -0.0420  0.3354
  158SAPE  H11A17616   5.217   4.610  10.899  0.1406  4.3704 -2.9544
  158SAPE  H11B17617   5.307   4.485  10.796  2.6238 -0.5951  0.6032
  158SAPE     P17618   5.317   4.768  10.686  0.0159  0.2039 -0.1855
  158SAPE   O1317619   5.193   4.825  10.736 -0.7561  0.0230  0.3968
  158SAPE   O1417620   5.413   4.867  10.629  0.0948  0.7146 -0.2055
  158SAPE   O1217621   5.385   4.686  10.798 -0.1401  0.2608 -0.3321
  158SAPE   O1117622   5.286   4.655  10.580  0.2281 -0.0703  0.4362
  158SAPE    C117623   5.387   4.571  10.527 -0.3553  0.1128  0.3297
  158SAPE    HA17624   5.482   4.628  10.523 -1.1853  1.7919  2.4067
  158SAPE    HB17625   5.395   4.484  10.595  0.6932  0.9760  1.3408
  158SAPE    C217626   5.347   4.529  10.387 -0.5724  0.8612  0.4687
  158SAPE    HS17627   5.411   4.443  10.358  1.0034  2.1182  0.1254
  158SAPE   O2117628   5.363   4.646  10.298  0.3401  0.3404 -0.1733
  158SAPE   C2117629   5.441   4.611  10.185  0.3674 -0.2806  0.2928
  158SAPE   O2217630   5.510   4.512  10.185 -0.8566 -0.5216 -0.0635
  158SAPE   C2217631   5.440   4.721  10.090 -0.0714  0.2633  0.0384
  158SAPE   H2R17632   5.397   4.812  10.138  0.4718 -0.1387  1.3287
  158SAPE   H2S17633   5.546   4.749  10.073  0.2127 -0.7008  0.1624
  158SAPE    C317634   5.201   4.473  10.394  0.1086  0.4382  0.2319
  158SAPE    HX17635   5.139   4.561  10.422 -0.0798  0.6866 -0.8868
  158SAPE    HY17636   5.183   4.378  10.448  1.3365  0.2283  0.2996
  158SAPE   O3117637   5.162   4.452  10.263  0.4353 -0.1762  0.2165
  158SAPE   C3117638   5.026   4.448  10.236  0.5142  0.1031  0.4060
  158SAPE   O3217639   4.938   4.437  10.322  0.3457  0.0841  0.0242
  158SAPE   C3217640   5.001   4.462  10.085  0.1511  0.4251  1.0822
  158SAPE   H2X17641   5.027   4.561  10.042 -0.3274 -0.4696 -1.3945
  158SAPE   H2Y17642   4.892   4.442  10.072  0.2928 -0.0249  0.5943
  158SAPE   C2317643   5.368   4.688   9.963 -0.0188 -0.1421  0.3593
  158SAPE   H3R17644   5.345   4.785   9.914 -1.3665 -0.0593  1.0965
  158SAPE   H3S17645   5.267   4.644   9.980  0.3266 -1.5036 -0.9284
  158SAPE   C2417646   5.458   4.605   9.867 -0.4541  0.7095  0.4889
  158SAPE   H4R17647   5.470   4.509   9.922  2.4201  0.2253 -0.8193
  158SAPE   H4S17648   5.559   4.648   9.854  0.3100 -1.1238 -0.0735
  158SAPE   C2517649   5.386   4.578   9.739  0.0674 -0.3716  0.3876
  158SAPE   H5R17650   5.276   4.589   9.742  0.1086  0.0567  0.2883
  158SAPE   C2617651   5.440   4.536   9.623 -0.0861 -0.1100  0.2668
  158SAPE   H6R17652   5.368   4.520   9.542 -0.6600  2.4111  0.1956
  158SAPE   C2717653   5.588   4.506   9.596  0.0856  0.1113  0.1096
  158SAPE   H7R17654   5.618   4.400   9.582 -2.2759 -0.9149  2.0290
  158SAPE   H7S17655   5.648   4.540   9.683  1.4745 -0.0266 -0.7587
  158SAPE   C2817656   5.624   4.590   9.478 -0.6136  0.2045 -0.3828
  158SAPE   H8R17657   5.665   4.689   9.500 -0.7283 -0.2716  2.3005
  158SAPE   C2917658   5.607   4.562   9.343  0.5156 -0.2244 -0.4606
  158SAPE   H9R17659   5.638   4.637   9.269  1.8370 -1.7214 -1.5182
  158SAPE  C21017660   5.535   4.446   9.276  0.1362  0.4085  0.2356
  158SAPE  H10R17661   5.519   4.364   9.349 -0.0671  0.6962  0.5223
  158SAPE  H10S17662   5.605   4.390   9.212 -1.1428 -2.9244  1.5340
  158SAPE  C21117663   5.408   4.482   9.204 -0.0750  0.9340  0.1898
  158SAPE  H11R17664   5.322   4.494   9.272  1.3231  0.1753  2.1899
  158SAPE  C21217665   5.398   4.513   9.075  0.8270 -0.0986  0.4464
  158SAPE  H12R17666   5.305   4.556   9.036 -0.3260 -1.8450  1.1268
  158SAPE  C21317667   5.512   4.520   8.972 -0.1239  0.2731  0.2764
  158SAPE  H13R17668   5.575   4.429   8.983  1.3183  1.2566  0.5439
  158SAPE  H13S17669   5.575   4.607   9.002 -0.2474 -0.7778  4.0873
  158SAPE  C21417670   5.467   4.534   8.829  0.1760  0.9277  0.2703
  158SAPE  H14R17671   5.357   4.537   8.815  0.0575 -2.2148 -0.0282
  158SAPE  C21517672   5.555   4.536   8.726  0.6590  0.5788  0.1920
  158SAPE  H15R17673   5.509   4.551   8.627  0.4366  1.1640  0.3768
  158SAPE  C21617674   5.704   4.516   8.744  0.1010  0.0507  0.3326
  158SAPE  H16R17675   5.743   4.444   8.669 -2.2188  0.0554 -0.9492
  158SAPE  H16S17676   5.727   4.466   8.841 -0.5230  0.1045  0.5122
  158SAPE  C21717677   5.787   4.645   8.735 -0.1557  0.0889 -0.3189
  158SAPE  H17R17678   5.887   4.626   8.780  0.4183  0.8470 -1.2302
  158SAPE  H17S17679   5.742   4.713   8.811 -0.7199  0.8038 -1.2656
  158SAPE  C21817680   5.785   4.709   8.599 -0.2032 -0.5012 -0.5112
  158SAPE  H18R17681   5.678   4.732   8.586 -0.5923  0.0829  2.9125
  158SAPE  H18S17682   5.836   4.647   8.521  4.0482  2.0906 -0.1097
  158SAPE  C21917683   5.867   4.842   8.580  0.1540 -0.6149  0.0232
  158SAPE  H19R17684   5.861   4.873   8.474 -2.5345 -1.6818 -0.2237
  158SAPE  H19S17685   5.973   4.822   8.605  0.4271  1.9025  1.2675
  158SAPE  C22017686   5.830   4.958   8.675 -0.2346  0.5036  0.5879
  158SAPE  H20R17687   5.878   5.054   8.645 -0.7859  0.9332  1.0491
  158SAPE  H20S17688   5.851   4.938   8.782 -1.2257  0.1345  0.7205
  158SAPE  H20T17689   5.720   4.973   8.673 -0.4783 -1.0821  1.2009
  158SAPE   C3317690   5.075   4.351  10.007  0.2881 -0.3728  0.3075
  158SAPE   H3X17691   5.047   4.253  10.051 -0.6608 -0.9431 -1.4588
  158SAPE   H3Y17692   5.184   4.368  10.015  0.1914  2.0352 -2.0064
  158SAPE   C3417693   5.035   4.343   9.859  0.0003 -0.0684 -0.3696
  158SAPE   H4X17694   5.092   4.423   9.808  0.0069  2.1393  2.8357
  158SAPE   H4Y17695   4.927   4.352   9.839  0.3703  1.7159 -1.8261
  158SAPE   C3517696   5.088   4.212   9.793 -0.5651 -0.5691  0.0636
  158SAPE   H5X17697   5.049   4.121   9.843  0.3589 -0.4887  0.9712
  158SAPE   H5Y17698   5.197   4.214   9.814 -0.3598 -1.2604 -0.8596
  158SAPE   C3617699   5.063   4.215   9.637  0.6578  0.0294 -0.6034
  158SAPE   H6X17700   5.105   4.306   9.591  1.5261  0.0384  0.1729
  158SAPE   H6Y17701   4.954   4.207   9.620  0.4810  1.6731 -0.3503
  158SAPE   C3717702   5.120   4.086   9.566  0.0641 -0.2148 -0.3835
  158SAPE   H7X17703   5.075   3.992   9.603 -0.1904  0.2678  0.5744
  158SAPE   H7Y17704   5.231   4.080   9.570 -0.0045 -1.7838 -0.3793
  158SAPE   C3817705   5.073   4.076   9.426  0.3231  0.4025 -0.1274
  158SAPE   H8X17706   4.962   4.075   9.428  0.3145  0.1202 -0.5844
  158SAPE   H8Y17707   5.097   3.973   9.391  0.4122 -0.2380  1.6755
  158SAPE   C3917708   5.135   4.177   9.337 -0.2779 -0.7518  1.2679
  158SAPE   H9X17709   5.242   4.147   9.329 -0.2812 -0.2552 -1.6848
  158SAPE   H9Y17710   5.131   4.275   9.389  0.0638  0.6014 -1.1354
  158SAPE  C31017711   5.063   4.167   9.204  0.3877 -0.8540 -0.0920
  158SAPE  H10X17712   4.963   4.212   9.224  1.3699  1.1748  0.5240
  158SAPE  H10Y17713   5.044   4.064   9.167  0.6025 -0.8776 -0.1336
  158SAPE  C31117714   5.130   4.244   9.090  0.4550 -0.1065 -0.2952
  158SAPE  H11X17715   5.155   4.345   9.128  3.7118 -1.5490  1.9043
  158SAPE  H11Y17716   5.074   4.262   8.996 -1.0894 -1.6481  0.2666
  158SAPE  C31217717   5.267   4.181   9.055 -0.3543 -0.2284  0.5070
  158SAPE  H12X17718   5.275   4.091   9.120 -0.5425  0.2409  1.1842
  158SAPE  H12Y17719   5.355   4.243   9.082 -0.4353  0.7925 -1.4128
  158SAPE  C31317720   5.271   4.152   8.907 -0.1697 -0.2207  0.0061
  158SAPE  H13X17721   5.240   4.237   8.842 -0.1355 -0.8244 -0.8114
  158SAPE  H13Y17722   5.204   4.065   8.892  0.1796 -0.5177  0.1298
  158SAPE  C31417723   5.418   4.115   8.867 -0.8025 -0.1360  0.6303
  158SAPE  H14X17724   5.438   4.022   8.924  2.3246 -0.3150 -0.5815
  158SAPE  H14Y17725   5.495   4.189   8.897 -1.5659  1.3279 -0.8395
  158SAPE  C31517726   5.442   4.087   8.719  0.3429  0.9112  0.1393
  158SAPE  H15X17727   5.419   4.174   8.654  3.2758 -0.3888 -2.9267
  158SAPE  H15Y17728   5.361   4.011   8.706 -1.2788  2.6601 -0.5506
  158SAPE  C31617729   5.582   4.035   8.683  0.5024  0.2591 -0.7526
  158SAPE  H16X17730   5.607   3.951   8.751 -0.2372  0.7254  0.1059
  158SAPE  H16Y17731   5.652   4.119   8.703 -0.1885 -0.0015  3.7558
  158SAPE  C31717732   5.587   4.000   8.539  0.3156  0.3695 -0.3340
  158SAPE  H17X17733   5.551   4.085   8.477 -1.9201  0.0228  0.3616
  158SAPE  H17Y17734   5.512   3.920   8.519  1.8226 -0.9264 -0.9438
  158SAPE  C31817735   5.718   3.933   8.492 -0.6653 -0.0225 -0.4742
  158SAPE  H18X17736   5.741   3.849   8.562  0.4811  1.3673  0.8915
  158SAPE  H18Y17737   5.799   4.009   8.494 -0.8632  0.1873 -0.4423
  158SAPE  H18Z17738   5.696   3.879   8.397 -2.6434 -2.2057  1.1105
  159SAPE     N17739   4.954   0.560   6.287 -0.2124 -0.4665  0.2284
  159SAPE   HN117740   5.021   0.489   6.252 -0.9857 -1.4779  0.7323
  159SAPE   HN217741   4.877   0.507   6.334  0.8458 -1.6019  0.7504
  159SAPE   HN317742   4.908   0.603   6.205 -1.8017  0.9255  1.7748
  159SAPE   C1217743   5.016   0.652   6.388  0.2297  0.4341  0.1269
  159SAPE  H12A17744   5.079   0.714   6.320 -0.8711 -1.2385 -2.5652
  159SAPE  H12B17745   5.071   0.584   6.456 -2.7752  0.2336  2.5863
  159SAPE   C1117746   4.903   0.737   6.471 -0.1992  0.4352  0.2613
  159SAPE  H11A17747   4.958   0.787   6.553 -0.6924  0.9857  0.2602
  159SAPE  H11B17748   4.827   0.670   6.517  1.8231 -2.0721  0.1899
  159SAPE     P17749   4.706   0.809   6.313 -0.1036 -0.6211  0.1224
  159SAPE   O1317750   4.669   0.929   6.240  0.4397 -0.1442 -0.2515
  159SAPE   O1417751   4.723   0.688   6.229  0.2296  0.2150 -0.5085
  159SAPE   O1217752   4.844   0.833   6.385 -0.0117 -0.3073  0.0954
  159SAPE   O1117753   4.608   0.786   6.438 -0.4253 -0.2242 -0.5484
  159SAPE    C117754   4.581   0.883   6.540 -0.3731  0.1071 -0.0587
  159SAPE    HA17755   4.603   0.989   6.512  2.0197  0.1016  1.5055
  159SAPE    HB17756   4.479   0.883   6.583 -0.3569 -0.2986 -0.0157
  159SAPE    C217757   4.675   0.884   6.662 -0.3953 -0.5182  0.6615
  159SAPE    HS17758   4.774   0.902   6.616 -2.1124  1.7235 -2.5730
  159SAPE   O2117759   4.659   0.753   6.728  0.4400 -0.4315 -0.9314
  159SAPE   C2117760   4.759   0.733   6.811 -0.4192  0.7849  0.0552
  159SAPE   O2217761   4.870   0.776   6.797 -0.3356 -0.2255  0.4043
  159SAPE   C2217762   4.730   0.621   6.914  0.9313  0.3796  0.7295
  159SAPE   H2R17763   4.620   0.612   6.910  0.9921 -0.7481  1.2251
  159SAPE   H2S17764   4.773   0.524   6.881  0.4225  0.4283 -0.0943
  159SAPE    C317765   4.635   1.003   6.749 -0.2940 -0.4122 -0.6453
  159SAPE    HX17766   4.545   0.972   6.807  1.8736 -2.3034  1.9178
  159SAPE    HY17767   4.599   1.089   6.688  0.7144 -1.9042 -3.5443
  159SAPE   O3117768   4.727   1.036   6.858 -0.2198 -0.2194 -0.0202
  159SAPE   C3117769   4.841   1.110   6.819  0.3627 -0.2093 -0.5615
  159SAPE   O3217770   4.848   1.175   6.720 -0.0840 -0.0881  0.1150
  159SAPE   C3217771   4.941   1.106   6.937  0.2308 -0.1431  0.5991
  159SAPE   H2X17772   4.923   1.017   7.001  2.0631  0.4272  1.9772
  159SAPE   H2Y17773   4.904   1.194   6.994 -1.3876 -0.1181 -0.4056
  159SAPE   C2317774   4.792   0.653   7.048  0.4681  0.6006  0.0322
  159SAPE   H3R17775   4.770   0.756   7.081 -1.2783 -0.3005  1.9183
  159SAPE   H3S17776   4.903   0.658   7.042  0.7695 -0.9883  2.6810
  159SAPE   C2417777   4.756   0.555   7.166 -0.2188  0.6337 -0.1877
  159SAPE   H4R17778   4.645   0.546   7.166 -0.3281  1.8425 -0.1073
  159SAPE   H4S17779   4.791   0.617   7.251  3.7551 -0.6906 -0.6816
  159SAPE   C2517780   4.826   0.420   7.158 -0.4114  0.1514  0.3918
  159SAPE   H5R17781   4.822   0.368   7.061  2.1135  0.8825 -0.1751
  159SAPE   C2617782   4.904   0.363   7.249 -0.9743 -0.1842  0.4673
  159SAPE   H6R17783   4.960   0.277   7.209  1.3596  2.5306 -2.6922
  159SAPE   C2717784   4.943   0.415   7.381 -0.3744 -0.4914 -0.1498
  159SAPE   H7R17785   4.903   0.518   7.389 -2.0159 -1.0875 -0.3058
  159SAPE   H7S17786   5.054   0.420   7.376 -0.4104  0.6490  0.0238
  159SAPE   C2817787   4.902   0.322   7.489 -0.1027  0.9133 -0.1594
  159SAPE   H8R17788   4.806   0.346   7.538 -0.2231 -1.4887  0.9021
  159SAPE   C2917789   4.973   0.220   7.535  0.0575 -0.2199 -0.3790
  159SAPE   H9R17790   4.933   0.161   7.618 -2.5589 -1.9009 -2.6822
  159SAPE  C21017791   5.097   0.155   7.483 -0.2411  0.2101  0.1715
  159SAPE  H10R17792   5.089   0.138   7.373 -0.2626  2.4519 -0.2179
  159SAPE  H10S17793   5.098   0.049   7.518 -0.7044 -0.4433 -1.6833
  159SAPE  C21117794   5.218   0.232   7.523 -0.2287  0.1309 -0.6360
  159SAPE  H11R17795   5.263   0.298   7.448  1.2087 -0.0808  0.0005
  159SAPE  C21217796   5.269   0.237   7.643  0.3012  0.1155 -0.5685
  159SAPE  H12R17797   5.357   0.301   7.662  0.5712 -1.0448  2.7987
  159SAPE  C21317798   5.210   0.169   7.760  0.8318 -0.5123 -0.0661
  159SAPE  H13R17799   5.173   0.068   7.732  1.0345 -1.0125  1.3788
  159SAPE  H13S17800   5.116   0.215   7.798  1.2334 -0.0321  0.3665
  159SAPE  C21417801   5.311   0.162   7.875 -0.2603  0.2779  0.1221
  159SAPE  H14R17802   5.406   0.118   7.843  0.2503  1.5783 -0.2287
  159SAPE  C21517803   5.294   0.201   8.004 -0.3731  0.9519 -0.4303
  159SAPE  H15R17804   5.373   0.182   8.079 -0.2571  1.0602 -0.5240
  159SAPE  C21617805   5.167   0.263   8.053  0.5172 -0.2111 -0.3350
  159SAPE  H16R17806   5.090   0.186   8.075 -0.6364  0.6146 -1.3131
  159SAPE  H16S17807   5.120   0.327   7.975 -1.2523  0.2033  1.0232
  159SAPE  C21717808   5.198   0.345   8.177 -1.0863 -0.6567 -0.1486
  159SAPE  H17R17809   5.271   0.425   8.150  2.2618 -3.4654 -0.0818
  159SAPE  H17S17810   5.245   0.272   8.246  1.3767  0.9284 -0.0048
  159SAPE  C21817811   5.076   0.404   8.250 -0.3780  0.5523 -0.8722
  159SAPE  H18R17812   4.996   0.329   8.233  2.4646 -2.9800 -0.0125
  159SAPE  H18S17813   5.046   0.503   8.209  1.2623  2.3810  1.9280
  159SAPE  C21917814   5.095   0.413   8.407  0.2440  0.0059 -0.1352
  159SAPE  H19R17815   5.165   0.488   8.452  1.3365 -2.2710  2.2460
  159SAPE  H19S17816   5.135   0.313   8.432 -0.6171 -0.4050 -0.3578
  159SAPE  C22017817   4.952   0.432   8.465  0.0266 -0.2906 -0.0824
  159SAPE  H20R17818   4.878   0.361   8.423 -0.9999 -0.0225  1.1992
  159SAPE  H20S17819   4.919   0.537   8.447  0.5216 -0.0419  0.4330
  159SAPE  H20T17820   4.954   0.411   8.574 -1.0379 -2.0162 -0.3551
  159SAPE   C3317821   5.084   1.129   6.895  0.6064  0.0312  0.1311
  159SAPE   H3X17822   5.136   1.176   6.981  0.1604  0.4909  0.1535
  159SAPE   H3Y17823   5.091   1.206   6.814 -0.4907 -0.7135 -0.6979
  159SAPE   C3417824   5.172   1.007   6.858 -0.4512  0.8572 -0.2368
  159SAPE   H4X17825   5.276   1.037   6.835  0.1127  0.0495  1.1413
  159SAPE   H4Y17826   5.139   0.974   6.757 -0.1665  2.5260 -0.9156
  159SAPE   C3517827   5.188   0.886   6.958  0.1171 -0.4382  0.8330
  159SAPE   H5X17828   5.245   0.796   6.925 -0.6906 -1.0916  1.1944
  159SAPE   H5Y17829   5.085   0.853   6.984  0.0042 -0.1167  0.7929
  159SAPE   C3617830   5.245   0.915   7.097 -0.1118 -0.2164  0.6120
  159SAPE   H6X17831   5.163   0.972   7.145 -0.8645  0.8909 -1.8570
  159SAPE   H6Y17832   5.338   0.976   7.094 -1.3340  1.7085  0.2420
  159SAPE   C3717833   5.280   0.804   7.194  0.3033 -0.0537 -0.1957
  159SAPE   H7X17834   5.359   0.739   7.150 -0.6291 -0.1481 -1.8214
  159SAPE   H7Y17835   5.204   0.726   7.215  2.8426 -2.2071  1.5688
  159SAPE   C3817836   5.341   0.856   7.327 -0.5075 -0.2390 -0.7090
  159SAPE   H8X17837   5.288   0.950   7.355  1.0232  0.9173 -1.5309
  159SAPE   H8Y17838   5.445   0.886   7.302 -0.3198 -0.2366  0.0319
  159SAPE   C3917839   5.328   0.758   7.446  0.4161 -0.2429 -0.2277
  159SAPE   H9X17840   5.409   0.789   7.515 -0.3897  1.9832 -0.1907
  159SAPE   H9Y17841   5.339   0.653   7.412 -0.5825 -0.0450 -1.2199
  159SAPE  C31017842   5.193   0.781   7.524 -0.2575 -0.1595  1.1071
  159SAPE  H10X17843   5.117   0.739   7.454  0.2881  1.1424 -0.3268
  159SAPE  H10Y17844   5.187   0.892   7.533 -1.1759 -0.1100  0.1579
  159SAPE  C31117845   5.190   0.712   7.662 -0.6735 -0.2861  0.0827
  159SAPE  H11X17846   5.260   0.760   7.733 -0.4400 -1.8294  0.9487
  159SAPE  H11Y17847   5.212   0.603   7.654  1.4169  0.0657  0.3494
  159SAPE  C31217848   5.046   0.713   7.719  0.5957  0.4234 -0.2172
  159SAPE  H12X17849   4.981   0.643   7.662  2.9335 -1.6257 -0.5622
  159SAPE  H12Y17850   5.008   0.817   7.721 -1.0682 -0.1616  1.4168
  159SAPE  C31317851   5.053   0.657   7.864 -0.5709 -0.3578 -0.3384
  159SAPE  H13X17852   5.108   0.560   7.865  2.5414  1.2601 -1.5557
  159SAPE  H13Y17853   4.944   0.644   7.884  0.0076 -0.9925  3.0717
  159SAPE  C31417854   5.119   0.762   7.962  0.0413  0.2845  0.0336
  159SAPE  H14X17855   5.193   0.826   7.909  0.1052  0.5542  0.4402
  159SAPE  H14Y17856   5.180   0.704   8.035 -0.4693 -2.2084 -1.4149
  159SAPE  C31517857   5.012   0.851   8.027 -0.3126 -0.2087 -0.1205
  159SAPE  H15X17858   4.941   0.783   8.079  1.6274 -0.3786  2.5025
  159SAPE  H15Y17859   4.958   0.908   7.948  1.0516  1.6133  0.1851
  159SAPE  C31617860   5.068   0.958   8.128 -0.3012  0.5492 -0.0357
  159SAPE  H16X17861   4.984   0.998   8.189  0.6837 -0.7748  2.3676
  159SAPE  H16Y17862   5.105   1.036   8.058 -2.8870  1.5261 -0.4221
  159SAPE  C31717863   5.169   0.903   8.228 -0.8901  0.0235  0.2194
  159SAPE  H17X17864   5.169   0.990   8.297 -3.5745  0.6776 -0.4896
  159SAPE  H17Y17865   5.265   0.885   8.176  0.0376  3.2788  0.5762
  159SAPE  C31817866   5.129   0.784   8.320  0.1130 -0.1910 -0.5276
  159SAPE  H18X17867   5.210   0.767   8.394 -0.6485 -0.0592  0.3512
  159SAPE  H18Y17868   5.105   0.690   8.265 -0.8703 -0.2965  0.0518
  159SAPE  H18Z17869   5.040   0.817   8.377 -0.0356  1.0099 -1.4138
  160SAPE     N17870   3.697   2.407   6.189  0.1048  0.0865  0.8819
  160SAPE   HN117871   3.659   2.503   6.186 -0.7911 -0.2854 -0.8882
  160SAPE   HN217872   3.768   2.395   6.113 -1.3201  1.3703 -0.7296
  160SAPE   HN317873   3.620   2.344   6.159 -1.9530  3.0236 -0.4403
  160SAPE   C1217874   3.780   2.388   6.312  0.0301  0.0724 -0.2379
  160SAPE  H12A17875   3.846   2.300   6.298  0.1156  0.0672  0.1732
  160SAPE  H12B17876   3.702   2.366   6.389  0.2345 -3.4675 -0.8519
  160SAPE   C1117877   3.862   2.515   6.354  0.1904 -0.2545 -0.6663
  160SAPE  H11A17878   3.904   2.495   6.454 -0.9714  1.0851  0.1409
  160SAPE  H11B17879   3.795   2.602   6.369 -1.3571 -1.4411 -0.4417
  160SAPE     P17880   4.066   2.659   6.289  0.2366 -0.3546  0.0380
  160SAPE   O1317881   4.167   2.645   6.178  0.2148 -0.2148 -0.5566
  160SAPE   O1417882   4.005   2.794   6.303 -0.4145 -0.4224 -0.0725
  160SAPE   O1217883   3.957   2.552   6.259  0.1582  0.2541  0.1505
  160SAPE   O1117884   4.125   2.622   6.430  0.0385  0.2268  0.1042
  160SAPE    C117885   4.229   2.524   6.433 -0.0890 -0.0664  0.6052
  160SAPE    HA17886   4.196   2.425   6.395  1.7749 -0.4921 -0.0533
  160SAPE    HB17887   4.317   2.565   6.378 -0.3637  1.0015  0.9412
  160SAPE    C217888   4.268   2.483   6.574  0.0685 -0.4777 -0.0102
  160SAPE    HS17889   4.189   2.443   6.641  0.7725 -2.6360 -0.4009
  160SAPE   O2117890   4.330   2.597   6.634  0.0027  0.2507 -0.1288
  160SAPE   C2117891   4.362   2.599   6.762 -0.5616 -0.2065 -0.1136
  160SAPE   O2217892   4.345   2.515   6.845 -0.3853  0.3677  0.6181
  160SAPE   C2217893   4.433   2.739   6.784 -0.2790  0.3132  0.3270
  160SAPE   H2R17894   4.526   2.731   6.724  0.7153 -1.0006  1.9744
  160SAPE   H2S17895   4.375   2.825   6.744  0.4440  0.6128 -0.0817
  160SAPE    C317896   4.360   2.346   6.555 -0.4788 -0.2295  0.0315
  160SAPE    HX17897   4.457   2.354   6.500 -0.9711 -1.8394 -1.1437
  160SAPE    HY17898   4.289   2.281   6.500 -1.0105 -0.5568  1.0938
  160SAPE   O3117899   4.395   2.293   6.677 -0.0988 -0.4527  0.6971
  160SAPE   C3117900   4.312   2.223   6.749 -0.4290  0.1264  0.6024
  160SAPE   O3217901   4.191   2.204   6.724 -0.1828  0.0497  0.1700
  160SAPE   C3217902   4.389   2.155   6.863  0.1083 -0.8245 -0.3048
  160SAPE   H2X17903   4.483   2.210   6.885 -0.6669  0.5901 -0.4304
  160SAPE   H2Y17904   4.424   2.051   6.846 -1.7706 -1.6638  0.6435
  160SAPE   C2317905   4.472   2.769   6.931  0.6315 -0.4569  0.5139
  160SAPE   H3R17906   4.566   2.711   6.945  1.7114  0.5320 -1.9389
  160SAPE   H3S17907   4.393   2.743   7.004 -1.4235  1.8324 -0.7311
  160SAPE   C2417908   4.508   2.918   6.943  0.0327  0.1191 -0.3714
  160SAPE   H4R17909   4.578   2.943   6.861  0.0327  0.2271 -0.3376
  160SAPE   H4S17910   4.563   2.927   7.039 -0.3496 -3.0268  0.2491
  160SAPE   C2517911   4.381   3.005   6.931  0.6296  0.1175 -0.2090
  160SAPE   H5R17912   4.341   3.032   6.832 -0.1754  1.0379  0.3520
  160SAPE   C2617913   4.311   3.079   7.029  0.0694 -0.0554  0.8601
  160SAPE   H6R17914   4.216   3.130   7.005 -0.0773 -0.7853 -0.1737
  160SAPE   C2717915   4.350   3.078   7.178  0.0864 -0.0980  0.1910
  160SAPE   H7R17916   4.329   3.171   7.234 -0.8983  0.7439 -1.5125
  160SAPE   H7S17917   4.460   3.061   7.185 -0.2897 -3.1821  0.1043
  160SAPE   C2817918   4.274   2.966   7.250 -0.2284  0.6321  0.4827
  160SAPE   H8R17919   4.178   2.937   7.205  0.4726  0.8428 -1.2218
  160SAPE   C2917920   4.321   2.881   7.340 -0.1401  0.3457  0.4773
  160SAPE   H9R17921   4.245   2.813   7.382 -1.3878  1.2965 -0.1634
  160SAPE  C21017922   4.451   2.882   7.416  0.0926 -0.4954 -0.4979
  160SAPE  H10R17923   4.525   2.921   7.342 -0.2229 -0.9561 -1.0657
  160SAPE  H10S17924   4.487   2.779   7.432 -1.4152 -1.0550 -0.5887
  160SAPE  C21117925   4.473   2.975   7.533  0.0698  0.0843 -0.2944
  160SAPE  H11R17926   4.504   3.078   7.511  0.1953 -0.2527 -1.7832
  160SAPE  C21217927   4.442   2.948   7.665 -0.2415  0.0440  0.0413
  160SAPE  H12R17928   4.472   3.016   7.746  0.9456  0.5950 -0.8350
  160SAPE  C21317929   4.363   2.821   7.703 -0.6326  0.2218 -0.0048
  160SAPE  H13R17930   4.439   2.741   7.714 -0.9868  0.0298  1.2021
  160SAPE  H13S17931   4.298   2.800   7.615 -0.4171 -0.6475  0.0356
  160SAPE  C21417932   4.294   2.830   7.840  0.2610  0.2559 -0.0474
  160SAPE  H14R17933   4.199   2.886   7.834 -0.2221  0.1931  3.9809
  160SAPE  C21517934   4.319   2.773   7.960  0.4655 -0.4329  0.3471
  160SAPE  H15R17935   4.241   2.806   8.030 -0.1370 -1.4398  0.1672
  160SAPE  C21617936   4.435   2.691   8.010  0.1664 -0.2266  0.0331
  160SAPE  H16R17937   4.506   2.680   7.925  1.6884 -2.1726  1.4602
  160SAPE  H16S17938   4.406   2.587   8.035  2.3729 -0.7880  0.4367
  160SAPE  C21717939   4.516   2.750   8.128 -0.0124  0.4396 -0.4840
  160SAPE  H17R17940   4.536   2.855   8.097  1.6248  0.9524  2.0374
  160SAPE  H17S17941   4.606   2.686   8.129 -0.6578 -0.5290 -1.6738
  160SAPE  C21817942   4.441   2.754   8.260 -0.9041  0.2384  0.1129
  160SAPE  H18R17943   4.406   2.650   8.278 -0.2561  0.4306  2.8715
  160SAPE  H18S17944   4.353   2.822   8.250 -0.6458  0.8367  1.5829
  160SAPE  C21917945   4.516   2.813   8.390 -0.2244 -0.2789 -0.1565
  160SAPE  H19R17946   4.616   2.766   8.401 -0.2544 -0.0702  1.1313
  160SAPE  H19S17947   4.460   2.793   8.484 -1.3955  1.6146 -0.3872
  160SAPE  C22017948   4.540   2.961   8.383  0.3917  0.6536  0.3940
  160SAPE  H20R17949   4.616   2.982   8.304 -1.6046 -1.1988 -2.1919
  160SAPE  H20S17950   4.578   3.013   8.473  2.5646 -2.5089  1.4813
  160SAPE  H20T17951   4.441   3.009   8.365  0.4402  2.2394  3.5989
  160SAPE   C3317952   4.304   2.149   6.996 -0.9100 -0.9550 -0.2673
  160SAPE   H3X17953   4.359   2.080   7.064  2.0467 -1.0850 -2.5951
  160SAPE   H3Y17954   4.200   2.119   6.970 -2.0245  4.0004 -2.7862
  160SAPE   C3417955   4.303   2.290   7.066 -0.2064  0.5076 -0.3534
  160SAPE   H4X17956   4.218   2.347   7.024 -0.8889  0.8746  1.4565
  160SAPE   H4Y17957   4.401   2.341   7.056  0.0880  0.1982  0.8344
  160SAPE   C3517958   4.281   2.282   7.220  0.4443 -0.1924  0.4250
  160SAPE   H5X17959   4.210   2.202   7.249 -0.5196  0.3073 -0.4644
  160SAPE   H5Y17960   4.227   2.376   7.243  1.1104 -0.1504  1.9505
  160SAPE   C3617961   4.411   2.286   7.289  0.7520 -0.8132  0.0520
  160SAPE   H6X17962   4.467   2.379   7.269 -0.0813 -0.0105  1.2787
  160SAPE   H6Y17963   4.475   2.207   7.244 -0.9032 -2.3423  0.2907
  160SAPE   C3717964   4.415   2.262   7.443 -0.4259  0.2086 -0.2560
  160SAPE   H7X17965   4.523   2.257   7.469 -0.6826 -2.8015  0.5833
  160SAPE   H7Y17966   4.356   2.170   7.461 -1.2300  0.5653 -0.9817
  160SAPE   C3817967   4.359   2.379   7.530  0.2092  0.4991  0.2505
  160SAPE   H8X17968   4.262   2.408   7.484  0.2651 -0.9097 -0.8484
  160SAPE   H8Y17969   4.425   2.468   7.521  3.0444 -1.1381  3.1639
  160SAPE   C3917970   4.359   2.341   7.675 -0.1996  0.1280 -0.2494
  160SAPE   H9X17971   4.338   2.233   7.687  0.8253 -0.2561 -1.6057
  160SAPE   H9Y17972   4.300   2.391   7.754 -2.5199 -4.4411  1.2388
  160SAPE  C31017973   4.495   2.364   7.740 -0.1198  0.3276  0.7584
  160SAPE  H10X17974   4.519   2.471   7.757  3.3685 -0.0816 -0.7116
  160SAPE  H10Y17975   4.572   2.309   7.681 -1.4378 -1.9083  0.9938
  160SAPE  C31117976   4.504   2.297   7.876  0.6476 -0.3008 -0.1272
  160SAPE  H11X17977   4.478   2.189   7.871 -2.3242  0.2978  0.7243
  160SAPE  H11Y17978   4.432   2.350   7.941  1.6163  1.9314 -0.7576
  160SAPE  C31217979   4.638   2.308   7.941  0.4081  0.3338 -1.0190
  160SAPE  H12X17980   4.671   2.411   7.966  3.1359 -0.8600  0.7918
  160SAPE  H12Y17981   4.723   2.274   7.878  2.0908 -0.0230  1.3287
  160SAPE  C31317982   4.649   2.229   8.073  0.3537 -0.2282  0.4023
  160SAPE  H13X17983   4.748   2.180   8.087  0.6095 -0.1934 -1.1660
  160SAPE  H13Y17984   4.576   2.147   8.088 -0.2126  0.2665  0.3719
  160SAPE  C31417985   4.637   2.326   8.198 -0.0440  0.1063 -0.7362
  160SAPE  H14X17986   4.554   2.398   8.182  0.5154  0.8811 -0.2226
  160SAPE  H14Y17987   4.732   2.384   8.201 -0.0962  0.2196  2.1019
  160SAPE  C31517988   4.623   2.261   8.332 -0.3723  0.4962 -1.5071
  160SAPE  H15X17989   4.706   2.188   8.347  0.7550  2.0868  0.5039
  160SAPE  H15Y17990   4.530   2.201   8.339  0.9412 -1.4115  2.4860
  160SAPE  C31617991   4.619   2.375   8.436  0.4239  0.4076  0.3378
  160SAPE  H16X17992   4.527   2.437   8.430  2.2993  3.2652 -1.2411
  160SAPE  H16Y17993   4.687   2.461   8.415 -0.3627  0.8717 -0.3820
  160SAPE  C31717994   4.647   2.328   8.575 -0.5366 -0.2452  0.1692
  160SAPE  H17X17995   4.737   2.265   8.594 -0.4501 -0.1393  0.1182
  160SAPE  H17Y17996   4.562   2.259   8.591 -1.8945  1.3868  0.3107
  160SAPE  C31817997   4.643   2.437   8.685 -0.8974 -0.1426 -0.4354
  160SAPE  H18X17998   4.560   2.509   8.670 -2.4357 -1.3032  2.0440
  160SAPE  H18Y17999   4.733   2.503   8.690 -2.3294  1.8076  3.5645
  160SAPE  H18Z18000   4.646   2.398   8.788 -2.8441 -0.2921 -0.4138
  161SAPE     N18001   5.435   0.559   6.546 -0.0125 -0.3268  0.5254
  161SAPE   HN118002   5.408   0.621   6.625 -1.2253  0.7674 -0.6907
  161SAPE   HN218003   5.391   0.598   6.461 -0.7364  2.5836  2.1042
  161SAPE   HN318004   5.393   0.465   6.563  0.4603 -0.2276  2.4118
  161SAPE   C1218005   5.588   0.551   6.520  0.0315  0.1871 -0.2637
  161SAPE  H12A18006   5.619   0.496   6.611 -0.9776  1.2583  0.7472
  161SAPE  H12B18007   5.629   0.654   6.510  0.3866  0.2701  1.6483
  161SAPE   C1118008   5.625   0.462   6.402  0.7621  0.4531  0.5798
  161SAPE  H11A18009   5.580   0.509   6.312  1.7608  1.7486  0.7208
  161SAPE  H11B18010   5.579   0.361   6.399 -0.6929  1.1150 -1.3184
  161SAPE     P18011   5.870   0.552   6.335 -0.2911  0.1318 -0.1260
  161SAPE   O1318012   5.994   0.481   6.310 -0.1657  0.1516  0.0336
  161SAPE   O1418013   5.818   0.624   6.220  0.2190 -0.6828  0.2426
  161SAPE   O1218014   5.758   0.440   6.372  0.1167 -0.2097  0.2746
  161SAPE   O1118015   5.884   0.646   6.456 -0.0720  0.5169  0.0868
  161SAPE    C118016   5.986   0.656   6.554  0.4341  0.4378  0.6340
  161SAPE    HA18017   6.075   0.599   6.518  0.5134  1.8125 -1.4799
  161SAPE    HB18018   6.027   0.758   6.540  1.8767 -0.2886 -0.7630
  161SAPE    C218019   5.936   0.619   6.702 -0.1108  0.8495 -0.0429
  161SAPE    HS18020   6.027   0.617   6.767  0.5064 -0.2721 -0.8885
  161SAPE   O2118021   5.866   0.492   6.710 -0.1210 -0.2794  0.0774
  161SAPE   C2118022   5.953   0.400   6.677  0.0835 -0.4925  0.6069
  161SAPE   O2218023   6.077   0.414   6.678  0.3230  0.2207  0.4196
  161SAPE   C2218024   5.879   0.269   6.634  0.0111 -0.0896 -0.5485
  161SAPE   H2R18025   5.769   0.271   6.650 -0.0826 -2.1937 -0.5779
  161SAPE   H2S18026   5.886   0.258   6.523 -1.0412 -1.1502 -0.5380
  161SAPE    C318027   5.844   0.731   6.750  0.0613 -0.2091 -0.2730
  161SAPE    HX18028   5.768   0.744   6.670 -1.3345  0.7953  1.1370
  161SAPE    HY18029   5.901   0.826   6.752  1.7889 -1.1879 -1.2532
  161SAPE   O3118030   5.786   0.699   6.877  0.9973  0.6967  0.8842
  161SAPE   C3118031   5.658   0.678   6.885  0.3547  0.1456  0.3906
  161SAPE   O3218032   5.579   0.680   6.791 -0.8873 -1.0466  0.1476
  161SAPE   C3218033   5.615   0.644   7.023  0.0362  0.3379  0.1224
  161SAPE   H2X18034   5.506   0.624   7.017 -0.6052  3.8245 -2.0289
  161SAPE   H2Y18035   5.640   0.727   7.093  1.1887 -0.5753  0.8536
  161SAPE   C2318036   5.950   0.140   6.692  1.3245 -0.3102  0.1177
  161SAPE   H3R18037   6.060   0.151   6.699  1.4176 -1.6802  1.1960
  161SAPE   H3S18038   5.951   0.054   6.622 -0.3386 -1.3102  1.2425
  161SAPE   C2418039   5.895   0.082   6.823 -0.0479 -0.7372 -0.0812
  161SAPE   H4R18040   5.971   0.012   6.864  0.7556 -0.0080 -0.3025
  161SAPE   H4S18041   5.815   0.007   6.804  0.5587 -1.2771 -0.5383
  161SAPE   C2518042   5.856   0.188   6.918 -0.6569 -0.4518 -0.5009
  161SAPE   H5R18043   5.776   0.260   6.894  0.1260  1.0356  1.1089
  161SAPE   C2618044   5.911   0.215   7.038 -0.2343  0.3543  0.0410
  161SAPE   H6R18045   5.876   0.298   7.101  1.7688 -0.8004  2.8793
  161SAPE   C2718046   6.010   0.112   7.096 -0.3453  0.2000  1.4236
  161SAPE   H7R18047   6.101   0.119   7.032 -1.8117 -0.3506 -0.8198
  161SAPE   H7S18048   5.961   0.014   7.083 -1.3520  0.9265 -0.8161
  161SAPE   C2818049   6.034   0.140   7.241  1.7141 -0.9083 -0.0830
  161SAPE   H8R18050   6.000   0.239   7.275  0.0014  0.0319 -4.0169
  161SAPE   C2918051   6.099   0.055   7.316 -0.5221 -0.8242 -0.7472
  161SAPE   H9R18052   6.118   0.081   7.421 -0.7172 -0.0885 -0.8843
  161SAPE  C21018053   6.165  -0.068   7.260  0.5406  0.3405 -0.0132
  161SAPE  H10R18054   6.274  -0.066   7.281  0.4352  0.1846  0.5480
  161SAPE  H10S18055   6.164  -0.076   7.149 -2.4068 -0.5707 -0.0070
  161SAPE  C21118056   6.100  -0.193   7.310  0.2275 -0.0979  0.7908
  161SAPE  H11R18057   6.058  -0.254   7.229 -0.5435  0.9407  0.3899
  161SAPE  C21218058   6.097  -0.226   7.438  1.3088 -0.0734 -0.9862
  161SAPE  H12R18059   6.054  -0.323   7.467  1.3752  0.4604  1.1038
  161SAPE  C21318060   6.157  -0.145   7.551 -0.3674  0.2103  0.6059
  161SAPE  H13R18061   6.079  -0.076   7.590 -2.0109 -1.0588 -0.2613
  161SAPE  H13S18062   6.234  -0.071   7.522 -2.0198  1.7225 -0.0972
  161SAPE  C21418063   6.213  -0.228   7.658 -0.4875  0.4403 -0.2605
  161SAPE  H14R18064   6.208  -0.337   7.641  0.8965 -0.0747  2.2142
  161SAPE  C21518065   6.247  -0.196   7.784 -0.5905 -0.2510 -0.3303
  161SAPE  H15R18066   6.276  -0.272   7.857 -2.9579 -1.5658 -0.6575
  161SAPE  C21618067   6.255  -0.054   7.832 -0.2739 -1.1167 -0.2867
  161SAPE  H16R18068   6.255   0.022   7.751 -2.4791  2.1594  2.5011
  161SAPE  H16S18069   6.349  -0.031   7.885 -0.5851  1.9666 -0.8945
  161SAPE  C21718070   6.140   0.005   7.921  0.1370 -0.0497 -0.4709
  161SAPE  H17R18071   6.115  -0.062   8.006 -0.2145  2.5235  1.5927
  161SAPE  H17S18072   6.043   0.012   7.867  1.0897  1.2599 -2.1232
  161SAPE  C21818073   6.180   0.147   7.974  0.0242  0.7259 -0.3035
  161SAPE  H18R18074   6.287   0.140   8.002 -0.5249  1.4030  2.2570
  161SAPE  H18S18075   6.135   0.161   8.074 -0.1729  0.3036 -0.3297
  161SAPE  C21918076   6.154   0.265   7.875 -0.1397  0.7192 -0.3236
  161SAPE  H19R18077   6.044   0.277   7.867 -0.1659  0.4517 -0.3836
  161SAPE  H19S18078   6.198   0.240   7.776  0.0987 -1.0868  0.2056
  161SAPE  C22018079   6.216   0.390   7.923 -0.0498 -0.0643 -0.2901
  161SAPE  H20R18080   6.171   0.478   7.872  0.9619  0.9440  0.5012
  161SAPE  H20S18081   6.327   0.387   7.923 -0.0675 -1.7955 -1.8776
  161SAPE  H20T18082   6.196   0.391   8.032  0.5411 -3.8906 -0.0109
  161SAPE   C3318083   5.697   0.524   7.069 -0.0390 -0.0270 -0.3714
  161SAPE   H3X18084   5.802   0.560   7.072  0.7552 -2.0831 -1.3325
  161SAPE   H3Y18085   5.699   0.441   6.995 -1.1798 -0.0976 -0.3406
  161SAPE   C3418086   5.651   0.471   7.212 -0.4381  0.0380  0.0409
  161SAPE   H4X18087   5.728   0.397   7.242  1.9566  2.0148 -0.9317
  161SAPE   H4Y18088   5.551   0.425   7.229  0.2450 -0.9009  1.6679
  161SAPE   C3518089   5.663   0.577   7.322  0.8847  0.5387 -0.2448
  161SAPE   H5X18090   5.574   0.643   7.332  2.3962  2.3712  2.4056
  161SAPE   H5Y18091   5.746   0.645   7.296  0.0022  1.6969 -0.0984
  161SAPE   C3618092   5.696   0.519   7.461  0.0197  0.6552  0.0719
  161SAPE   H6X18093   5.788   0.461   7.484 -0.1453  0.6122  0.6172
  161SAPE   H6Y18094   5.606   0.456   7.477  0.6916  0.0097  1.4434
  161SAPE   C3718095   5.681   0.630   7.573 -0.6018  0.4485  0.6153
  161SAPE   H7X18096   5.602   0.701   7.540 -0.4896  1.0151  1.5361
  161SAPE   H7Y18097   5.771   0.691   7.552 -1.2927  0.6767 -1.9949
  161SAPE   C3818098   5.673   0.590   7.718 -0.8150 -1.0081  0.0535
  161SAPE   H8X18099   5.715   0.677   7.774 -0.6329 -0.8806 -0.2796
  161SAPE   H8Y18100   5.743   0.505   7.729  3.4471  1.9285 -1.5540
  161SAPE   C3918101   5.535   0.552   7.753 -0.0984 -0.0079  0.0152
  161SAPE   H9X18102   5.492   0.462   7.703 -1.6365  0.7229 -0.0526
  161SAPE   H9Y18103   5.473   0.638   7.719  2.8088  2.0371 -0.5327
  161SAPE  C31018104   5.510   0.530   7.901 -0.2771  0.2548  0.2558
  161SAPE  H10X18105   5.562   0.442   7.943  0.6248  0.5628 -0.1907
  161SAPE  H10Y18106   5.407   0.490   7.914  0.8318 -2.2868  2.0683
  161SAPE  C31118107   5.541   0.658   7.983  0.2194 -0.3128 -0.4540
  161SAPE  H11X18108   5.501   0.751   7.938  0.5723  0.1540  0.1738
  161SAPE  H11Y18109   5.650   0.675   7.986 -0.0381  1.4199  0.6646
  161SAPE  C31218110   5.489   0.655   8.127 -0.6387  0.5788  0.7827
  161SAPE  H12X18111   5.509   0.549   8.154 -1.7455 -0.2972 -1.5191
  161SAPE  H12Y18112   5.381   0.682   8.127 -0.3047  2.0445  1.9080
  161SAPE  C31318113   5.571   0.742   8.218  0.8733 -0.1466  0.1028
  161SAPE  H13X18114   5.552   0.850   8.205 -1.8148 -0.4979  0.4685
  161SAPE  H13Y18115   5.679   0.724   8.201  0.9218  1.4136 -1.4043
  161SAPE  C31418116   5.544   0.723   8.365  0.2907  0.1644 -0.0737
  161SAPE  H14X18117   5.568   0.617   8.388 -0.7526 -0.0344  0.1521
  161SAPE  H14Y18118   5.438   0.742   8.390  0.0468  1.1160 -1.7281
  161SAPE  C31518119   5.619   0.816   8.454  0.1169  0.3830 -0.8388
  161SAPE  H15X18120   5.558   0.908   8.459  1.1042  1.0395 -0.4534
  161SAPE  H15Y18121   5.717   0.842   8.408  0.5265 -0.9840 -0.7990
  161SAPE  C31618122   5.626   0.762   8.595  0.3254 -0.0722 -0.6251
  161SAPE  H16X18123   5.653   0.657   8.571  0.9344 -0.0672  0.0085
  161SAPE  H16Y18124   5.525   0.746   8.640  0.8246 -1.6494  0.0277
  161SAPE  C31718125   5.716   0.830   8.696  0.7112  0.3247  0.3265
  161SAPE  H17X18126   5.821   0.839   8.660  0.9655  1.6109  1.3271
  161SAPE  H17Y18127   5.726   0.766   8.787 -0.4096 -1.7085 -0.8955
  161SAPE  C31818128   5.656   0.970   8.719 -0.5362  0.2923 -0.6741
  161SAPE  H18X18129   5.717   1.025   8.792  1.2431 -0.8642 -1.2207
  161SAPE  H18Y18130   5.551   0.953   8.752  0.8922 -1.6986  3.3971
  161SAPE  H18Z18131   5.657   1.022   8.621  2.3256  0.9324 -0.3841
  162SAPE     N18132   4.020   3.049   6.338  0.2519  0.0039  0.0605
  162SAPE   HN118133   4.088   3.058   6.416  0.8523 -1.6627 -0.2311
  162SAPE   HN218134   3.919   3.057   6.364 -0.3784  0.1698 -2.2606
  162SAPE   HN318135   4.024   2.949   6.311  1.4803 -0.2652  1.1753
  162SAPE   C1218136   4.070   3.129   6.223  0.2688  0.3273 -0.0646
  162SAPE  H12A18137   4.047   3.235   6.246  1.7633  0.0912  2.9194
  162SAPE  H12B18138   4.024   3.085   6.132  0.0553 -2.1182  1.1559
  162SAPE   C1118139   4.223   3.116   6.207  0.1524 -1.1642 -0.8530
  162SAPE  H11A18140   4.271   3.124   6.307  3.5186 -0.5873 -2.3681
  162SAPE  H11B18141   4.255   3.206   6.150  0.0084 -0.5993 -0.0572
  162SAPE     P18142   4.416   2.991   6.109  0.0665 -0.3606  0.2471
  162SAPE   O1318143   4.435   2.873   6.023  0.2141 -0.2388 -0.5858
  162SAPE   O1418144   4.466   3.126   6.078 -0.4664  0.5322 -0.6860
  162SAPE   O1218145   4.261   2.995   6.147 -0.5268 -0.2184 -0.2724
  162SAPE   O1118146   4.495   2.958   6.242 -0.3461 -0.4512  0.1600
  162SAPE    C118147   4.425   2.884   6.342  1.1964 -0.1186 -0.9841
  162SAPE    HA18148   4.343   2.946   6.382  0.8862 -0.4503 -1.0972
  162SAPE    HB18149   4.374   2.793   6.304  1.1226 -0.6795  0.4212
  162SAPE    C218150   4.514   2.830   6.456  0.3141  0.1136 -0.1817
  162SAPE    HS18151   4.449   2.787   6.535 -1.6465 -0.0973 -1.8023
  162SAPE   O2118152   4.606   2.933   6.499  0.2089 -0.2149 -0.3342
  162SAPE   C2118153   4.552   3.033   6.556  0.5902  0.3221 -0.3215
  162SAPE   O2218154   4.440   3.031   6.608 -0.4590  0.2812 -0.2520
  162SAPE   C2218155   4.653   3.147   6.554  0.5983  0.2470  0.3683
  162SAPE   H2R18156   4.728   3.140   6.636 -0.0741  0.8435  1.0453
  162SAPE   H2S18157   4.694   3.164   6.452  0.7574  0.4598  0.4669
  162SAPE    C318158   4.608   2.712   6.417  0.3335 -0.5061  0.0371
  162SAPE    HX18159   4.662   2.738   6.323  0.5854 -0.5093  0.1812
  162SAPE    HY18160   4.544   2.627   6.385 -0.6710  0.2231  0.0895
  162SAPE   O3118161   4.702   2.676   6.517 -0.4256  0.5580  0.7580
  162SAPE   C3118162   4.821   2.736   6.516  0.6216 -0.4970 -0.2303
  162SAPE   O3218163   4.861   2.805   6.427 -0.1313 -0.1022  0.3406
  162SAPE   C3218164   4.893   2.712   6.650  0.1489 -0.1439 -0.2338
  162SAPE   H2X18165   4.977   2.639   6.642  2.2102  2.0638 -0.0608
  162SAPE   H2Y18166   4.818   2.684   6.727 -0.6479 -0.8839 -1.2649
  162SAPE   C2318167   4.580   3.279   6.609 -0.3182 -0.0365  0.5728
  162SAPE   H3R18168   4.525   3.259   6.703  0.1651 -2.3836  0.4144
  162SAPE   H3S18169   4.509   3.309   6.530  1.2049  0.7944 -0.5402
  162SAPE   C2418170   4.684   3.389   6.634 -0.4460  0.6388 -0.7720
  162SAPE   H4R18171   4.749   3.414   6.548 -0.6748  2.3033 -0.5051
  162SAPE   H4S18172   4.752   3.343   6.709 -0.0868  2.1997 -0.0990
  162SAPE   C2518173   4.612   3.516   6.669  0.1538 -0.2481 -0.0334
  162SAPE   H5R18174   4.543   3.555   6.593  3.0328  0.4849 -2.4590
  162SAPE   C2618175   4.619   3.576   6.786  0.0231  0.1222  0.1504
  162SAPE   H6R18176   4.564   3.671   6.791 -0.0434  0.0631  0.5488
  162SAPE   C2718177   4.695   3.538   6.912  0.1655 -0.5466 -0.2079
  162SAPE   H7R18178   4.711   3.631   6.972  0.0168 -0.9112  0.4017
  162SAPE   H7S18179   4.799   3.504   6.890 -0.7904 -3.1294 -1.0384
  162SAPE   C2818180   4.622   3.435   6.997 -0.8119 -0.4976 -0.2010
  162SAPE   H8R18181   4.598   3.347   6.936  1.1478 -1.0856 -0.2061
  162SAPE   C2918182   4.588   3.436   7.126  0.2791  0.5175 -0.8507
  162SAPE   H9R18183   4.522   3.358   7.165 -0.3535  0.9859 -0.9697
  162SAPE  C21018184   4.615   3.560   7.215 -0.2737  0.0773 -0.4232
  162SAPE  H10R18185   4.688   3.627   7.166 -0.8795  0.8427 -0.2922
  162SAPE  H10S18186   4.666   3.523   7.307  1.0151 -0.5203 -1.3401
  162SAPE  C21118187   4.498   3.645   7.256 -0.2200 -0.2798  0.2700
  162SAPE  H11R18188   4.455   3.712   7.180  0.4617 -1.6326 -1.3853
  162SAPE  C21218189   4.451   3.655   7.382 -0.1766  0.1451  0.3678
  162SAPE  H12R18190   4.353   3.702   7.398  0.1830  0.7207  0.9152
  162SAPE  C21318191   4.506   3.589   7.512  0.1554 -0.8066  0.0262
  162SAPE  H13R18192   4.559   3.494   7.490  0.3672 -0.9009  0.9085
  162SAPE  H13S18193   4.419   3.569   7.579  0.0515  1.9465  0.8530
  162SAPE  C21418194   4.606   3.693   7.566  0.1360 -0.2348  0.4349
  162SAPE  H14R18195   4.708   3.706   7.527  0.7976 -1.8116  1.5241
  162SAPE  C21518196   4.573   3.796   7.647 -0.1757  0.3327 -0.8872
  162SAPE  H15R18197   4.661   3.853   7.680  0.1769  0.6105 -2.2345
  162SAPE  C21618198   4.440   3.825   7.711  0.3594 -0.1887  0.9984
  162SAPE  H16R18199   4.362   3.807   7.634 -0.2417  1.1991  1.2450
  162SAPE  H16S18200   4.436   3.935   7.732 -3.1604 -0.0590  0.2718
  162SAPE  C21718201   4.408   3.752   7.843 -0.4054 -0.4007 -0.0066
  162SAPE  H17R18202   4.495   3.754   7.912 -0.4083 -0.2510 -0.0064
  162SAPE  H17S18203   4.397   3.645   7.816 -2.9115 -0.0515 -0.6195
  162SAPE  C21818204   4.279   3.789   7.913 -0.2744  0.9626 -0.3215
  162SAPE  H18R18205   4.191   3.774   7.847  1.6368  0.9032 -3.0258
  162SAPE  H18S18206   4.275   3.900   7.926 -1.4346  0.9367 -0.3360
  162SAPE  C21918207   4.266   3.726   8.055  0.2536 -0.6835  0.1126
  162SAPE  H19R18208   4.297   3.619   8.056  3.0904  0.0315  2.5336
  162SAPE  H19S18209   4.162   3.742   8.090  0.6046  1.4814  0.3123
  162SAPE  C22018210   4.349   3.806   8.159 -0.8520  0.7738 -0.2274
  162SAPE  H20R18211   4.312   3.769   8.257 -0.0087 -0.3670 -0.3112
  162SAPE  H20S18212   4.317   3.912   8.147 -3.4553  0.5114  2.9635
  162SAPE  H20T18213   4.459   3.787   8.159 -1.1242 -1.1317  1.4947
  162SAPE   C3318214   4.965   2.842   6.699  0.5075 -0.3986 -0.3659
  162SAPE   H3X18215   4.979   2.910   6.612  1.4268 -1.3987 -1.0275
  162SAPE   H3Y18216   5.062   2.808   6.740  0.8956  1.1593  0.0770
  162SAPE   C3418217   4.897   2.931   6.803 -0.2400  0.3073 -0.8517
  162SAPE   H4X18218   4.869   2.861   6.885 -1.3525 -0.3770 -1.7817
  162SAPE   H4Y18219   4.800   2.965   6.763 -0.9704 -1.3685 -0.5869
  162SAPE   C3518220   4.986   3.049   6.842  0.6806 -0.2724  0.2986
  162SAPE   H5X18221   4.975   3.126   6.762  1.7849  0.4465  0.8205
  162SAPE   H5Y18222   5.094   3.024   6.843  0.6482 -0.3817  1.1617
  162SAPE   C3618223   4.956   3.110   6.982  0.5167  0.0530  0.6298
  162SAPE   H6X18224   4.855   3.157   6.975  1.0186  1.1456  0.5046
  162SAPE   H6Y18225   5.036   3.184   7.004  0.6704  0.3710 -0.9111
  162SAPE   C3718226   4.955   3.009   7.105 -0.1514  0.2014  0.7550
  162SAPE   H7X18227   5.054   2.964   7.125 -1.3260 -3.7628 -1.3695
  162SAPE   H7Y18228   4.873   2.938   7.080 -0.3634  0.8710 -0.5211
  162SAPE   C3818229   4.919   3.061   7.249 -0.2859  0.4142 -0.1094
  162SAPE   H8X18230   4.996   3.132   7.286 -1.0699  0.3410  1.7709
  162SAPE   H8Y18231   4.909   2.983   7.328 -1.2223  1.0075  0.3773
  162SAPE   C3918232   4.796   3.158   7.242  0.4338  0.3252 -0.0872
  162SAPE   H9X18233   4.716   3.105   7.186  0.2999  1.3879 -0.9360
  162SAPE   H9Y18234   4.818   3.257   7.196  2.1145  0.8887  1.7654
  162SAPE  C31018235   4.748   3.189   7.379  0.5675  0.4322 -0.1632
  162SAPE  H10X18236   4.739   3.097   7.442 -1.2391  1.0944  0.6146
  162SAPE  H10Y18237   4.646   3.233   7.373  0.7924  1.2866  1.5496
  162SAPE  C31118238   4.841   3.290   7.451  0.1264  0.1262 -0.1429
  162SAPE  H11X18239   4.833   3.386   7.397 -1.8971 -0.1546 -0.4090
  162SAPE  H11Y18240   4.946   3.254   7.454  0.8832  1.9348  5.0965
  162SAPE  C31218241   4.803   3.317   7.602 -0.4730 -0.0938  0.5471
  162SAPE  H12X18242   4.704   3.367   7.605 -0.9871 -0.9569 -0.9065
  162SAPE  H12Y18243   4.869   3.400   7.636  0.7184 -0.7906 -0.0042
  162SAPE  C31318244   4.824   3.200   7.695  0.0514 -0.1249 -0.4810
  162SAPE  H13X18245   4.932   3.174   7.703  0.1242 -0.0844 -1.2399
  162SAPE  H13Y18246   4.760   3.118   7.656 -0.7890  0.3050 -0.0322
  162SAPE  C31418247   4.788   3.231   7.836  0.4141  0.3542 -0.1576
  162SAPE  H14X18248   4.854   3.296   7.897  2.0658 -2.6679  1.4684
  162SAPE  H14Y18249   4.802   3.132   7.884  0.9856 -0.1122 -1.2606
  162SAPE  C31518250   4.648   3.276   7.848  0.2580  0.3162  0.0772
  162SAPE  H15X18251   4.582   3.218   7.779 -0.6399 -1.4595  2.3127
  162SAPE  H15Y18252   4.647   3.383   7.819  0.9805  0.2262 -0.2982
  162SAPE  C31618253   4.582   3.270   7.987 -0.1609  0.2089 -0.5563
  162SAPE  H16X18254   4.631   3.348   8.050 -2.6704  1.4074  0.0340
  162SAPE  H16Y18255   4.603   3.173   8.037  0.7694  0.5470 -0.2709
  162SAPE  C31718256   4.429   3.286   7.981 -1.1146  0.8859  0.2450
  162SAPE  H17X18257   4.383   3.234   7.894  0.4134 -0.8302  0.3840
  162SAPE  H17Y18258   4.411   3.395   7.972  0.5322  1.1027 -0.7444
  162SAPE  C31818259   4.363   3.244   8.109  0.3751  0.8586 -0.1529
  162SAPE  H18X18260   4.255   3.269   8.099  0.5818  1.8849  0.0579
  162SAPE  H18Y18261   4.397   3.282   8.208  0.5183 -0.9586  0.5220
  162SAPE  H18Z18262   4.377   3.135   8.119  1.7279  0.8293 -1.8541
  163SAPE     N18263   3.861   0.951   6.566 -0.1894  0.0756 -0.5024
  163SAPE   HN118264   3.889   1.044   6.604 -0.8898 -0.0529  0.3570
  163SAPE   HN218265   3.847   0.887   6.647  1.9208  1.5600  1.1554
  163SAPE   HN318266   3.937   0.928   6.498  0.1529 -0.6594  0.1209
  163SAPE   C1218267   3.743   0.969   6.483 -0.7303 -0.4404 -0.6096
  163SAPE  H12A18268   3.724   0.879   6.419  1.0001 -1.3960  0.1606
  163SAPE  H12B18269   3.755   1.062   6.423  1.3372  0.0514  0.4743
  163SAPE   C1118270   3.618   0.983   6.563 -0.1032  0.7832 -0.2457
  163SAPE  H11A18271   3.519   0.984   6.513 -0.4188  0.1373  0.3458
  163SAPE  H11B18272   3.634   1.079   6.617  1.3334  0.4286  0.0049
  163SAPE     P18273   3.527   0.748   6.647 -0.0095  0.0360 -0.1085
  163SAPE   O1318274   3.581   0.687   6.524 -0.1100 -0.0775 -0.0710
  163SAPE   O1418275   3.543   0.663   6.765 -0.2327 -0.4357  0.1943
  163SAPE   O1218276   3.606   0.884   6.668 -0.3778 -0.5818 -0.4544
  163SAPE   O1118277   3.377   0.793   6.621  0.3580 -0.2391  0.0272
  163SAPE    C118278   3.299   0.877   6.701  0.1906  0.6443  0.1864
  163SAPE    HA18279   3.368   0.939   6.761  1.2978 -0.0703 -0.3167
  163SAPE    HB18280   3.243   0.948   6.636 -1.6011 -0.6538  0.2433
  163SAPE    C218281   3.189   0.802   6.785 -0.2403 -0.9186  0.0523
  163SAPE    HS18282   3.134   0.878   6.846 -3.0142 -1.2686 -1.8539
  163SAPE   O2118283   3.253   0.701   6.865  0.3764 -0.0816 -0.7009
  163SAPE   C2118284   3.268   0.734   6.996 -0.0749  0.3561 -0.4812
  163SAPE   O2218285   3.253   0.845   7.043 -0.2846  0.1105  0.2527
  163SAPE   C2218286   3.298   0.602   7.080 -0.0620  0.3542  0.0230
  163SAPE   H2R18287   3.246   0.525   7.020 -1.9224  1.6454 -0.1337
  163SAPE   H2S18288   3.408   0.597   7.066 -0.3077 -1.1839 -1.6988
  163SAPE    C318289   3.074   0.744   6.695  0.3428  0.2190  0.6374
  163SAPE    HX18290   3.113   0.656   6.641 -0.4671  0.7347 -0.8626
  163SAPE    HY18291   3.038   0.819   6.621 -0.4607 -0.4494  0.3335
  163SAPE   O3118292   2.959   0.708   6.774  0.0423 -0.5025 -0.1601
  163SAPE   C3118293   2.873   0.805   6.800  0.2280 -0.2066  0.0527
  163SAPE   O3218294   2.888   0.927   6.777 -0.0624 -0.1413  0.2143
  163SAPE   C3218295   2.759   0.752   6.889  0.0157  0.9337  0.0551
  163SAPE   H2X18296   2.756   0.645   6.859  0.6416  0.9313 -0.0063
  163SAPE   H2Y18297   2.665   0.804   6.861 -2.4646 -2.1752  1.9769
  163SAPE   C2318298   3.268   0.608   7.228  0.2062 -0.7144  0.0697
  163SAPE   H3R18299   3.268   0.715   7.259 -0.7032 -0.8280  0.5091
  163SAPE   H3S18300   3.347   0.555   7.284 -0.7615  1.4174  3.7765
  163SAPE   C2418301   3.136   0.538   7.246 -0.2487  0.0471  0.4334
  163SAPE   H4R18302   3.146   0.427   7.239  0.5934  0.0417  1.4664
  163SAPE   H4S18303   3.057   0.561   7.171 -1.4184  1.4253  2.0305
  163SAPE   C2518304   3.081   0.580   7.373  0.0365  0.8310  0.1958
  163SAPE   H5R18305   2.994   0.643   7.349 -2.0750 -1.4168  1.4427
  163SAPE   C2618306   3.113   0.563   7.502  0.3881 -0.3557 -0.0167
  163SAPE   H6R18307   3.060   0.620   7.579 -0.3192 -0.7261 -0.2239
  163SAPE   C2718308   3.236   0.481   7.545 -0.4221 -0.6030 -0.5663
  163SAPE   H7R18309   3.272   0.412   7.465  0.3979 -1.4543  0.5037
  163SAPE   H7S18310   3.212   0.421   7.635 -0.1275 -0.7278 -0.5698
  163SAPE   C2818311   3.361   0.563   7.586  0.5293  0.2686 -0.3123
  163SAPE   H8R18312   3.387   0.654   7.530  0.1694  0.0779 -0.7964
  163SAPE   C2918313   3.449   0.549   7.689 -0.4979  0.4076 -0.7018
  163SAPE   H9R18314   3.538   0.614   7.687  0.5129 -0.9308 -3.0910
  163SAPE  C21018315   3.456   0.435   7.786 -0.0654  0.0640 -0.1276
  163SAPE  H10R18316   3.512   0.348   7.746  3.2741  2.5056 -1.1308
  163SAPE  H10S18317   3.352   0.399   7.802 -0.3779  0.5889 -0.8732
  163SAPE  C21118318   3.518   0.471   7.914 -0.0717 -0.1901  0.3768
  163SAPE  H11R18319   3.628   0.474   7.915 -0.0509  0.9472 -1.0343
  163SAPE  C21218320   3.457   0.477   8.029 -0.4846  0.0985  0.0629
  163SAPE  H12R18321   3.525   0.503   8.111 -0.3940 -0.7850  0.2779
  163SAPE  C21318322   3.311   0.457   8.055  0.0617 -0.2576 -0.1230
  163SAPE  H13R18323   3.302   0.355   8.098  0.0134 -1.3449 -2.5367
  163SAPE  H13S18324   3.249   0.455   7.962  0.4712 -0.4867 -0.3967
  163SAPE  C21418325   3.254   0.560   8.150  0.6546  0.1268 -0.1061
  163SAPE  H14R18326   3.185   0.633   8.105  0.7716  0.5482  0.3756
  163SAPE  C21518327   3.266   0.567   8.290 -0.0471 -0.0584  0.7894
  163SAPE  H15R18328   3.199   0.636   8.344  0.3140  0.0652  1.0789
  163SAPE  C21618329   3.337   0.476   8.384  0.6583 -0.7767 -0.0923
  163SAPE  H16R18330   3.392   0.536   8.460 -0.6387  1.0728 -0.5519
  163SAPE  H16S18331   3.423   0.434   8.328 -0.9028 -3.5221 -0.6118
  163SAPE  C21718332   3.240   0.378   8.449  0.2852 -0.4367  0.1003
  163SAPE  H17R18333   3.168   0.433   8.514  2.1768  0.8003  1.2473
  163SAPE  H17S18334   3.290   0.306   8.518  0.2013 -0.4315  0.1672
  163SAPE  C21818335   3.153   0.294   8.357  0.1380  0.1170  0.5841
  163SAPE  H18R18336   3.224   0.230   8.300 -1.0021  2.1717 -3.5256
  163SAPE  H18S18337   3.105   0.348   8.273  2.4045 -0.3067 -1.0940
  163SAPE  C21918338   3.042   0.216   8.426 -0.7386  0.4058 -0.3350
  163SAPE  H19R18339   2.991   0.276   8.504 -2.1883  1.4873 -2.0354
  163SAPE  H19S18340   3.091   0.132   8.479  1.5910  1.6900 -0.3236
  163SAPE  C22018341   2.937   0.165   8.323 -0.0379 -0.0432  0.6168
  163SAPE  H20R18342   2.848   0.121   8.372 -1.4978 -0.5745 -2.3004
  163SAPE  H20S18343   2.968   0.090   8.247 -1.6717 -0.7110  0.5642
  163SAPE  H20T18344   2.896   0.253   8.268  0.6799 -0.5758 -0.8020
  163SAPE   C3318345   2.777   0.767   7.035  0.5915  0.9996 -0.6127
  163SAPE   H3X18346   2.789   0.876   7.049 -2.2431  1.2964  0.0700
  163SAPE   H3Y18347   2.861   0.714   7.085 -0.1514  1.3222  1.0216
  163SAPE   C3418348   2.648   0.721   7.117  0.0663  0.6594  0.6097
  163SAPE   H4X18349   2.634   0.622   7.070 -0.4543  1.4021 -0.8601
  163SAPE   H4Y18350   2.559   0.785   7.101 -0.6286 -0.3926  0.1889
  163SAPE   C3518351   2.654   0.695   7.267 -0.8462 -0.6214  0.5147
  163SAPE   H5X18352   2.729   0.616   7.289  0.3747  0.1171 -0.8203
  163SAPE   H5Y18353   2.552   0.658   7.292 -0.9656 -1.2128 -0.7662
  163SAPE   C3618354   2.667   0.823   7.341  0.1690  0.5703 -0.3577
  163SAPE   H6X18355   2.588   0.896   7.313 -0.1308  0.3285 -0.1516
  163SAPE   H6Y18356   2.771   0.857   7.325 -0.4759  1.6838 -2.6166
  163SAPE   C3718357   2.645   0.807   7.496 -0.3651  0.4706  0.2546
  163SAPE   H7X18358   2.555   0.742   7.505  1.1009 -1.7943 -0.5553
  163SAPE   H7Y18359   2.618   0.907   7.536 -1.1104  0.0810  0.7287
  163SAPE   C3818360   2.766   0.752   7.573 -0.6136 -0.2918 -0.0669
  163SAPE   H8X18361   2.842   0.831   7.592 -0.7612 -0.4269  1.1743
  163SAPE   H8Y18362   2.818   0.667   7.526  0.0167  0.1740 -0.2259
  163SAPE   C3918363   2.714   0.683   7.705  0.1743  0.5229 -0.1167
  163SAPE   H9X18364   2.664   0.585   7.685  0.4022  0.1266  1.2156
  163SAPE   H9Y18365   2.643   0.754   7.753 -1.5116 -0.8570 -0.4463
  163SAPE  C31018366   2.835   0.648   7.795 -0.3224  0.5250 -0.1781
  163SAPE  H10X18367   2.906   0.733   7.804  0.5056 -0.2920  1.5339
  163SAPE  H10Y18368   2.878   0.549   7.767 -0.0056  0.6279 -0.0538
  163SAPE  C31118369   2.790   0.632   7.939  0.3780 -0.0135 -0.0628
  163SAPE  H11X18370   2.693   0.578   7.928 -1.5069  3.4863 -2.9626
  163SAPE  H11Y18371   2.767   0.735   7.971 -3.7194 -0.6603 -0.3834
  163SAPE  C31218372   2.900   0.567   8.019 -0.2007  0.0103 -0.3539
  163SAPE  H12X18373   2.984   0.638   8.007 -1.8001  1.7713 -1.8417
  163SAPE  H12Y18374   2.944   0.472   7.982  2.5106  1.1177 -0.1537
  163SAPE  C31318375   2.864   0.535   8.167 -0.1657 -0.6541 -0.0427
  163SAPE  H13X18376   2.955   0.502   8.222  0.6809  2.2180  0.4379
  163SAPE  H13Y18377   2.792   0.451   8.179  1.2404 -1.5187  3.5352
  163SAPE  C31418378   2.793   0.659   8.238 -0.1734 -0.4866  0.1304
  163SAPE  H14X18379   2.696   0.675   8.186 -1.1569 -0.0148  2.0192
  163SAPE  H14Y18380   2.843   0.758   8.230 -0.7446 -0.3147 -1.6539
  163SAPE  C31518381   2.764   0.633   8.382  0.5109 -0.4252 -0.8582
  163SAPE  H15X18382   2.854   0.635   8.447 -0.2145 -0.8411  0.1705
  163SAPE  H15Y18383   2.721   0.531   8.390 -0.6856  0.0550 -0.9150
  163SAPE  C31618384   2.658   0.721   8.440 -0.0112 -0.5911 -0.2528
  163SAPE  H16X18385   2.564   0.707   8.382 -0.1267  1.0705 -0.5091
  163SAPE  H16Y18386   2.693   0.825   8.425 -0.6303 -0.1281  1.3207
  163SAPE  C31718387   2.634   0.709   8.597  0.3947 -0.2114  0.0231
  163SAPE  H17X18388   2.550   0.781   8.612  0.6972 -0.1570  1.5695
  163SAPE  H17Y18389   2.718   0.754   8.653  0.1311 -0.3998  0.5718
  163SAPE  C31818390   2.600   0.573   8.652 -0.1930 -0.4500  0.2097
  163SAPE  H18X18391   2.516   0.539   8.589  0.8550  1.4159 -2.3831
  163SAPE  H18Y18392   2.587   0.572   8.763 -1.5454  0.8113  0.0930
  163SAPE  H18Z18393   2.684   0.509   8.618  2.1059  1.7540  1.3916
  164SAPE     N18394   5.963   5.219   6.270 -0.2472  0.0419  0.5360
  164SAPE   HN118395   5.870   5.254   6.301 -1.0527 -1.1143 -0.4804
  164SAPE   HN218396   5.944   5.154   6.192  0.7040 -2.0522  1.9509
  164SAPE   HN318397   6.007   5.152   6.336  0.8318 -0.5052 -0.7145
  164SAPE   C1218398   6.060   5.331   6.241  0.3562  0.1662 -0.0851
  164SAPE  H12A18399   6.159   5.305   6.286  1.6749 -1.3729 -3.5154
  164SAPE  H12B18400   6.005   5.417   6.284 -2.3903 -0.6193 -1.7934
  164SAPE   C1118401   6.093   5.353   6.091  0.4794  0.2277 -0.2686
  164SAPE  H11A18402   6.151   5.446   6.070 -0.7175  1.0463 -0.0015
  164SAPE  H11B18403   5.994   5.368   6.044  0.3537  0.8036  0.1763
  164SAPE     P18404   6.287   5.262   5.948  0.2967  0.0339 -0.0018
  164SAPE   O1318405   6.355   5.135   5.938 -0.3732  0.0395  0.3307
  164SAPE   O1418406   6.246   5.318   5.811 -0.7188  0.5499  0.2340
  164SAPE   O1218407   6.156   5.238   6.037  0.1176 -0.3811  0.6629
  164SAPE   O1118408   6.360   5.377   6.024  0.1285 -0.4768  0.6435
  164SAPE    C118409   6.504   5.386   6.024 -0.3175  0.5399  0.3164
  164SAPE    HA18410   6.539   5.365   5.921 -0.7322  0.4128  0.2029
  164SAPE    HB18411   6.527   5.493   6.043 -3.1424  1.6776 -2.0308
  164SAPE    C218412   6.575   5.306   6.141 -0.1039  0.0070 -0.0397
  164SAPE    HS18413   6.579   5.197   6.121  0.2430 -0.3875  1.9470
  164SAPE   O2118414   6.494   5.331   6.259 -0.2758  0.0839 -0.1791
  164SAPE   C2118415   6.505   5.238   6.358 -0.3782  0.1676  0.6506
  164SAPE   O2218416   6.588   5.151   6.357  0.1751 -0.3016  0.1274
  164SAPE   C2218417   6.392   5.251   6.462  0.5483  0.1703 -0.9525
  164SAPE   H2R18418   6.381   5.359   6.487 -0.9517 -0.1502 -0.0829
  164SAPE   H2S18419   6.297   5.224   6.412  0.6906 -0.1895 -1.0313
  164SAPE    C318420   6.727   5.347   6.164 -0.3889 -1.0388 -1.0582
  164SAPE    HX18421   6.779   5.326   6.068  0.7005  0.0782 -0.7393
  164SAPE    HY18422   6.767   5.272   6.236  0.5010 -0.0101 -0.4512
  164SAPE   O3118423   6.752   5.488   6.198  0.2557 -0.0526 -0.5017
  164SAPE   C3118424   6.777   5.498   6.330  0.8570 -0.5222  0.8797
  164SAPE   O3218425   6.757   5.413   6.415  0.7487 -0.3184  0.4023
  164SAPE   C3218426   6.810   5.642   6.360  0.3552 -0.2738 -0.4669
  164SAPE   H2X18427   6.721   5.707   6.349 -0.3032 -1.3043 -1.3842
  164SAPE   H2Y18428   6.885   5.674   6.285  0.8069 -0.6643 -0.1899
  164SAPE   C2318429   6.400   5.155   6.587  0.2600  0.1074  0.1529
  164SAPE   H3R18430   6.409   5.049   6.556 -1.4554 -1.0273  3.1122
  164SAPE   H3S18431   6.296   5.159   6.627 -0.0085  1.5906 -0.5996
  164SAPE   C2418432   6.519   5.179   6.677  0.1812 -0.9034 -0.6030
  164SAPE   H4R18433   6.617   5.151   6.632  0.4420 -1.2300  0.1485
  164SAPE   H4S18434   6.512   5.124   6.773 -2.0557 -1.0881 -0.8108
  164SAPE   C2518435   6.547   5.325   6.712 -0.1559  0.0287  0.0785
  164SAPE   H5R18436   6.584   5.389   6.631 -2.6502  0.5034 -0.7734
  164SAPE   C2618437   6.524   5.387   6.831  0.2081  0.0658 -0.4056
  164SAPE   H6R18438   6.536   5.496   6.835 -0.5623  0.2103 -1.4755
  164SAPE   C2718439   6.470   5.347   6.964  0.2229  0.6660  0.3746
  164SAPE   H7R18440   6.400   5.263   6.943  0.7014  0.5624 -0.9471
  164SAPE   H7S18441   6.410   5.423   7.018  1.2741  1.6870  0.1278
  164SAPE   C2818442   6.578   5.284   7.045 -0.0506 -0.8017 -0.3157
  164SAPE   H8R18443   6.600   5.181   7.013 -1.7290 -1.6555  1.0779
  164SAPE   C2918444   6.628   5.352   7.152  0.4887  0.4716  0.1881
  164SAPE   H9R18445   6.701   5.291   7.208 -1.0176 -0.2130  1.4856
  164SAPE  C21018446   6.607   5.487   7.216 -0.3826  0.7957 -0.4890
  164SAPE  H10R18447   6.566   5.555   7.138 -0.9945 -0.1278 -0.9879
  164SAPE  H10S18448   6.703   5.533   7.247  0.5224 -1.8274  0.8523
  164SAPE  C21118449   6.518   5.476   7.338  0.0967 -0.1670  0.9327
  164SAPE  H11R18450   6.417   5.518   7.327  0.0072 -0.3331  1.1077
  164SAPE  C21218451   6.559   5.440   7.459  0.4814 -0.5813 -1.2439
  164SAPE  H12R18452   6.488   5.443   7.543  2.2436  2.1553  0.3173
  164SAPE  C21318453   6.697   5.393   7.494  0.5213 -0.0251  0.0178
  164SAPE  H13R18454   6.768   5.423   7.415  0.5460  0.5068  0.2413
  164SAPE  H13S18455   6.711   5.283   7.504  1.4082 -0.1550 -2.2495
  164SAPE  C21418456   6.728   5.469   7.617  0.0495  0.1790 -0.1816
  164SAPE  H14R18457   6.693   5.420   7.709 -1.3805 -0.8165 -1.2178
  164SAPE  C21518458   6.788   5.594   7.623  0.6933 -0.6513 -0.0582
  164SAPE  H15R18459   6.825   5.636   7.718  1.6116 -0.9696 -0.2623
  164SAPE  C21618460   6.836   5.664   7.506 -0.8880 -0.4174 -0.0185
  164SAPE  H16R18461   6.820   5.772   7.528  1.9292  0.1156 -0.1433
  164SAPE  H16S18462   6.791   5.645   7.406  0.0092  2.7436 -1.1323
  164SAPE  C21718463   6.988   5.640   7.493  0.4349  0.1006  0.0225
  164SAPE  H17R18464   7.038   5.687   7.580  0.6509 -1.2371  0.6524
  164SAPE  H17S18465   7.030   5.696   7.406  0.1371  2.3402  1.2391
  164SAPE  C21818466   7.033   5.495   7.466  0.0386 -0.3253  0.1272
  164SAPE  H18R18467   6.975   5.461   7.378 -1.4064 -0.6137  1.1424
  164SAPE  H18S18468   7.005   5.433   7.555  0.8758 -0.9969 -0.0590
  164SAPE  C21918469   7.184   5.477   7.435 -0.6129  0.0579  0.6888
  164SAPE  H19R18470   7.247   5.514   7.519 -0.1589  0.3914  0.2086
  164SAPE  H19S18471   7.207   5.547   7.352  0.3615 -3.0818 -1.9095
  164SAPE  C22018472   7.227   5.338   7.401 -0.3206 -0.0116  0.5355
  164SAPE  H20R18473   7.202   5.273   7.487  0.1098 -0.5566  0.2579
  164SAPE  H20S18474   7.336   5.324   7.382 -0.5420  0.1820 -1.0559
  164SAPE  H20T18475   7.166   5.305   7.314  0.0336  0.6770  0.0130
  164SAPE   C3318476   6.868   5.664   6.500 -1.1113 -0.8187 -0.4328
  164SAPE   H3X18477   6.902   5.770   6.510  3.2377 -2.2374  4.1846
  164SAPE   H3Y18478   6.961   5.603   6.506 -2.1702 -2.3306  1.7646
  164SAPE   C3418479   6.777   5.628   6.624 -0.5731 -0.7686  0.2758
  164SAPE   H4X18480   6.743   5.522   6.629  0.8907 -1.2220  1.2768
  164SAPE   H4Y18481   6.685   5.689   6.612 -0.7915 -1.4612 -2.2027
  164SAPE   C3518482   6.858   5.680   6.745 -0.1288 -0.1319 -0.3608
  164SAPE   H5X18483   6.872   5.789   6.730 -1.7241  0.2285  0.5471
  164SAPE   H5Y18484   6.959   5.633   6.742 -0.7044 -1.5371  1.0786
  164SAPE   C3618485   6.780   5.648   6.876  0.1351  0.1606  0.4178
  164SAPE   H6X18486   6.768   5.542   6.907 -2.1425  0.4358  0.6150
  164SAPE   H6Y18487   6.680   5.697   6.873 -0.8032 -1.6154  1.0644
  164SAPE   C3718488   6.850   5.704   7.006  0.5505 -0.5118 -0.5593
  164SAPE   H7X18489   6.959   5.686   7.004  0.4506 -1.3308  0.6660
  164SAPE   H7Y18490   6.812   5.642   7.089 -0.2733 -3.9298 -3.2463
  164SAPE   C3818491   6.812   5.851   7.043 -0.0849  0.8168 -0.3735
  164SAPE   H8X18492   6.702   5.871   7.044  0.1126  1.9742  0.6722
  164SAPE   H8Y18493   6.869   5.900   6.961  2.8670 -2.5431 -0.5584
  164SAPE   C3918494   6.861   5.891   7.183 -0.3455 -0.0792  0.3568
  164SAPE   H9X18495   6.969   5.868   7.190 -0.0800  1.2453  0.9347
  164SAPE   H9Y18496   6.810   5.824   7.256 -2.2018 -0.6700 -1.3839
  164SAPE  C31018497   6.843   6.043   7.201 -0.1073 -0.4506  0.4361
  164SAPE  H10X18498   6.758   6.075   7.137  1.9332 -0.1660 -2.3435
  164SAPE  H10Y18499   6.937   6.081   7.155  0.3740 -0.3162  1.4985
  164SAPE  C31118500   6.814   6.087   7.347 -0.6735  0.0701  0.0704
  164SAPE  H11X18501   6.821   6.197   7.360 -1.2156 -0.0390  1.5248
  164SAPE  H11Y18502   6.892   6.029   7.401 -1.6176 -2.7408 -1.3533
  164SAPE  C31218503   6.682   6.034   7.391  0.1144 -0.0824  0.1385
  164SAPE  H12X18504   6.679   5.923   7.386  1.4250 -0.0998 -1.5190
  164SAPE  H12Y18505   6.601   6.073   7.326 -0.2769 -1.5697 -0.3072
  164SAPE  C31318506   6.641   6.075   7.535  0.1202 -0.0821  0.7479
  164SAPE  H13X18507   6.535   6.052   7.556 -0.6778  2.2179 -0.3883
  164SAPE  H13Y18508   6.662   6.184   7.526  2.1145 -0.5566 -1.1917
  164SAPE  C31418509   6.735   6.025   7.644 -0.1241  0.0681 -0.1388
  164SAPE  H14X18510   6.841   6.045   7.617 -0.2751  2.7115  0.8881
  164SAPE  H14Y18511   6.720   5.916   7.657 -1.0163  0.2768  0.6806
  164SAPE  C31518512   6.702   6.094   7.778  0.7529  0.1353 -0.0646
  164SAPE  H15X18513   6.598   6.067   7.806  0.8563  2.7616  3.4956
  164SAPE  H15Y18514   6.687   6.204   7.778 -0.6103 -0.0218 -1.0219
  164SAPE  C31618515   6.797   6.041   7.890 -0.2564  0.1776 -0.4316
  164SAPE  H16X18516   6.888   6.104   7.880 -0.7320  0.6247 -2.2774
  164SAPE  H16Y18517   6.809   5.931   7.880  2.0227  0.2919  0.6165
  164SAPE  C31718518   6.742   6.075   8.028 -0.4154 -0.1151  0.5742
  164SAPE  H17X18519   6.656   6.009   8.051 -1.8519  0.6423 -2.2322
  164SAPE  H17Y18520   6.705   6.180   8.036 -1.7448 -0.6576  2.0570
  164SAPE  C31818521   6.854   6.060   8.130  0.0987  0.2575  0.1041
  164SAPE  H18X18522   6.940   6.128   8.108  1.0158 -0.5830  0.9850
  164SAPE  H18Y18523   6.892   5.956   8.144 -0.2666  0.2948  1.5282
  164SAPE  H18Z18524   6.820   6.092   8.231 -2.5250  1.3274 -1.0335
  165SAPE     N18525   0.100   1.124   6.374 -0.1151 -0.1672  0.1291
  165SAPE   HN118526   0.065   1.138   6.471  0.1651 -0.5768  0.2925
  165SAPE   HN218527   0.082   1.211   6.319  0.5415 -0.3655 -0.4149
  165SAPE   HN318528   0.056   1.041   6.328  2.3016 -1.2780 -0.3004
  165SAPE   C1218529   0.244   1.105   6.382 -0.0715 -0.3046 -0.2280
  165SAPE  H12A18530   0.279   1.054   6.290 -1.1643  1.3529 -1.6165
  165SAPE  H12B18531   0.266   1.033   6.464 -0.5026 -3.8573 -2.9542
  165SAPE   C1118532   0.300   1.243   6.393  0.0897  0.4111 -0.3058
  165SAPE  H11A18533   0.411   1.243   6.386  0.1239  0.2238  0.1706
  165SAPE  H11B18534   0.271   1.287   6.491  0.1633 -1.6117  0.6742
  165SAPE     P18535   0.331   1.462   6.261  0.1528  0.5381  0.0864
  165SAPE   O1318536   0.455   1.420   6.196  0.0441  0.0860 -0.0545
  165SAPE   O1418537   0.239   1.547   6.179 -0.2416  0.0898 -0.4338
  165SAPE   O1218538   0.247   1.333   6.295  0.2962 -0.4666  0.0209
  165SAPE   O1118539   0.365   1.521   6.404  0.2805 -0.4355 -0.0325
  165SAPE    C118540   0.394   1.659   6.425 -0.4163 -0.0978 -0.3734
  165SAPE    HA18541   0.486   1.663   6.487 -1.5308 -0.2894  1.3848
  165SAPE    HB18542   0.412   1.720   6.334 -1.9638  0.3336 -0.4276
  165SAPE    C218543   0.301   1.723   6.534  0.1835 -0.1126  1.1920
  165SAPE    HS18544   0.362   1.802   6.583  5.6139 -2.1576 -1.4212
  165SAPE   O2118545   0.251   1.623   6.625 -0.0194 -0.0991  0.4789
  165SAPE   C2118546   0.344   1.574   6.694 -1.0544  0.2080 -1.1533
  165SAPE   O2218547   0.457   1.608   6.706 -0.0708  0.2433  0.6136
  165SAPE   C2218548   0.282   1.457   6.776 -0.0493 -0.2093  0.2221
  165SAPE   H2R18549   0.223   1.390   6.710 -0.6097 -0.8017  1.2866
  165SAPE   H2S18550   0.371   1.408   6.822  2.2064  1.6868 -1.8225
  165SAPE    C318551   0.179   1.783   6.454 -0.3929 -0.3273  0.0028
  165SAPE    HX18552   0.158   1.711   6.372  1.0319 -0.0010 -0.6999
  165SAPE    HY18553   0.211   1.885   6.421 -0.0265 -0.5706 -0.4134
  165SAPE   O3118554   0.066   1.788   6.542 -0.0424  0.0246 -0.0399
  165SAPE   C3118555   0.045   1.903   6.603 -0.0410 -0.0053  0.4551
  165SAPE   O3218556   0.089   2.012   6.573 -0.4579  0.6126 -0.5944
  165SAPE   C3218557  -0.050   1.869   6.724  0.1820  0.2317  0.5017
  165SAPE   H2X18558  -0.011   1.767   6.746  0.6281  0.0809 -0.8840
  165SAPE   H2Y18559  -0.155   1.861   6.689  1.3916 -1.1686 -3.3226
  165SAPE   C2318560   0.186   1.510   6.881  0.2896  0.4977  0.7031
  165SAPE   H3R18561   0.131   1.427   6.929 -1.1127  0.6626 -0.5526
  165SAPE   H3S18562   0.111   1.574   6.829  0.0708 -2.4951 -3.0859
  165SAPE   C2418563   0.252   1.589   6.998  0.0538  0.2582 -0.1715
  165SAPE   H4R18564   0.310   1.672   6.951  0.3772  0.3362  0.3641
  165SAPE   H4S18565   0.326   1.517   7.039  0.9266  1.6008  0.6728
  165SAPE   C2518566   0.155   1.646   7.098 -0.2491 -0.2390 -0.1574
  165SAPE   H5R18567   0.059   1.674   7.052  0.4942 -0.4125 -1.9289
  165SAPE   C2618568   0.180   1.651   7.228  0.3689  0.2593  0.1918
  165SAPE   H6R18569   0.093   1.668   7.293  0.1857 -4.5029  1.5581
  165SAPE   C2718570   0.301   1.599   7.309  0.1291 -0.6006 -0.4086
  165SAPE   H7R18571   0.380   1.548   7.250  0.5741 -1.0740  0.5668
  165SAPE   H7S18572   0.261   1.512   7.366 -2.3664 -0.7977 -2.2854
  165SAPE   C2818573   0.362   1.698   7.406 -0.1485  0.3828  0.0779
  165SAPE   H8R18574   0.407   1.784   7.355 -0.7278  0.2144 -0.7349
  165SAPE   C2918575   0.383   1.674   7.537 -0.4933  0.3625  0.1189
  165SAPE   H9R18576   0.441   1.750   7.591 -0.2003  0.5852 -0.5087
  165SAPE  C21018577   0.351   1.553   7.627  0.7861  0.7626 -0.5011
  165SAPE  H10R18578   0.433   1.541   7.701  1.1518  1.4469 -0.7876
  165SAPE  H10S18579   0.351   1.459   7.568 -1.0083  0.5205 -0.1640
  165SAPE  C21118580   0.217   1.577   7.691  1.3120  0.4232 -0.3523
  165SAPE  H11R18581   0.132   1.593   7.622 -0.7689 -1.8292  1.5126
  165SAPE  C21218582   0.175   1.580   7.829 -0.8867  0.3309  0.2018
  165SAPE  H12R18583   0.066   1.567   7.835 -0.8140 -1.4212 -1.4017
  165SAPE  C21318584   0.246   1.553   7.967  0.3793 -0.1570 -0.2689
  165SAPE  H13R18585   0.339   1.614   7.967  0.1100  0.6860  4.6498
  165SAPE  H13S18586   0.278   1.446   7.973 -0.4179 -0.4463 -1.0463
  165SAPE  C21418587   0.180   1.601   8.091  0.0741 -0.4127  0.4182
  165SAPE  H14R18588   0.153   1.707   8.096 -0.4491 -0.5506  0.6225
  165SAPE  C21518589   0.128   1.521   8.186 -0.2609 -0.1041  0.6230
  165SAPE  H15R18590   0.069   1.564   8.268 -0.8313  0.3952 -0.0308
  165SAPE  C21618591   0.137   1.365   8.189 -0.1837 -1.0888  0.1751
  165SAPE  H16R18592   0.109   1.332   8.087  0.0354  2.6807 -1.2449
  165SAPE  H16S18593   0.057   1.328   8.258 -0.4036 -0.5043  0.2380
  165SAPE  C21718594   0.274   1.310   8.237  0.6727 -0.5825  0.9967
  165SAPE  H17R18595   0.292   1.354   8.337  1.5747  2.3097 -0.3357
  165SAPE  H17S18596   0.355   1.364   8.183 -1.2416  1.0514 -0.3689
  165SAPE  C21818597   0.294   1.157   8.234  0.6454 -0.0665  0.0398
  165SAPE  H18R18598   0.197   1.107   8.253  0.1868  1.1069  0.9611
  165SAPE  H18S18599   0.358   1.143   8.324  0.4805  1.2229  0.3808
  165SAPE  C21918600   0.371   1.120   8.103  0.0167  0.0911  0.0125
  165SAPE  H19R18601   0.448   1.195   8.075  1.7397 -2.6016 -3.1194
  165SAPE  H19S18602   0.306   1.124   8.013 -0.7436 -1.1092  0.4855
  165SAPE  C22018603   0.437   0.984   8.115  0.1053 -0.0306 -0.2115
  165SAPE  H20R18604   0.504   0.973   8.203  0.5691 -0.2304 -0.5881
  165SAPE  H20S18605   0.482   0.955   8.017 -0.4388 -0.2374 -0.3998
  165SAPE  H20T18606   0.356   0.910   8.128  0.1825 -0.1715 -0.5283
  165SAPE   C3318607  -0.044   1.961   6.844 -0.5318 -0.3908 -1.3654
  165SAPE   H3X18608  -0.058   2.066   6.809 -1.8113 -0.1701 -0.2644
  165SAPE   H3Y18609   0.053   1.940   6.893 -0.9350  1.9116  0.6307
  165SAPE   C3418610  -0.159   1.940   6.944 -0.4305  0.3875 -0.6036
  165SAPE   H4X18611  -0.157   1.833   6.972  3.2240  0.8996  1.8145
  165SAPE   H4Y18612  -0.264   1.958   6.913 -0.1045  1.6256 -1.0656
  165SAPE   C3518613  -0.145   2.014   7.075 -0.6868 -0.1037  0.3225
  165SAPE   H5X18614  -0.246   2.034   7.116 -1.1402 -0.5408 -0.5561
  165SAPE   H5Y18615  -0.100   2.113   7.054  0.2168 -0.6305 -0.3091
  165SAPE   C3618616  -0.049   1.945   7.182  0.7003  0.9484 -0.0410
  165SAPE   H6X18617   0.056   1.964   7.151  1.4296  1.8873  2.7081
  165SAPE   H6Y18618  -0.055   1.834   7.187  0.5672  0.9864  0.7836
  165SAPE   C3718619  -0.063   2.006   7.319  0.1302 -0.0710 -0.6235
  165SAPE   H7X18620  -0.165   2.048   7.332  0.6962  0.6943  1.6585
  165SAPE   H7Y18621  -0.006   2.100   7.333 -1.0119  0.4660  0.5617
  165SAPE   C3818622  -0.023   1.918   7.438 -0.5205  0.8598  0.6484
  165SAPE   H8X18623   0.083   1.888   7.428 -0.0628  3.0829 -2.2735
  165SAPE   H8Y18624  -0.084   1.826   7.426 -0.9940  1.2022  0.4004
  165SAPE   C3918625  -0.044   1.986   7.569  0.3654  0.0890 -0.0734
  165SAPE   H9X18626  -0.153   2.005   7.581  0.4555  0.2987  0.4739
  165SAPE   H9Y18627   0.000   2.088   7.563 -0.6866  0.5654 -0.0297
  165SAPE  C31018628   0.006   1.915   7.694 -0.4172  0.2656  0.6121
  165SAPE  H10X18629   0.116   1.926   7.679 -0.3885 -1.2738 -0.5211
  165SAPE  H10Y18630  -0.020   1.807   7.700  2.5746 -0.6437 -0.7974
  165SAPE  C31118631  -0.036   1.996   7.813 -0.3439  0.0381 -0.1029
  165SAPE  H11X18632  -0.147   1.989   7.817 -0.2289 -3.3556  3.6223
  165SAPE  H11Y18633  -0.000   2.100   7.802 -0.0098 -0.1901 -1.4067
  165SAPE  C31218634   0.002   1.932   7.943 -0.1519  0.3162 -0.1296
  165SAPE  H12X18635   0.111   1.909   7.943 -0.1976 -0.1171 -2.2609
  165SAPE  H12Y18636  -0.059   1.840   7.932 -1.8179  1.5409 -1.6983
  165SAPE  C31318637  -0.045   2.018   8.063 -1.0323  0.7079  0.2962
  165SAPE  H13X18638   0.009   2.115   8.062 -2.0712  1.3062  1.2188
  165SAPE  H13Y18639   0.006   1.968   8.148 -0.0146 -0.8602 -1.1662
  165SAPE  C31418640  -0.194   2.038   8.093 -0.3367 -0.2410 -0.2570
  165SAPE  H14X18641  -0.242   1.938   8.105 -0.4256 -0.5352 -2.5157
  165SAPE  H14Y18642  -0.242   2.085   8.005  1.2814 -0.3248 -1.2376
  165SAPE  C31518643  -0.215   2.131   8.210 -0.4900 -0.1820  0.4443
  165SAPE  H15X18644  -0.165   2.091   8.301  2.0662 -2.5072 -1.7986
  165SAPE  H15Y18645  -0.325   2.141   8.226 -0.8280 -1.9416 -0.5643
  165SAPE  C31618646  -0.199   2.277   8.167  0.1308 -0.1892  0.0814
  165SAPE  H16X18647  -0.292   2.300   8.113 -0.4964 -0.2844  1.0917
  165SAPE  H16Y18648  -0.110   2.277   8.101  0.2504 -2.3009  0.1860
  165SAPE  C31718649  -0.178   2.369   8.292  0.4084  0.1155  0.1802
  165SAPE  H17X18650  -0.137   2.465   8.256  0.9034 -0.3735 -0.5805
  165SAPE  H17Y18651  -0.088   2.334   8.347 -0.1394 -0.3727  0.7819
  165SAPE  C31818652  -0.288   2.379   8.393  0.4830 -1.6520 -0.9350
  165SAPE  H18X18653  -0.313   2.283   8.443 -2.6210 -1.1392 -1.3117
  165SAPE  H18Y18654  -0.383   2.411   8.344  1.6056  0.2316 -2.0101
  165SAPE  H18Z18655  -0.259   2.447   8.476 -0.4673  1.0003 -2.6608
  166SAPE     N18656   0.391   5.069   5.641 -0.2084 -0.4783  0.1439
  166SAPE   HN118657   0.424   5.113   5.552  0.9324 -0.4916  0.5474
  166SAPE   HN218658   0.461   5.081   5.717 -0.2822 -0.7914  0.2604
  166SAPE   HN318659   0.386   4.969   5.613 -0.0140 -0.5324  0.2974
  166SAPE   C1218660   0.256   5.134   5.671 -0.5010 -0.0093  0.1080
  166SAPE  H12A18661   0.235   5.202   5.586  2.1338  1.4460  0.5395
  166SAPE  H12B18662   0.270   5.198   5.761  0.0719  0.3426 -0.2295
  166SAPE   C1118663   0.139   5.032   5.679 -0.2001  0.6772 -0.3372
  166SAPE  H11A18664   0.157   4.942   5.617  2.5298  0.4725  0.6073
  166SAPE  H11B18665   0.048   5.071   5.628 -1.0874 -0.2483  0.4899
  166SAPE     P18666   0.006   5.035   5.916 -0.5459  0.1703 -0.3912
  166SAPE   O1318667  -0.055   5.162   5.871  0.0249 -0.3233  0.0958
  166SAPE   O1418668  -0.077   4.914   5.923 -0.0743 -0.1456  0.0641
  166SAPE   O1218669   0.126   5.004   5.820  0.1662  0.3470 -0.6815
  166SAPE   O1118670   0.081   5.059   6.056  0.5449  0.1260  0.1351
  166SAPE    C118671   0.208   5.116   6.074  1.0238 -0.6099  0.0892
  166SAPE    HA18672   0.259   5.136   5.977 -0.4617  0.8729 -0.4329
  166SAPE    HB18673   0.210   5.223   6.107  2.0771  0.0446 -1.9298
  166SAPE    C218674   0.290   5.025   6.170 -0.8319 -0.1905 -0.5863
  166SAPE    HS18675   0.294   4.922   6.130  0.4303  0.5219 -2.3846
  166SAPE   O2118676   0.236   5.036   6.304 -0.1709  0.5734 -0.4619
  166SAPE   C2118677   0.224   4.919   6.376  0.2804  1.0885  0.3525
  166SAPE   O2218678   0.248   4.807   6.334 -0.3952 -0.3879  0.2862
  166SAPE   C2218679   0.145   4.948   6.505 -0.4452 -0.2527  0.4098
  166SAPE   H2R18680   0.211   4.975   6.590 -2.1579  1.1863  1.3558
  166SAPE   H2S18681   0.085   5.038   6.480 -1.2501 -0.9134 -0.1049
  166SAPE    C318682   0.433   5.083   6.162 -0.4549  0.2487 -0.3218
  166SAPE    HX18683   0.443   5.194   6.161  0.1638  0.1924 -0.8697
  166SAPE    HY18684   0.475   5.049   6.065 -0.4762 -3.1423  0.7110
  166SAPE   O3118685   0.509   5.041   6.277 -0.0499  0.1518  0.6646
  166SAPE   C3118686   0.562   4.918   6.269 -0.0223 -0.0400  0.0119
  166SAPE   O3218687   0.549   4.838   6.179  0.4824 -0.6482 -0.2053
  166SAPE   C3218688   0.645   4.889   6.395 -0.1721 -0.4094 -0.1418
  166SAPE   H2X18689   0.632   4.981   6.456 -0.0103 -0.0599 -0.6364
  166SAPE   H2Y18690   0.750   4.895   6.360 -0.4751 -3.1204 -1.7439
  166SAPE   C2318691   0.044   4.840   6.541  0.0224 -0.1150  0.9797
  166SAPE   H3R18692   0.085   4.737   6.553  1.0987  0.3820  1.7156
  166SAPE   H3S18693  -0.031   4.837   6.459  0.6040 -1.4598  0.4571
  166SAPE   C2418694  -0.035   4.869   6.668 -0.1477 -0.3458  0.9432
  166SAPE   H4R18695  -0.068   4.975   6.660  0.5584 -0.1757  0.0982
  166SAPE   H4S18696   0.046   4.867   6.745  0.8009 -1.0578 -0.0505
  166SAPE   C2518697  -0.145   4.777   6.699 -0.1598  0.7011  0.1873
  166SAPE   H5R18698  -0.172   4.714   6.613  1.4173  2.8431 -2.0024
  166SAPE   C2618699  -0.208   4.762   6.814  0.7317 -0.3201  0.0572
  166SAPE   H6R18700  -0.299   4.701   6.814  0.5640 -0.1882 -2.3608
  166SAPE   C2718701  -0.177   4.853   6.933  0.4014 -0.2100 -0.1605
  166SAPE   H7R18702  -0.197   4.960   6.912  1.4862  0.3152  1.3240
  166SAPE   H7S18703  -0.067   4.846   6.945  0.3833 -1.0185 -0.4284
  166SAPE   C2818704  -0.250   4.803   7.058  0.3152  0.0145 -0.0635
  166SAPE   H8R18705  -0.202   4.719   7.110 -0.8818 -0.0355  0.9958
  166SAPE   C2918706  -0.378   4.826   7.092 -0.1285  0.0638 -0.7300
  166SAPE   H9R18707  -0.425   4.781   7.180  0.4955 -2.3940 -1.5684
  166SAPE  C21018708  -0.467   4.923   7.020 -0.2907  0.3916  0.1395
  166SAPE  H10R18709  -0.423   4.950   6.922 -0.9041 -1.2348 -0.6163
  166SAPE  H10S18710  -0.452   5.018   7.076  1.6143 -0.0042  0.3662
  166SAPE  C21118711  -0.611   4.884   7.009  0.0450 -0.6362  0.2716
  166SAPE  H11R18712  -0.650   4.886   6.907  0.3646 -0.3103  0.1504
  166SAPE  C21218713  -0.696   4.861   7.110 -0.5209  0.3140 -0.6013
  166SAPE  H12R18714  -0.796   4.827   7.080  0.5950 -0.2125 -4.2075
  166SAPE  C21318715  -0.671   4.863   7.264  0.1266 -0.0467  0.1210
  166SAPE  H13R18716  -0.761   4.900   7.317 -0.5811 -1.2316 -0.1943
  166SAPE  H13S18717  -0.586   4.928   7.291  0.6150 -0.1888 -0.9877
  166SAPE  C21418718  -0.646   4.728   7.316 -0.3286 -0.0844  0.4921
  166SAPE  H14R18719  -0.672   4.637   7.259  0.3743 -1.9057  2.9039
  166SAPE  C21518720  -0.584   4.707   7.436  0.2949 -0.1715  0.0167
  166SAPE  H15R18721  -0.565   4.607   7.478 -0.1855  0.7895  2.7314
  166SAPE  C21618722  -0.534   4.807   7.539 -0.4282 -0.0829 -0.1854
  166SAPE  H16R18723  -0.546   4.906   7.490 -4.0297 -0.5646 -0.5894
  166SAPE  H16S18724  -0.431   4.787   7.574  0.1998 -0.2154 -2.0356
  166SAPE  C21718725  -0.625   4.808   7.661  0.1943 -0.3340 -0.3304
  166SAPE  H17R18726  -0.624   4.706   7.705 -0.6577 -0.7091 -1.1413
  166SAPE  H17S18727  -0.735   4.818   7.643 -0.7568 -2.9744  3.0988
  166SAPE  C21818728  -0.580   4.910   7.768 -0.2654  0.0484 -0.3374
  166SAPE  H18R18729  -0.580   5.013   7.725 -1.1534  0.3791  0.3885
  166SAPE  H18S18730  -0.476   4.893   7.803 -0.3626  0.5188  0.2090
  166SAPE  C21918731  -0.684   4.918   7.883  0.0427 -0.2627  0.5395
  166SAPE  H19R18732  -0.639   4.950   7.979  1.1847  0.2583 -0.1528
  166SAPE  H19S18733  -0.718   4.813   7.898  1.0931 -0.5062  1.3404
  166SAPE  C22018734  -0.802   5.011   7.851 -0.3602 -0.1991 -0.6852
  166SAPE  H20R18735  -0.851   5.001   7.752  2.0217  1.8214 -2.1685
  166SAPE  H20S18736  -0.776   5.119   7.858 -0.2552 -0.2277 -0.6395
  166SAPE  H20T18737  -0.882   4.996   7.927 -1.1083  0.1843 -1.3756
  166SAPE   C3318738   0.605   4.757   6.468 -0.6968 -0.0438 -0.0681
  166SAPE   H3X18739   0.694   4.713   6.517 -1.9518 -1.7153  0.8041
  166SAPE   H3Y18740   0.582   4.676   6.396 -1.8356  1.4766 -1.5022
  166SAPE   C3418741   0.508   4.778   6.581  0.1386 -0.0625  0.3994
  166SAPE   H4X18742   0.494   4.680   6.630 -0.0976  0.3461  1.1627
  166SAPE   H4Y18743   0.408   4.807   6.544  0.3232 -0.8857 -0.8075
  166SAPE   C3518744   0.571   4.865   6.691 -0.9738  0.8841 -0.0729
  166SAPE   H5X18745   0.551   4.973   6.674  0.7919  1.4253  0.9867
  166SAPE   H5Y18746   0.682   4.853   6.685 -0.7985  2.8238 -1.8165
  166SAPE   C3618747   0.537   4.826   6.839 -0.4283 -0.4201 -0.0368
  166SAPE   H6X18748   0.557   4.913   6.906  0.3057  0.0640 -0.8527
  166SAPE   H6Y18749   0.607   4.749   6.876  0.7457  0.5991 -0.0621
  166SAPE   C3718750   0.387   4.792   6.867 -0.1131  0.5523  0.4293
  166SAPE   H7X18751   0.338   4.721   6.797  0.8146 -0.4575  0.7776
  166SAPE   H7Y18752   0.340   4.893   6.863 -1.1579  0.2342  2.7840
  166SAPE   C3818753   0.367   4.754   7.008  0.0065  1.2495 -0.7496
  166SAPE   H8X18754   0.403   4.834   7.077 -0.6782  1.3143 -0.4644
  166SAPE   H8Y18755   0.435   4.666   7.022 -2.9021 -1.0626 -0.2183
  166SAPE   C3918756   0.232   4.696   7.045  0.0775 -0.0338 -0.5426
  166SAPE   H9X18757   0.211   4.621   6.966 -3.0898  0.4431 -0.2855
  166SAPE   H9Y18758   0.161   4.780   7.027 -0.3078 -0.0757  0.6628
  166SAPE  C31018759   0.228   4.647   7.184  0.2535  0.5452 -0.0592
  166SAPE  H10X18760   0.283   4.721   7.246 -2.3853  2.2641  0.3695
  166SAPE  H10Y18761   0.296   4.559   7.185  0.5582  0.7794  0.0043
  166SAPE  C31118762   0.078   4.621   7.211  0.5768  0.3540  0.2662
  166SAPE  H11X18763   0.037   4.534   7.157  0.2872  0.4363  0.3487
  166SAPE  H11Y18764   0.011   4.703   7.178  0.6894 -0.8496 -3.3810
  166SAPE  C31218765   0.050   4.589   7.365  0.0873 -0.2440 -0.1034
  166SAPE  H12X18766   0.076   4.669   7.437 -2.3719 -1.6670  2.5484
  166SAPE  H12Y18767   0.124   4.510   7.390 -1.1085 -0.8574  1.6323
  166SAPE  C31318768  -0.087   4.533   7.404 -0.3854  0.6176 -0.1489
  166SAPE  H13X18769  -0.096   4.426   7.378 -0.0781  0.1857  1.4466
  166SAPE  H13Y18770  -0.179   4.590   7.378 -0.7316  0.3345  0.4314
  166SAPE  C31418771  -0.103   4.530   7.561  0.1175  0.5523  0.6683
  166SAPE  H14X18772  -0.089   4.633   7.601 -1.4945  1.7996 -1.7664
  166SAPE  H14Y18773  -0.028   4.465   7.611 -2.6153 -0.8309  3.3748
  166SAPE  C31518774  -0.244   4.474   7.594  0.2495 -0.3258  0.0762
  166SAPE  H15X18775  -0.268   4.369   7.564 -0.4974 -0.3627  0.7783
  166SAPE  H15Y18776  -0.324   4.535   7.549 -0.5257 -0.2374  1.5053
  166SAPE  C31618777  -0.260   4.487   7.745  0.4044  0.6774 -0.2750
  166SAPE  H16X18778  -0.166   4.469   7.801  0.8851  2.6317 -0.3651
  166SAPE  H16Y18779  -0.321   4.401   7.779  1.5492 -0.0808 -0.0727
  166SAPE  C31718780  -0.313   4.624   7.788 -0.1351  0.6377  0.1858
  166SAPE  H17X18781  -0.414   4.625   7.740 -0.0557  0.2953  0.0121
  166SAPE  H17Y18782  -0.255   4.709   7.747  0.5683 -0.5370 -1.3129
  166SAPE  C31818783  -0.341   4.646   7.935 -0.0083  0.0460 -0.2535
  166SAPE  H18X18784  -0.387   4.744   7.955  0.3177 -0.1491  1.5913
  166SAPE  H18Y18785  -0.247   4.660   7.994  1.2525  1.8712 -2.5226
  166SAPE  H18Z18786  -0.398   4.569   7.991  0.6491  1.3786  2.3879
  167SAPE     N18787   5.942   4.297   6.071  0.3186  0.4367 -0.1550
  167SAPE   HN118788   5.852   4.337   6.102  0.4784  0.2036  0.6471
  167SAPE   HN218789   5.954   4.264   5.973  1.4638 -1.8999  0.6679
  167SAPE   HN318790   5.952   4.209   6.125 -1.1022 -0.3447 -1.1151
  167SAPE   C1218791   6.051   4.405   6.098 -0.3451  0.6215  1.0514
  167SAPE  H12A18792   6.051   4.448   6.200  1.7099  1.9417  0.5636
  167SAPE  H12B18793   6.036   4.487   6.024  2.0404 -0.6025 -0.9766
  167SAPE   C1118794   6.187   4.345   6.085 -0.1405 -0.2515 -0.0818
  167SAPE  H11A18795   6.273   4.410   6.110 -1.1044  0.8913  0.3387
  167SAPE  H11B18796   6.195   4.321   5.976  0.4427 -0.5858  0.0300
  167SAPE     P18797   6.286   4.103   6.125  0.3856  0.3015 -0.4732
  167SAPE   O1318798   6.228   3.987   6.195 -0.4051 -0.0143  0.2996
  167SAPE   O1418799   6.303   4.100   5.977 -0.1003  0.4962 -0.1668
  167SAPE   O1218800   6.193   4.226   6.158 -0.2371 -0.4959 -0.3734
  167SAPE   O1118801   6.417   4.146   6.200 -0.0771 -0.9608  0.2283
  167SAPE    C118802   6.457   4.065   6.311  0.0048 -0.0033 -0.2072
  167SAPE    HA18803   6.479   3.958   6.288 -1.9427 -0.0771 -2.1553
  167SAPE    HB18804   6.555   4.112   6.333  0.7943 -2.6974  2.5810
  167SAPE    C218805   6.368   4.088   6.443 -0.6711  0.2391 -0.1792
  167SAPE    HS18806   6.274   4.030   6.434 -0.4792 -0.2698  1.0176
  167SAPE   O2118807   6.354   4.231   6.467 -0.0454 -0.3466  0.4411
  167SAPE   C2118808   6.236   4.267   6.508  0.4283  0.1799  0.3868
  167SAPE   O2218809   6.141   4.196   6.539 -1.2084  0.0905 -0.0805
  167SAPE   C2218810   6.237   4.422   6.510  0.2801  0.4001  0.8068
  167SAPE   H2R18811   6.281   4.453   6.414  0.7036 -0.7336  0.6211
  167SAPE   H2S18812   6.129   4.448   6.506  0.6174  2.2555  2.3302
  167SAPE    C318813   6.439   4.027   6.567 -0.2787  0.2852 -0.3782
  167SAPE    HX18814   6.548   4.050   6.563 -0.4514  0.9485 -1.4302
  167SAPE    HY18815   6.458   3.918   6.551  2.4082  0.2679  2.1675
  167SAPE   O3118816   6.382   4.044   6.697 -0.3899 -0.1578  0.6155
  167SAPE   C3118817   6.271   3.982   6.727 -0.3853  0.2633  0.6931
  167SAPE   O3218818   6.210   3.904   6.655  0.1440  0.0945  0.2066
  167SAPE   C3218819   6.246   3.994   6.877  0.1170  0.0236  0.3213
  167SAPE   H2X18820   6.270   4.098   6.909  1.2316 -0.0604 -0.1797
  167SAPE   H2Y18821   6.318   3.932   6.934 -0.9107  0.7845  2.5309
  167SAPE   C2318822   6.308   4.484   6.633  0.7341 -0.2768  0.4162
  167SAPE   H3R18823   6.344   4.589   6.622 -0.2459 -0.0830 -1.2893
  167SAPE   H3S18824   6.395   4.419   6.657  0.6134 -0.9583 -0.9024
  167SAPE   C2418825   6.201   4.499   6.748 -0.7784  0.5758 -0.4572
  167SAPE   H4R18826   6.117   4.556   6.704 -2.5257 -1.5215  0.0128
  167SAPE   H4S18827   6.260   4.562   6.818  0.0359 -1.2631  0.5966
  167SAPE   C2518828   6.147   4.373   6.807  0.1644  0.0164 -0.3184
  167SAPE   H5R18829   6.188   4.281   6.764 -0.2385  0.8579 -2.6072
  167SAPE   C2618830   6.058   4.365   6.904  0.4489 -0.2838  0.0607
  167SAPE   H6R18831   6.022   4.264   6.931 -0.6652  0.2661  0.6998
  167SAPE   C2718832   5.987   4.485   6.968  0.3900 -0.3986  0.2191
  167SAPE   H7R18833   6.015   4.577   6.912  0.0294 -1.5482 -1.9469
  167SAPE   H7S18834   6.027   4.507   7.070 -1.0410 -2.7108  1.3620
  167SAPE   C2818835   5.835   4.466   6.970  0.0338  0.4275  0.0588
  167SAPE   H8R18836   5.788   4.490   6.874  1.0526  2.2522 -0.0279
  167SAPE   C2918837   5.759   4.414   7.066  0.2593  0.6272 -0.2040
  167SAPE   H9R18838   5.649   4.413   7.058 -0.1362  1.1284  3.3467
  167SAPE  C21018839   5.809   4.359   7.199  0.0527 -0.8100  0.1671
  167SAPE  H10R18840   5.892   4.425   7.231 -0.6262  1.4080 -2.3162
  167SAPE  H10S18841   5.851   4.258   7.175  0.1122 -0.7429 -0.0103
  167SAPE  C21118842   5.702   4.338   7.300 -0.2523 -0.1805  0.2295
  167SAPE  H11R18843   5.663   4.236   7.296  0.2361 -0.3779  0.5004
  167SAPE  C21218844   5.671   4.430   7.397  0.7419  0.9944  1.0379
  167SAPE  H12R18845   5.594   4.399   7.469  1.5215  1.9964  2.3514
  167SAPE  C21318846   5.723   4.565   7.428  0.5152  1.0121 -0.2895
  167SAPE  H13R18847   5.636   4.628   7.457 -0.4838  0.2706 -1.5705
  167SAPE  H13S18848   5.762   4.612   7.335 -0.5742 -1.6193 -2.1880
  167SAPE  C21418849   5.830   4.564   7.537  0.1698  0.3089  0.0088
  167SAPE  H14R18850   5.934   4.567   7.499  0.9422  0.2618  1.9955
  167SAPE  C21518851   5.814   4.550   7.671 -0.0447 -0.6432  0.5166
  167SAPE  H15R18852   5.909   4.546   7.727 -0.3905  0.4576  1.2090
  167SAPE  C21618853   5.676   4.542   7.739 -0.0175  0.3935 -0.4393
  167SAPE  H16R18854   5.686   4.476   7.828 -2.7171 -1.8247 -1.5975
  167SAPE  H16S18855   5.615   4.483   7.667  2.8453 -3.8909  0.2163
  167SAPE  C21718856   5.608   4.674   7.788  0.4950  0.0996 -0.4988
  167SAPE  H17R18857   5.511   4.645   7.833  0.2647  1.9443  0.2927
  167SAPE  H17S18858   5.584   4.743   7.704  0.9831 -0.1283 -0.8306
  167SAPE  C21818859   5.695   4.753   7.887 -0.2948 -0.2607 -0.3454
  167SAPE  H18R18860   5.637   4.848   7.889 -1.9629 -1.1297 -2.6063
  167SAPE  H18S18861   5.798   4.777   7.853 -1.4465  3.3733 -1.7754
  167SAPE  C21918862   5.704   4.695   8.030  0.0308  0.1510  0.7969
  167SAPE  H19R18863   5.744   4.593   8.012  0.2332  0.7040 -2.5808
  167SAPE  H19S18864   5.603   4.672   8.072 -0.4176 -0.7506 -0.6758
  167SAPE  C22018865   5.795   4.769   8.127 -0.0216 -0.9078  0.1867
  167SAPE  H20R18866   5.882   4.804   8.067 -1.1628 -1.1270 -1.7059
  167SAPE  H20S18867   5.822   4.696   8.206  0.6905  1.8674  2.6951
  167SAPE  H20T18868   5.742   4.854   8.175  2.7490  1.6113 -0.8902
  167SAPE   C3318869   6.095   3.980   6.908 -0.8945 -0.2388  0.6373
  167SAPE   H3X18870   6.075   3.872   6.897 -1.0228 -0.1099 -0.4938
  167SAPE   H3Y18871   6.030   4.053   6.855 -2.0106 -1.2110  0.6267
  167SAPE   C3418872   6.070   3.999   7.060  0.0324  0.4584  0.7579
  167SAPE   H4X18873   6.078   4.109   7.076  2.4014  0.5735 -0.7511
  167SAPE   H4Y18874   6.139   3.946   7.129 -1.1010 -1.7257  0.2878
  167SAPE   C3518875   5.929   3.953   7.098 -0.4107  0.0466 -0.6168
  167SAPE   H5X18876   5.914   3.844   7.081 -0.7162 -0.1280  0.6840
  167SAPE   H5Y18877   5.853   4.011   7.042 -1.4524  0.7988  1.4625
  167SAPE   C3618878   5.905   3.983   7.252  0.1189 -0.4535  0.5110
  167SAPE   H6X18879   5.928   4.088   7.280 -1.3475 -0.5197  2.1271
  167SAPE   H6Y18880   5.980   3.925   7.308 -0.0323 -2.0879 -0.8906
  167SAPE   C3718881   5.762   3.953   7.296 -0.2224 -0.2610  0.4631
  167SAPE   H7X18882   5.717   3.864   7.248 -3.7386  0.2165  2.5197
  167SAPE   H7Y18883   5.696   4.035   7.261 -2.0649 -0.4224  3.2209
  167SAPE   C3818884   5.735   3.933   7.450  0.6718 -0.0814 -0.1769
  167SAPE   H8X18885   5.802   3.853   7.488  1.7740  0.4242 -0.9897
  167SAPE   H8Y18886   5.633   3.892   7.468  0.5500 -0.0471 -0.7850
  167SAPE   C3918887   5.749   4.065   7.532  0.0588 -0.6808 -0.4021
  167SAPE   H9X18888   5.690   4.141   7.478 -0.7725  1.6540  3.4458
  167SAPE   H9Y18889   5.856   4.093   7.539  0.0929 -1.0443  1.0015
  167SAPE  C31018890   5.701   4.046   7.676  0.0109 -1.4149 -0.4684
  167SAPE  H10X18891   5.777   3.998   7.741 -1.9062 -1.5074  1.8585
  167SAPE  H10Y18892   5.604   3.992   7.678 -0.7984 -0.0741 -1.3969
  167SAPE  C31118893   5.668   4.178   7.754 -0.6171 -0.2248  0.4640
  167SAPE  H11X18894   5.609   4.249   7.692  0.1507  1.3737  1.5114
  167SAPE  H11Y18895   5.766   4.229   7.767  0.3689 -1.3441 -1.9351
  167SAPE  C31218896   5.586   4.154   7.881 -0.4995  0.9146 -0.3616
  167SAPE  H12X18897   5.628   4.056   7.913  0.7093  1.9803  1.5025
  167SAPE  H12Y18898   5.480   4.156   7.849 -0.9552  3.0813  1.0921
  167SAPE  C31318899   5.615   4.271   7.975  0.2958 -0.3332 -0.4684
  167SAPE  H13X18900   5.557   4.360   7.942  0.8434  0.4657  0.6441
  167SAPE  H13Y18901   5.724   4.291   7.970  0.0205  0.9035 -2.8705
  167SAPE  C31418902   5.585   4.231   8.116  0.1534  0.0067  0.0673
  167SAPE  H14X18903   5.605   4.317   8.184 -1.7453 -0.4903  1.3270
  167SAPE  H14Y18904   5.651   4.151   8.156 -0.7053 -1.7215 -1.7822
  167SAPE  C31518905   5.431   4.207   8.133 -0.4458  0.1485  0.7389
  167SAPE  H15X18906   5.419   4.108   8.084  2.3544 -0.9919  2.1382
  167SAPE  H15Y18907   5.361   4.275   8.079 -1.6502 -0.6006  1.3018
  167SAPE  C31618908   5.377   4.194   8.276 -0.3565  0.2477  0.2303
  167SAPE  H16X18909   5.434   4.108   8.317  3.0260  0.6957 -3.0456
  167SAPE  H16Y18910   5.275   4.151   8.270 -0.4963  0.2638  1.9621
  167SAPE  C31718911   5.387   4.322   8.361  0.4871 -0.0339 -0.0375
  167SAPE  H17X18912   5.494   4.353   8.366  1.3688 -3.0461  2.2671
  167SAPE  H17Y18913   5.374   4.294   8.467  2.1511 -1.2161 -0.1021
  167SAPE  C31818914   5.298   4.440   8.310 -0.6247 -0.2731 -0.2181
  167SAPE  H18X18915   5.336   4.475   8.212  0.2808  0.1924  0.2819
  167SAPE  H18Y18916   5.303   4.524   8.383  2.3188  0.2977 -0.9764
  167SAPE  H18Z18917   5.195   4.406   8.286 -0.7958  1.4113 -2.1585
  168SAPE     N18918   1.581   5.298   6.259  0.3575  0.5020  0.2126
  168SAPE   HN118919   1.504   5.231   6.235  0.4930  0.6096 -0.5405
  168SAPE   HN218920   1.540   5.382   6.305 -0.4743 -0.0565  0.5150
  168SAPE   HN318921   1.644   5.302   6.177  0.5939 -4.6674 -0.1722
  168SAPE   C1218922   1.651   5.232   6.377 -0.2751  0.3276 -0.3470
  168SAPE  H12A18923   1.596   5.249   6.472  0.8162  0.8541  0.2058
  168SAPE  H12B18924   1.751   5.279   6.384 -1.7781  3.5803  1.5942
  168SAPE   C1118925   1.667   5.080   6.340  0.3536 -0.3149 -0.5950
  168SAPE  H11A18926   1.720   5.029   6.423 -1.9143 -1.1424  0.4139
  168SAPE  H11B18927   1.728   5.065   6.249  1.8483  1.2196  0.0872
  168SAPE     P18928   1.472   4.930   6.421 -0.0690  0.2649  0.2410
  168SAPE   O1318929   1.339   4.894   6.375  0.2085  0.2010  0.0056
  168SAPE   O1418930   1.556   4.816   6.453 -0.0289  0.1124  0.4653
  168SAPE   O1218931   1.535   5.029   6.316 -0.2733 -0.0007 -0.0550
  168SAPE   O1118932   1.454   5.022   6.549  0.1870  0.4613 -0.3255
  168SAPE    C118933   1.497   4.995   6.681  0.4412 -0.0734  0.0054
  168SAPE    HA18934   1.582   4.925   6.689  0.2392 -0.6789 -2.3725
  168SAPE    HB18935   1.517   5.090   6.735 -0.5465  0.4381 -0.5054
  168SAPE    C218936   1.374   4.932   6.754 -0.0481 -0.1580  0.4031
  168SAPE    HS18937   1.327   4.860   6.684  0.0417  0.3730 -0.2132
  168SAPE   O2118938   1.284   5.033   6.797  0.0514  0.3360 -0.4478
  168SAPE   C2118939   1.155   4.996   6.800  0.2796 -0.2272 -0.1746
  168SAPE   O2218940   1.111   4.891   6.760  0.4307 -0.4324 -0.1043
  168SAPE   C2218941   1.061   5.105   6.854  0.5704 -0.6508  0.0056
  168SAPE   H2R18942   1.101   5.139   6.952  0.9007 -1.9980  0.3601
  168SAPE   H2S18943   1.061   5.194   6.788  1.6209  0.2354  1.1578
  168SAPE    C318944   1.425   4.863   6.892  0.3932  0.0624  0.0042
  168SAPE    HX18945   1.490   4.927   6.954  0.3268  0.7994 -0.6774
  168SAPE    HY18946   1.503   4.790   6.862 -0.7065 -2.2802  2.3877
  168SAPE   O3118947   1.310   4.795   6.962 -0.2668 -0.2458  0.6370
  168SAPE   C3118948   1.292   4.826   7.089  0.5606 -0.0753  0.3241
  168SAPE   O3218949   1.370   4.894   7.157  0.0886  0.3957  0.6529
  168SAPE   C3218950   1.165   4.755   7.135 -0.4235 -1.0717  0.0076
  168SAPE   H2X18951   1.193   4.654   7.173  0.7482 -0.6013  0.4551
  168SAPE   H2Y18952   1.085   4.744   7.059 -1.2511 -0.1602  0.7191
  168SAPE   C2318953   0.916   5.067   6.864 -0.1185  0.2910 -0.0551
  168SAPE   H3R18954   0.913   4.988   6.941  1.5148  1.0543  0.8364
  168SAPE   H3S18955   0.891   5.025   6.764  1.0310 -3.8756  1.2309
  168SAPE   C2418956   0.829   5.192   6.891  0.0730  0.0043  0.6042
  168SAPE   H4R18957   0.821   5.263   6.805 -1.9032  0.2600  0.9622
  168SAPE   H4S18958   0.879   5.254   6.968 -0.2056 -1.0350  1.6459
  168SAPE   C2518959   0.689   5.150   6.938  0.1077 -0.1093  0.1433
  168SAPE   H5R18960   0.615   5.146   6.858  0.7842  2.3523 -0.7125
  168SAPE   C2618961   0.658   5.124   7.062 -1.1054  0.0974  0.5187
  168SAPE   H6R18962   0.553   5.099   7.083 -0.8959 -2.9713 -1.4306
  168SAPE   C2718963   0.751   5.121   7.186  0.2429  0.4886  0.7236
  168SAPE   H7R18964   0.715   5.197   7.259 -2.0685 -0.0299  0.2240
  168SAPE   H7S18965   0.851   5.160   7.160  0.0138  0.5916 -0.0343
  168SAPE   C2818966   0.762   4.977   7.244  0.2268  0.2665  0.8015
  168SAPE   H8R18967   0.805   4.898   7.180  0.3728  1.0463 -0.0736
  168SAPE   C2918968   0.724   4.934   7.369 -0.4056 -0.2585  0.0699
  168SAPE   H9R18969   0.751   4.830   7.395  0.9946  0.5888  2.3694
  168SAPE  C21018970   0.654   5.015   7.474  0.6550 -0.1999  0.0255
  168SAPE  H10R18971   0.677   5.123   7.460 -2.1795  0.5947  0.9043
  168SAPE  H10S18972   0.698   4.995   7.574  3.1673 -0.2589 -1.0088
  168SAPE  C21118973   0.508   4.989   7.455  0.9836  0.0540  0.4399
  168SAPE  H11R18974   0.475   5.000   7.350 -2.3036 -0.5017  1.2979
  168SAPE  C21218975   0.415   4.952   7.549 -0.3181 -0.0193  1.1456
  168SAPE  H12R18976   0.308   4.937   7.527 -0.1757 -0.6765  0.8633
  168SAPE  C21318977   0.438   4.924   7.692  0.1698 -0.7614 -0.4257
  168SAPE  H13R18978   0.547   4.931   7.709  0.3185 -0.9335 -1.2999
  168SAPE  H13S18979   0.416   4.819   7.720 -1.1135  0.2390  2.9086
  168SAPE  C21418980   0.365   5.020   7.783 -0.4769  0.0320 -0.2059
  168SAPE  H14R18981   0.427   5.094   7.836  1.9122  0.1946 -3.0282
  168SAPE  C21518982   0.235   5.003   7.822  0.4926 -0.2515  0.1964
  168SAPE  H15R18983   0.189   5.085   7.879  2.3096 -0.1161  1.5636
  168SAPE  C21618984   0.138   4.895   7.772 -0.1061  0.0871 -0.3321
  168SAPE  H16R18985   0.159   4.866   7.667  1.6656  0.6901 -0.1834
  168SAPE  H16S18986   0.034   4.933   7.775 -1.8434 -4.1759  0.7221
  168SAPE  C21718987   0.148   4.760   7.854  0.1929 -1.3040  0.3051
  168SAPE  H17R18988   0.247   4.712   7.869  2.0904  1.5082 -2.1828
  168SAPE  H17S18989   0.088   4.683   7.800 -2.5082  1.5209 -1.0197
  168SAPE  C21818990   0.093   4.779   7.993 -0.5337  0.4923 -0.4097
  168SAPE  H18R18991   0.004   4.845   7.999 -0.6701  0.4205 -1.3822
  168SAPE  H18S18992   0.170   4.824   8.059 -1.1791  0.8927  0.0775
  168SAPE  C21918993   0.033   4.651   8.063 -0.4938 -0.5921 -0.0892
  168SAPE  H19R18994   0.107   4.569   8.059 -0.8449 -0.9608  0.8615
  168SAPE  H19S18995  -0.050   4.618   7.997 -1.1383  0.2713  0.2825
  168SAPE  C22018996  -0.024   4.676   8.202 -0.2904  0.5634  0.9741
  168SAPE  H20R18997  -0.046   4.580   8.254 -0.0038 -0.6065 -0.9885
  168SAPE  H20S18998  -0.113   4.743   8.198 -1.2046 -0.6217  0.9801
  168SAPE  H20T18999   0.055   4.724   8.264  4.0110 -1.8101 -2.1646
  168SAPE   C3319000   1.102   4.815   7.260 -0.0388 -0.0603  0.1640
  168SAPE   H3X19001   0.992   4.806   7.246 -0.1775  0.1454  1.0659
  168SAPE   H3Y19002   1.129   4.922   7.263  1.0488 -0.3069 -0.2871
  168SAPE   C3419003   1.146   4.760   7.396  0.2715  0.0158 -0.5995
  168SAPE   H4X19004   1.255   4.768   7.418  0.3406 -3.1102  0.6834
  168SAPE   H4Y19005   1.128   4.651   7.397 -1.2761  0.1826  2.6470
  168SAPE   C3519006   1.066   4.822   7.510  0.5561 -0.7423 -0.1598
  168SAPE   H5X19007   0.961   4.804   7.479 -1.0148  1.3763  3.3801
  168SAPE   H5Y19008   1.084   4.931   7.513 -0.9880 -0.3636 -2.1784
  168SAPE   C3619009   1.091   4.772   7.648 -0.0264  0.3646 -0.3569
  168SAPE   H6X19010   1.017   4.817   7.719 -0.3066 -0.3773 -0.1679
  168SAPE   H6Y19011   1.192   4.806   7.678 -0.7826  2.7894 -0.3029
  168SAPE   C3719012   1.073   4.620   7.668 -0.2127 -0.3766  0.9768
  168SAPE   H7X19013   1.152   4.574   7.604 -1.5124 -3.2002  1.2509
  168SAPE   H7Y19014   0.969   4.588   7.650 -1.1936  1.4661  2.9387
  168SAPE   C3819015   1.086   4.577   7.815  0.4753 -0.7859  0.4502
  168SAPE   H8X19016   1.012   4.631   7.878  0.4384  0.1892 -0.4060
  168SAPE   H8Y19017   1.178   4.625   7.854  0.0183  1.4222 -1.0180
  168SAPE   C3919018   1.103   4.427   7.850  0.4364 -0.1295 -0.7134
  168SAPE   H9X19019   1.186   4.391   7.785  1.5074  0.2879  0.3707
  168SAPE   H9Y19020   1.004   4.378   7.838  0.0736 -0.1378  1.7746
  168SAPE  C31019021   1.156   4.412   7.992  0.2201  0.3197  0.1387
  168SAPE  H10X19022   1.100   4.480   8.059  0.4751 -1.0718  1.8278
  168SAPE  H10Y19023   1.263   4.440   7.983  0.3794 -0.6885 -1.4507
  168SAPE  C31119024   1.146   4.262   8.036 -1.2100  0.1395  0.6135
  168SAPE  H11X19025   1.184   4.195   7.956 -2.6266 -1.5631  1.3132
  168SAPE  H11Y19026   1.037   4.241   8.039 -0.8677 -2.1222 -0.7123
  168SAPE  C31219027   1.215   4.243   8.172  0.1277  0.5318  0.8656
  168SAPE  H12X19028   1.193   4.141   8.210 -0.9798  0.7252  0.7714
  168SAPE  H12Y19029   1.160   4.304   8.246 -1.1903  0.0251  0.3400
  168SAPE  C31319030   1.363   4.287   8.168 -0.4805  0.5984 -0.6441
  168SAPE  H13X19031   1.363   4.398   8.170 -0.5311  0.5954  1.6815
  168SAPE  H13Y19032   1.420   4.244   8.083  0.4804  1.6941 -0.5811
  168SAPE  C31419033   1.440   4.243   8.297  0.3038  0.0094 -0.2831
  168SAPE  H14X19034   1.430   4.137   8.330 -0.0612  0.8032  2.4259
  168SAPE  H14Y19035   1.397   4.315   8.370  2.9523  1.4246 -0.0094
  168SAPE  C31519036   1.592   4.273   8.284  0.4833  0.4458 -1.0294
  168SAPE  H15X19037   1.594   4.378   8.247  2.2361 -0.2918 -3.2791
  168SAPE  H15Y19038   1.621   4.204   8.202  0.3467  1.5539 -2.0391
  168SAPE  C31619039   1.675   4.242   8.414 -0.7767 -0.2827  0.0660
  168SAPE  H16X19040   1.692   4.135   8.439  1.1925  0.1021  0.5230
  168SAPE  H16Y19041   1.616   4.297   8.490 -0.1002  1.2227 -0.4589
  168SAPE  C31719042   1.818   4.293   8.408 -0.0179 -0.3878  0.1186
  168SAPE  H17X19043   1.812   4.403   8.414 -0.3585 -0.2915 -1.5019
  168SAPE  H17Y19044   1.863   4.272   8.309  0.0505  1.6741 -0.3131
  168SAPE  C31819045   1.896   4.254   8.527  0.3709  1.1486 -0.5211
  168SAPE  H18X19046   1.906   4.147   8.555  0.5915  1.6069  1.2362
  168SAPE  H18Y19047   1.868   4.318   8.613  2.3476  2.8042 -1.0084
  168SAPE  H18Z19048   2.002   4.282   8.504  1.1353 -0.9711  0.2033
  169SAPE     N19049   0.716   1.380   6.273 -0.5687  0.4484 -0.4669
  169SAPE   HN119050   0.798   1.416   6.220 -0.3102  0.1763 -0.2502
  169SAPE   HN219051   0.724   1.277   6.262  2.3333  0.4171  1.0984
  169SAPE   HN319052   0.627   1.409   6.226  0.8992 -0.3215 -4.0754
  169SAPE   C1219053   0.712   1.428   6.418  0.1078 -0.3847  0.5744
  169SAPE  H12A19054   0.644   1.354   6.466 -1.7499  0.8117 -0.0832
  169SAPE  H12B19055   0.679   1.533   6.426 -1.2355 -0.6878 -0.5838
  169SAPE   C1119056   0.856   1.409   6.487 -0.5536  0.4831  0.3489
  169SAPE  H11A19057   0.867   1.300   6.502 -3.2869  0.3866  2.4394
  169SAPE  H11B19058   0.857   1.457   6.587 -3.0746  0.5823  0.4008
  169SAPE     P19059   1.095   1.396   6.378  0.0864 -0.4343 -0.2853
  169SAPE   O1319060   1.067   1.272   6.300  0.5504 -0.3025 -0.3185
  169SAPE   O1419061   1.194   1.491   6.328 -0.0360 -0.5744  0.0320
  169SAPE   O1219062   0.956   1.475   6.395 -0.3856 -0.2271  0.4959
  169SAPE   O1119063   1.134   1.372   6.533 -0.2071  0.2036  0.4279
  169SAPE    C119064   1.194   1.470   6.608  0.5724 -0.7469 -0.2923
  169SAPE    HA19065   1.299   1.491   6.579  1.2714 -2.4451  0.8198
  169SAPE    HB19066   1.137   1.565   6.593 -0.4648 -1.3702 -0.4372
  169SAPE    C219067   1.194   1.433   6.762 -0.5840 -0.1806  0.9074
  169SAPE    HS19068   1.290   1.377   6.764 -1.1541 -1.3498 -1.1920
  169SAPE   O2119069   1.070   1.363   6.800 -0.5896  0.4756 -0.2346
  169SAPE   C2119070   1.092   1.229   6.794 -0.6179  0.1034 -0.4532
  169SAPE   O2219071   1.200   1.173   6.793 -0.1393 -0.4519 -0.0462
  169SAPE   C2219072   0.960   1.156   6.814  0.1138 -0.1400  0.6580
  169SAPE   H2R19073   0.882   1.232   6.792  0.5703 -0.0615 -0.8488
  169SAPE   H2S19074   0.952   1.087   6.726 -0.4996  2.6476 -1.6244
  169SAPE    C319075   1.210   1.565   6.846 -0.3499 -0.5893  0.5523
  169SAPE    HX19076   1.116   1.624   6.841  0.2829  0.3471 -2.8309
  169SAPE    HY19077   1.284   1.635   6.804 -1.7695  0.5864 -0.0834
  169SAPE   O3119078   1.240   1.536   6.985  0.3490 -0.3530  0.5131
  169SAPE   C3119079   1.356   1.486   7.006 -0.7175 -0.1842  0.7345
  169SAPE   O3219080   1.452   1.480   6.930  0.2153  0.3235 -0.3074
  169SAPE   C3219081   1.353   1.429   7.148 -0.5322 -0.5852 -0.1106
  169SAPE   H2X19082   1.419   1.340   7.147  0.0970 -0.1353 -1.7402
  169SAPE   H2Y19083   1.248   1.409   7.177 -1.0669  2.2521  0.2057
  169SAPE   C2319084   0.944   1.084   6.951  0.8391 -0.0808  0.1771
  169SAPE   H3R19085   1.017   1.001   6.967  1.4992  0.7703  1.7647
  169SAPE   H3S19086   0.847   1.029   6.954  0.4419  0.5871 -0.2047
  169SAPE   C2419087   0.957   1.186   7.067 -0.2830  0.4063  0.0807
  169SAPE   H4R19088   0.877   1.257   7.038 -0.2683 -0.1696 -1.4476
  169SAPE   H4S19089   1.058   1.230   7.057  0.7671 -1.4631  1.6587
  169SAPE   C2519090   0.922   1.132   7.205 -0.3610  0.5856 -0.2337
  169SAPE   H5R19091   0.815   1.109   7.214 -0.1711 -0.7765 -1.1375
  169SAPE   C2619092   0.999   1.116   7.315 -0.3333  0.0446 -1.2199
  169SAPE   H6R19093   0.963   1.078   7.412 -0.7571  0.6045 -1.1547
  169SAPE   C2719094   1.147   1.143   7.320 -0.0094 -0.6261  0.0713
  169SAPE   H7R19095   1.171   1.200   7.412  1.2344  2.8474 -2.1678
  169SAPE   H7S19096   1.177   1.208   7.234  1.0084 -0.4165  0.5643
  169SAPE   C2819097   1.230   1.016   7.301 -0.3198  0.4597  0.2974
  169SAPE   H8R19098   1.216   0.966   7.204  0.9254  2.1607 -0.8222
  169SAPE   C2919099   1.311   0.962   7.397  0.7932 -0.2091  0.2201
  169SAPE   H9R19100   1.366   0.871   7.369  0.5288  0.3342 -2.2844
  169SAPE  C21019101   1.333   1.034   7.528  1.1721 -0.1779 -0.8629
  169SAPE  H10R19102   1.326   1.144   7.517 -0.5905 -0.0583  0.9019
  169SAPE  H10S19103   1.434   1.019   7.572  0.6334 -1.3786  0.0258
  169SAPE  C21119104   1.235   0.989   7.635  0.6503 -1.1158  0.0328
  169SAPE  H11R19105   1.187   0.890   7.627  1.8569 -1.7057 -0.0850
  169SAPE  C21219106   1.205   1.057   7.749  0.1030  0.4747 -0.4736
  169SAPE  H12R19107   1.132   1.017   7.821 -0.9291  0.0314 -1.7376
  169SAPE  C21319108   1.263   1.196   7.781  0.2356  1.3396  0.5051
  169SAPE  H13R19109   1.335   1.237   7.707  0.2070  1.2345  0.4205
  169SAPE  H13S19110   1.325   1.187   7.873 -1.4258 -0.1689  1.5358
  169SAPE  C21419111   1.161   1.302   7.818 -0.3964  0.0019  0.6216
  169SAPE  H14R19112   1.113   1.338   7.726  3.2243  2.1198 -0.6817
  169SAPE  C21519113   1.123   1.359   7.934  0.4017  0.2753  0.3770
  169SAPE  H15R19114   1.046   1.437   7.944 -1.9941 -2.1347  2.5619
  169SAPE  C21619115   1.171   1.330   8.078  0.3393 -0.2592  0.5204
  169SAPE  H16R19116   1.212   1.427   8.113  0.6893  0.9171 -2.8408
  169SAPE  H16S19117   1.249   1.251   8.091  0.7353  0.4546  3.2329
  169SAPE  C21719118   1.056   1.277   8.165  0.3295  0.5902 -0.2707
  169SAPE  H17R19119   1.022   1.184   8.116  0.7351  1.2131 -1.7997
  169SAPE  H17S19120   0.975   1.353   8.172 -0.5574 -0.4617  1.9732
  169SAPE  C21819121   1.100   1.243   8.314  0.6708 -0.7358  0.0348
  169SAPE  H18R19122   1.173   1.159   8.321  0.1946 -1.0074  2.9868
  169SAPE  H18S19123   1.005   1.219   8.366 -1.0024  2.8898 -1.0336
  169SAPE  C21919124   1.163   1.372   8.385 -0.2309 -0.1503  1.0201
  169SAPE  H19R19125   1.089   1.455   8.390 -0.4413 -0.1517 -1.2785
  169SAPE  H19S19126   1.249   1.403   8.322 -1.1488  1.6257  0.5631
  169SAPE  C22019127   1.214   1.341   8.527 -0.1846 -0.2253 -0.5494
  169SAPE  H20R19128   1.282   1.253   8.523 -0.9063 -0.7976 -0.5579
  169SAPE  H20S19129   1.131   1.307   8.593 -1.5092 -1.7084 -2.8595
  169SAPE  H20T19130   1.253   1.430   8.581  0.0209 -1.2349  1.0185
  169SAPE   C3319131   1.402   1.538   7.255 -0.0678 -0.0879 -0.0052
  169SAPE   H3X19132   1.344   1.625   7.217  1.3848  0.7345 -0.4475
  169SAPE   H3Y19133   1.509   1.559   7.232  0.3168 -1.2311  0.6488
  169SAPE   C3419134   1.368   1.480   7.396 -0.8244  0.1009 -0.0876
  169SAPE   H4X19135   1.448   1.406   7.416  0.4437  0.6465 -2.6695
  169SAPE   H4Y19136   1.264   1.442   7.395 -1.1040  0.6290  2.3050
  169SAPE   C3519137   1.396   1.585   7.505 -0.0557  0.4105  0.7091
  169SAPE   H5X19138   1.322   1.667   7.496  1.3970  1.5598 -1.8327
  169SAPE   H5Y19139   1.492   1.631   7.475 -0.2489  1.2286  1.3362
  169SAPE   C3619140   1.403   1.515   7.640  0.3874 -0.3251  0.1327
  169SAPE   H6X19141   1.461   1.420   7.627 -0.3380 -0.7148 -0.3327
  169SAPE   H6Y19142   1.305   1.471   7.669  0.7097 -0.8522  0.4458
  169SAPE   C3719143   1.467   1.585   7.753 -0.2786  0.3355  0.0785
  169SAPE   H7X19144   1.448   1.527   7.846 -1.6292  0.5333 -0.0504
  169SAPE   H7Y19145   1.419   1.685   7.759 -1.8983 -0.3380 -0.9034
  169SAPE   C3819146   1.628   1.605   7.743 -0.3356  0.0996  0.0663
  169SAPE   H8X19147   1.665   1.642   7.645 -2.0572  0.7600 -0.3719
  169SAPE   H8Y19148   1.662   1.502   7.766  0.4645  0.4670  0.5745
  169SAPE   C3919149   1.686   1.704   7.852  0.1182 -0.5915  0.4960
  169SAPE   H9X19150   1.635   1.801   7.838  2.9105  0.8778 -0.1988
  169SAPE   H9Y19151   1.795   1.725   7.851  0.3024 -1.5067 -0.7148
  169SAPE  C31019152   1.669   1.654   7.995  0.1913  0.7560  0.3759
  169SAPE  H10X19153   1.723   1.558   8.004 -1.0978 -0.1303 -0.9956
  169SAPE  H10Y19154   1.561   1.632   8.006 -0.2306  0.8121 -2.7952
  169SAPE  C31119155   1.721   1.751   8.107 -0.2324  0.0505 -0.4236
  169SAPE  H11X19156   1.671   1.850   8.105 -0.4746  0.1219  3.0851
  169SAPE  H11Y19157   1.831   1.759   8.093 -0.0981 -1.1327 -0.1380
  169SAPE  C31219158   1.707   1.691   8.255 -0.5344  0.6901 -0.2359
  169SAPE  H12X19159   1.756   1.593   8.240 -0.2739  1.0804 -2.0695
  169SAPE  H12Y19160   1.597   1.678   8.266 -0.3678 -1.7180 -0.8180
  169SAPE  C31319161   1.774   1.780   8.366  0.3067  0.0356 -0.8161
  169SAPE  H13X19162   1.715   1.873   8.376  0.2705 -0.1673  1.4467
  169SAPE  H13Y19163   1.878   1.795   8.331 -0.3239 -0.2234 -2.9312
  169SAPE  C31419164   1.770   1.723   8.510  0.2507  0.7905 -0.0865
  169SAPE  H14X19165   1.870   1.745   8.553  0.8909 -2.2092  0.1543
  169SAPE  H14Y19166   1.766   1.612   8.512  1.6990  0.7373  0.3641
  169SAPE  C31519167   1.664   1.783   8.604  0.4634 -0.3486  0.2283
  169SAPE  H15X19168   1.665   1.893   8.591 -0.4068 -0.3735 -0.1133
  169SAPE  H15Y19169   1.670   1.768   8.714  0.3745  0.2484  0.3141
  169SAPE  C31619170   1.519   1.733   8.566 -1.0676  0.5447  0.7383
  169SAPE  H16X19171   1.511   1.627   8.597  0.5909  0.5857  1.4301
  169SAPE  H16Y19172   1.498   1.742   8.457 -2.6004 -0.2140  0.9410
  169SAPE  C31719173   1.402   1.819   8.627 -0.0494  0.2405 -0.3961
  169SAPE  H17X19174   1.311   1.808   8.564 -0.3040  0.6943 -0.1128
  169SAPE  H17Y19175   1.444   1.922   8.622 -1.1374  0.6778 -0.9962
  169SAPE  C31819176   1.380   1.789   8.778 -0.0424 -0.3627 -0.3973
  169SAPE  H18X19177   1.476   1.806   8.832  0.2489  3.4875 -1.7963
  169SAPE  H18Y19178   1.329   1.691   8.791  0.1534 -0.7300 -2.1484
  169SAPE  H18Z19179   1.315   1.865   8.826  0.6674 -0.7113  1.1864
  170SAPE     N19180   1.318   4.638   6.238  0.2171 -0.1783 -0.1397
  170SAPE   HN119181   1.356   4.598   6.326  0.4715 -0.1459 -0.2341
  170SAPE   HN219182   1.377   4.604   6.159 -0.1250  1.1811 -1.0391
  170SAPE   HN319183   1.331   4.741   6.234  0.1354 -0.1917 -1.0195
  170SAPE   C1219184   1.183   4.584   6.209  0.9018  0.6485  0.6432
  170SAPE  H12A19185   1.113   4.656   6.257 -0.7511  0.5679 -1.5253
  170SAPE  H12B19186   1.178   4.483   6.257  3.6820 -0.5162 -1.2827
  170SAPE   C1119187   1.153   4.574   6.067 -0.2266 -0.1071 -0.3632
  170SAPE  H11A19188   1.178   4.673   6.023 -2.3369  0.3327 -0.6699
  170SAPE  H11B19189   1.044   4.555   6.060 -0.1663 -1.1931  1.2007
  170SAPE     P19190   1.167   4.329   5.988 -0.5143 -0.3392  0.6003
  170SAPE   O1319191   1.034   4.349   5.934  0.1268  0.8491 -0.0586
  170SAPE   O1419192   1.265   4.247   5.915  0.0041  0.4261 -0.0234
  170SAPE   O1219193   1.228   4.467   6.015 -0.5301  0.0356 -0.3034
  170SAPE   O1119194   1.148   4.256   6.117  0.1321  0.1603 -0.2494
  170SAPE    C119195   1.263   4.193   6.182  0.2029 -0.3511 -1.1955
  170SAPE    HA19196   1.309   4.110   6.123 -0.0398 -1.1981 -0.2177
  170SAPE    HB19197   1.342   4.269   6.200  0.2050 -0.4235 -0.8918
  170SAPE    C219198   1.225   4.135   6.326 -0.3621 -0.0187  1.1210
  170SAPE    HS19199   1.166   4.044   6.300  1.2675 -1.1861  1.3714
  170SAPE   O2119200   1.145   4.231   6.399  0.4832  0.1735  0.5872
  170SAPE   C2119201   1.040   4.187   6.468  0.4710  0.3611  0.1431
  170SAPE   O2219202   0.993   4.075   6.468 -0.1023  0.0148  0.6012
  170SAPE   C2219203   0.982   4.310   6.541  0.5676 -0.3644  0.2419
  170SAPE   H2R19204   1.056   4.318   6.624  2.5578 -1.7110 -1.3154
  170SAPE   H2S19205   0.998   4.397   6.474  0.4670 -0.4311  0.1307
  170SAPE    C319206   1.351   4.088   6.409  0.1643 -0.6151  0.7808
  170SAPE    HX19207   1.408   4.182   6.427  0.2293 -1.0874  3.3531
  170SAPE    HY19208   1.430   4.034   6.352  0.4778  1.8488 -1.3441
  170SAPE   O3119209   1.325   4.029   6.535  0.4450 -0.5343 -0.5331
  170SAPE   C3119210   1.298   3.900   6.524  0.3713  1.1827  0.3056
  170SAPE   O3219211   1.291   3.839   6.419  0.1134 -0.0444  0.2988
  170SAPE   C3219212   1.270   3.835   6.650  0.1411 -0.3103 -0.0331
  170SAPE   H2X19213   1.160   3.820   6.658 -0.2295  1.9195 -0.1613
  170SAPE   H2Y19214   1.292   3.899   6.738 -1.3107  0.5268 -0.2397
  170SAPE   C2319215   0.838   4.308   6.598  1.1506 -0.7021 -0.2339
  170SAPE   H3R19216   0.837   4.227   6.675 -0.5462 -0.9017 -0.4350
  170SAPE   H3S19217   0.765   4.279   6.521 -1.0140 -1.5087  1.9858
  170SAPE   C2419218   0.777   4.440   6.664  0.1622 -0.2354 -0.0296
  170SAPE   H4R19219   0.682   4.407   6.712 -0.5562 -0.1246 -1.3277
  170SAPE   H4S19220   0.751   4.497   6.572 -2.5481 -0.3952  0.5515
  170SAPE   C2519221   0.862   4.515   6.766  0.3103 -0.5376  0.2288
  170SAPE   H5R19222   0.961   4.541   6.726 -0.8486  2.2105 -1.0579
  170SAPE   C2619223   0.842   4.548   6.896 -0.0197  0.6998 -0.4495
  170SAPE   H6R19224   0.925   4.606   6.940 -0.1582  0.0015  0.7837
  170SAPE   C2719225   0.722   4.537   6.987 -0.1287  0.1049 -0.1803
  170SAPE   H7R19226   0.639   4.493   6.928  1.4919 -3.4687 -0.0245
  170SAPE   H7S19227   0.694   4.633   7.034  1.6539  0.8566 -0.5397
  170SAPE   C2819228   0.750   4.433   7.093  1.1459 -0.0300 -0.1451
  170SAPE   H8R19229   0.799   4.345   7.048  0.6944 -0.4603  0.2045
  170SAPE   C2919230   0.740   4.440   7.226  0.3969  0.3577  0.2218
  170SAPE   H9R19231   0.749   4.353   7.292  1.9552  0.8099  0.6602
  170SAPE  C21019232   0.701   4.557   7.307  0.6721  0.3385 -0.3908
  170SAPE  H10R19233   0.725   4.652   7.254  1.5701  0.6318  0.4911
  170SAPE  H10S19234   0.762   4.567   7.400 -1.1247 -0.0945  0.8913
  170SAPE  C21119235   0.553   4.568   7.336  0.1228  0.3357  0.3228
  170SAPE  H11R19236   0.485   4.565   7.250  0.7612  2.0349 -0.2828
  170SAPE  C21219237   0.505   4.565   7.462  0.0844  0.2980 -0.2752
  170SAPE  H12R19238   0.396   4.570   7.468  0.0846 -1.0816  1.8395
  170SAPE  C21319239   0.588   4.561   7.587  0.1197  0.1490 -0.0548
  170SAPE  H13R19240   0.645   4.657   7.590 -3.9318  2.8415 -0.7348
  170SAPE  H13S19241   0.671   4.486   7.586  1.2169  1.0951  3.4878
  170SAPE  C21419242   0.508   4.545   7.717  0.2588 -0.5259  0.5486
  170SAPE  H14R19243   0.402   4.520   7.700  0.1771 -1.1285  1.8404
  170SAPE  C21519244   0.544   4.569   7.840 -0.2618  0.6360 -0.9137
  170SAPE  H15R19245   0.465   4.547   7.913  0.4560 -1.5701 -0.7475
  170SAPE  C21619246   0.683   4.614   7.892  0.5406  0.7856 -0.0105
  170SAPE  H16R19247   0.733   4.676   7.815 -1.3825  0.7697 -1.3376
  170SAPE  H16S19248   0.753   4.529   7.908 -0.5228 -0.0267  0.4412
  170SAPE  C21719249   0.676   4.710   8.018 -0.2476 -0.1208 -0.0199
  170SAPE  H17R19250   0.622   4.802   7.986  0.1019 -0.2844 -1.1058
  170SAPE  H17S19251   0.779   4.741   8.045 -0.4940  0.7337 -0.0238
  170SAPE  C21819252   0.617   4.649   8.148 -0.7922 -0.2360  0.1574
  170SAPE  H18R19253   0.697   4.588   8.196 -0.1824  0.2391 -0.2370
  170SAPE  H18S19254   0.533   4.581   8.124 -0.0750 -2.2443  2.7904
  170SAPE  C21919255   0.571   4.768   8.242 -0.3150  0.4841  0.1288
  170SAPE  H19R19256   0.480   4.807   8.191 -2.1427 -2.4774  0.8998
  170SAPE  H19S19257   0.644   4.850   8.257 -0.3236  0.1101  2.6658
  170SAPE  C22019258   0.520   4.720   8.378 -0.2626  0.2057 -0.0718
  170SAPE  H20R19259   0.573   4.630   8.419 -2.8424 -0.9984  0.8380
  170SAPE  H20S19260   0.413   4.690   8.370  0.2340 -2.0093  0.6694
  170SAPE  H20T19261   0.507   4.799   8.456 -2.3137  0.3532 -0.4984
  170SAPE   C3319262   1.342   3.697   6.655  0.6046  0.3080  0.1478
  170SAPE   H3X19263   1.451   3.716   6.655  0.8001 -0.6319  1.5123
  170SAPE   H3Y19264   1.308   3.637   6.568  0.0468  0.2994  0.3666
  170SAPE   C3419265   1.316   3.615   6.786  0.3518  0.5217  0.0760
  170SAPE   H4X19266   1.361   3.514   6.778  1.3982  1.0441 -1.0066
  170SAPE   H4Y19267   1.207   3.598   6.796  0.3233 -0.0267 -1.0670
  170SAPE   C3519268   1.378   3.677   6.908  0.4190 -0.4388 -0.2373
  170SAPE   H5X19269   1.351   3.785   6.907  2.9532  0.2463 -0.5289
  170SAPE   H5Y19270   1.488   3.680   6.895  0.7759 -2.0242  1.8959
  170SAPE   C3619271   1.339   3.607   7.041  0.4096  0.2472  0.9869
  170SAPE   H6X19272   1.385   3.506   7.044 -0.3279 -0.0888  4.2435
  170SAPE   H6Y19273   1.229   3.591   7.044  0.2281  1.4739  1.5288
  170SAPE   C3719274   1.384   3.677   7.168  0.5834  0.5088 -0.2148
  170SAPE   H7X19275   1.328   3.772   7.179  2.0912  1.2344  1.6367
  170SAPE   H7Y19276   1.492   3.701   7.159  0.9389 -0.1199  1.8429
  170SAPE   C3819277   1.349   3.582   7.281 -0.5767 -0.1515  0.2340
  170SAPE   H8X19278   1.386   3.478   7.270 -2.0102 -1.1052  3.3009
  170SAPE   H8Y19279   1.240   3.560   7.280 -0.6776  0.3282 -0.9647
  170SAPE   C3919280   1.398   3.632   7.415  0.6974 -0.1830 -0.2023
  170SAPE   H9X19281   1.350   3.725   7.450  0.2463  0.3767 -2.2223
  170SAPE   H9Y19282   1.507   3.639   7.392  0.1591  0.7140 -2.6946
  170SAPE  C31019283   1.377   3.529   7.524  0.8913  0.4079  0.4123
  170SAPE  H10X19284   1.450   3.447   7.506  0.6822 -0.1727  2.0903
  170SAPE  H10Y19285   1.272   3.492   7.524  0.3415  1.8150  2.2087
  170SAPE  C31119286   1.419   3.574   7.662  0.1775 -0.7084 -0.2260
  170SAPE  H11X19287   1.363   3.666   7.689  0.3303 -0.2441 -1.4370
  170SAPE  H11Y19288   1.524   3.609   7.668 -0.4228  0.9702  1.3486
  170SAPE  C31219289   1.383   3.470   7.774  0.2099 -0.5210  0.3864
  170SAPE  H12X19290   1.416   3.367   7.749  0.5788 -0.3178  0.0323
  170SAPE  H12Y19291   1.272   3.477   7.784  0.1851 -1.6449  1.0514
  170SAPE  C31319292   1.461   3.499   7.906 -0.6034 -0.3040 -0.0951
  170SAPE  H13X19293   1.567   3.513   7.876 -1.1717  0.0010 -2.1115
  170SAPE  H13Y19294   1.456   3.412   7.974 -1.1489 -0.8191 -0.7712
  170SAPE  C31419295   1.423   3.629   7.980  0.4783  0.3227  0.5320
  170SAPE  H14X19296   1.314   3.646   7.985  0.1781 -1.2252 -0.1219
  170SAPE  H14Y19297   1.462   3.712   7.917  0.2687 -0.1701 -0.2599
  170SAPE  C31519298   1.496   3.653   8.118  0.4969  0.1294  0.4352
  170SAPE  H15X19299   1.436   3.584   8.182 -0.6509  0.4569 -0.2455
  170SAPE  H15Y19300   1.463   3.754   8.151 -1.6855 -1.2861  2.9552
  170SAPE  C31619301   1.640   3.622   8.117  0.7047  0.2178 -0.0636
  170SAPE  H16X19302   1.701   3.677   8.042  3.1034 -0.8045  1.0438
  170SAPE  H16Y19303   1.659   3.519   8.079 -0.7982  0.8629 -2.8706
  170SAPE  C31719304   1.710   3.648   8.250  0.7791  0.2303 -0.4448
  170SAPE  H17X19305   1.700   3.756   8.276  0.0859  0.1932 -0.5510
  170SAPE  H17Y19306   1.817   3.625   8.231  0.3681 -0.8500 -1.5725
  170SAPE  C31819307   1.660   3.566   8.367 -0.2631 -0.1128 -0.2808
  170SAPE  H18X19308   1.549   3.569   8.374 -0.1813  0.2538  1.2727
  170SAPE  H18Y19309   1.698   3.593   8.468  0.6177  0.8172 -0.8529
  170SAPE  H18Z19310   1.695   3.464   8.340  0.8659  0.1372  0.1585
  171SAPE     N19311   2.219   5.824   5.881 -0.6268 -0.1260 -0.2390
  171SAPE   HN119312   2.186   5.767   5.801 -0.5700 -0.5813  0.0611
  171SAPE   HN219313   2.314   5.862   5.862 -1.3239  1.2279 -1.2343
  171SAPE   HN319314   2.229   5.764   5.965 -0.0288 -1.1140 -1.0022
  171SAPE   C1219315   2.115   5.921   5.929 -0.0567  0.4221  0.3269
  171SAPE  H12A19316   2.072   5.869   6.017  0.8340  0.4662  0.8030
  171SAPE  H12B19317   2.037   5.932   5.851  0.4293 -0.1177 -0.2377
  171SAPE   C1119318   2.181   6.045   5.981  0.1116 -0.0574 -0.1477
  171SAPE  H11A19319   2.108   6.129   5.983 -2.5112 -2.1908  0.7971
  171SAPE  H11B19320   2.246   6.087   5.901 -0.1614  1.1932  0.2735
  171SAPE     P19321   2.225   6.079   6.247 -0.2568  0.2947 -0.0023
  171SAPE   O1319322   2.216   5.974   6.349  0.3100  0.2144  0.0038
  171SAPE   O1419323   2.332   6.174   6.271 -0.3489 -0.4887 -0.0814
  171SAPE   O1219324   2.251   6.017   6.107 -0.4664 -0.3537  0.7081
  171SAPE   O1119325   2.089   6.158   6.229  0.2287 -0.4021 -0.3253
  171SAPE    C119326   2.037   6.234   6.339 -0.5504 -0.7545 -0.5790
  171SAPE    HA19327   2.115   6.301   6.383 -1.0422 -0.6597  0.1579
  171SAPE    HB19328   1.962   6.302   6.292 -1.1713 -1.0746 -0.0653
  171SAPE    C219329   1.986   6.160   6.453  0.1417 -0.0821  0.3988
  171SAPE    HS19330   2.064   6.099   6.503 -0.7086  0.3649  2.3984
  171SAPE   O2119331   1.883   6.073   6.402  0.5432 -0.2295  0.2629
  171SAPE   C2119332   1.870   5.959   6.465  0.4036 -0.0046  0.1961
  171SAPE   O2219333   1.948   5.921   6.553 -0.2603 -0.1332  0.1719
  171SAPE   C2219334   1.740   5.895   6.431 -0.4352 -0.8814 -0.5385
  171SAPE   H2R19335   1.706   5.917   6.327 -1.7706  1.2470  0.2895
  171SAPE   H2S19336   1.752   5.787   6.453  0.3798 -0.5654  0.6441
  171SAPE    C319337   1.934   6.255   6.568  0.4957 -0.3334 -0.3037
  171SAPE    HX19338   1.840   6.286   6.517  0.1536 -0.8471  0.0162
  171SAPE    HY19339   2.005   6.341   6.581  0.5395 -0.3956 -0.1253
  171SAPE   O3119340   1.898   6.199   6.693  0.6886  0.6054 -0.2740
  171SAPE   C3119341   1.994   6.150   6.772  0.2541 -0.2443  0.6384
  171SAPE   O3219342   2.111   6.149   6.745  0.2262 -0.9016  0.0470
  171SAPE   C3219343   1.941   6.097   6.900  0.4124  0.3897  0.1317
  171SAPE   H2X19344   1.840   6.053   6.883  0.2436  1.4600 -1.9540
  171SAPE   H2Y19345   1.939   6.182   6.972 -2.0397 -1.0190  1.8758
  171SAPE   C2319346   1.627   5.931   6.531 -0.8874 -0.4626 -0.2563
  171SAPE   H3R19347   1.536   5.878   6.496 -1.5575  0.8633 -0.6127
  171SAPE   H3S19348   1.612   6.039   6.509  0.1860 -0.6929 -2.3119
  171SAPE   C2419349   1.656   5.914   6.680  0.6664  0.5010  0.0747
  171SAPE   H4R19350   1.566   5.963   6.723  1.0250  1.4422 -0.2114
  171SAPE   H4S19351   1.745   5.969   6.717 -0.1775  1.5301  0.6310
  171SAPE   C2519352   1.663   5.770   6.723 -1.0638  0.8899  0.1723
  171SAPE   H5R19353   1.709   5.694   6.657 -0.9651  1.7070 -0.7282
  171SAPE   C2619354   1.617   5.729   6.839 -0.6034 -0.1900 -0.1060
  171SAPE   H6R19355   1.622   5.622   6.866  0.0800  0.5823  3.3328
  171SAPE   C2719356   1.539   5.803   6.947  0.4953 -0.1639 -0.0352
  171SAPE   H7R19357   1.501   5.723   7.014 -1.5316 -1.5296 -2.6019
  171SAPE   H7S19358   1.451   5.849   6.896  1.2467  0.0052 -1.2078
  171SAPE   C2819359   1.608   5.919   7.013  0.0156  0.0763  0.5161
  171SAPE   H8R19360   1.646   5.997   6.945  0.7280  0.5342  1.4137
  171SAPE   C2919361   1.623   5.943   7.142 -0.3933  0.7201  0.0380
  171SAPE   H9R19362   1.668   6.038   7.173  0.2495  0.8793 -1.3291
  171SAPE  C21019363   1.575   5.855   7.250 -0.8309  0.3844 -0.5085
  171SAPE  H10R19364   1.643   5.767   7.252  1.0521  1.7904  0.3790
  171SAPE  H10S19365   1.486   5.797   7.219 -0.4377  0.1497 -1.2378
  171SAPE  C21119366   1.554   5.928   7.385 -0.6491 -0.0804 -0.4199
  171SAPE  H11R19367   1.606   6.024   7.399  2.8758 -1.9404  0.3985
  171SAPE  C21219368   1.489   5.872   7.488 -0.6455 -0.4176  0.8194
  171SAPE  H12R19369   1.474   5.939   7.574  1.1334  0.3149  0.5866
  171SAPE  C21319370   1.416   5.738   7.497 -0.2731 -0.0063  0.0377
  171SAPE  H13R19371   1.365   5.719   7.400  1.1030 -2.5077 -0.2757
  171SAPE  H13S19372   1.337   5.762   7.572  1.2815  0.4848  1.5808
  171SAPE  C21419373   1.493   5.621   7.552  0.1516 -0.0902  0.3325
  171SAPE  H14R19374   1.524   5.552   7.473  0.8596  0.6082 -0.0195
  171SAPE  C21519375   1.543   5.602   7.676 -0.0680 -0.0154 -0.2111
  171SAPE  H15R19376   1.593   5.508   7.704 -0.4334 -0.0208  0.4367
  171SAPE  C21619377   1.523   5.691   7.795  0.0316  0.0657 -0.4190
  171SAPE  H16R19378   1.500   5.797   7.773 -1.1187 -0.3058 -1.1508
  171SAPE  H16S19379   1.623   5.701   7.842  0.9497 -0.8092 -2.0732
  171SAPE  C21719380   1.413   5.653   7.905 -0.0386  0.2952  0.0947
  171SAPE  H17R19381   1.443   5.560   7.957  1.6223  0.6295 -0.2017
  171SAPE  H17S19382   1.321   5.631   7.846 -0.6184  2.3539  0.1565
  171SAPE  C21819383   1.363   5.763   8.002  0.5841 -0.1621  1.2498
  171SAPE  H18R19384   1.261   5.727   8.025  0.9120  0.8365  4.8161
  171SAPE  H18S19385   1.363   5.857   7.943 -1.0657 -0.7528  0.2259
  171SAPE  C21919386   1.451   5.765   8.121 -0.6507  0.5469  0.1702
  171SAPE  H19R19387   1.554   5.799   8.096  0.0551 -1.8262 -0.3884
  171SAPE  H19S19388   1.449   5.664   8.168 -0.7436  1.4781  2.2712
  171SAPE  C22019389   1.396   5.865   8.225 -1.0377 -0.1898  0.6839
  171SAPE  H20R19390   1.286   5.860   8.234 -1.0227 -0.2589  0.8385
  171SAPE  H20S19391   1.437   5.965   8.198  1.7026 -1.3654  0.0605
  171SAPE  H20T19392   1.447   5.840   8.320 -0.2865 -0.1171  0.3075
  171SAPE   C3319393   2.029   5.985   6.967  0.2292  0.3496 -0.1465
  171SAPE   H3X19394   2.124   6.031   7.002  0.2411  0.2099  0.0056
  171SAPE   H3Y19395   2.057   5.901   6.901 -2.0930 -0.4762 -0.1640
  171SAPE   C3419396   1.956   5.939   7.098  0.0550 -0.2603  0.3671
  171SAPE   H4X19397   1.873   5.877   7.057  1.3023 -2.4284  0.9659
  171SAPE   H4Y19398   1.919   6.022   7.161 -3.2178 -0.8664 -0.5884
  171SAPE   C3519399   2.042   5.856   7.194 -0.4698 -0.1140 -0.3562
  171SAPE   H5X19400   2.127   5.926   7.211 -0.9074 -0.0608  2.0048
  171SAPE   H5Y19401   2.068   5.763   7.139 -1.8642 -0.6224 -0.1896
  171SAPE   C3619402   1.970   5.818   7.324 -0.2824  0.0217 -1.0771
  171SAPE   H6X19403   1.878   5.756   7.316  0.6698 -1.5536 -0.2333
  171SAPE   H6Y19404   1.933   5.914   7.367 -2.6751 -0.9470 -0.7937
  171SAPE   C3719405   2.077   5.760   7.422  0.1232 -0.0457 -0.1831
  171SAPE   H7X19406   2.171   5.818   7.430 -0.1539  0.5646 -1.2709
  171SAPE   H7Y19407   2.100   5.665   7.369  0.4516 -0.8251  1.3024
  171SAPE   C3819408   2.031   5.716   7.565 -0.4584 -1.2949 -0.0811
  171SAPE   H8X19409   2.005   5.803   7.630 -2.6901 -2.5278  0.7764
  171SAPE   H8Y19410   2.117   5.667   7.614  0.2479 -0.3054 -0.2857
  171SAPE   C3919411   1.910   5.626   7.573 -0.1177  0.2745 -0.6744
  171SAPE   H9X19412   1.912   5.557   7.486 -0.1747  2.1989 -2.2763
  171SAPE   H9Y19413   1.822   5.692   7.552  0.1929  0.4224 -1.5751
  171SAPE  C31019414   1.893   5.555   7.708 -0.2211 -0.5112 -0.0924
  171SAPE  H10X19415   1.983   5.491   7.719  1.3558  1.6615  0.4900
  171SAPE  H10Y19416   1.802   5.491   7.710 -1.6959  1.4839  0.4917
  171SAPE  C31119417   1.883   5.665   7.819  0.3341 -0.0258 -0.5460
  171SAPE  H11X19418   1.798   5.729   7.790 -0.4142 -0.4608  0.6301
  171SAPE  H11Y19419   1.978   5.723   7.825  0.1945  0.0258  1.8922
  171SAPE  C31219420   1.859   5.599   7.959  0.6229 -0.5475 -0.4461
  171SAPE  H12X19421   1.947   5.542   7.996  0.7862  0.1146  0.2021
  171SAPE  H12Y19422   1.768   5.536   7.950 -0.1319  0.1635  1.6970
  171SAPE  C31319423   1.834   5.709   8.062 -0.9258 -0.3592  0.1178
  171SAPE  H13X19424   1.770   5.794   8.029 -1.4487 -0.7919  0.0074
  171SAPE  H13Y19425   1.937   5.750   8.067 -0.6129 -0.6652 -2.4771
  171SAPE  C31419426   1.783   5.659   8.202  0.5257 -0.1535 -0.0946
  171SAPE  H14X19427   1.698   5.588   8.191  0.3442 -0.0185  0.4352
  171SAPE  H14Y19428   1.748   5.739   8.270  0.0171 -0.3264 -0.1479
  171SAPE  C31519429   1.895   5.581   8.271 -0.3897  0.0756  0.0960
  171SAPE  H15X19430   1.957   5.650   8.331 -2.3640  1.1975  0.9266
  171SAPE  H15Y19431   1.968   5.539   8.199 -1.2532 -1.2719 -0.0273
  171SAPE  C31619432   1.846   5.473   8.371 -0.0967  0.8642  0.4224
  171SAPE  H16X19433   1.748   5.446   8.327 -0.3951  0.0111  1.5665
  171SAPE  H16Y19434   1.836   5.513   8.474 -1.9111 -2.2881  1.6041
  171SAPE  C31719435   1.929   5.340   8.369 -0.4341  0.0927 -0.0168
  171SAPE  H17X19436   2.038   5.358   8.385 -0.6963 -0.0597  2.1025
  171SAPE  H17Y19437   1.916   5.285   8.273 -0.6302 -0.8521  0.5328
  171SAPE  C31819438   1.897   5.243   8.486  0.6614  0.6650  0.0604
  171SAPE  H18X19439   1.943   5.271   8.583 -2.9960  0.2347  2.0896
  171SAPE  H18Y19440   1.931   5.139   8.470 -0.7665  0.5302 -2.7337
  171SAPE  H18Z19441   1.787   5.233   8.490  0.6238 -0.6834 -2.4135
  172SAPE     N19442   2.579   4.097   6.430  0.1803  0.0179 -0.4325
  172SAPE   HN119443   2.586   4.182   6.489  0.3585  0.3678 -0.9488
  172SAPE   HN219444   2.669   4.046   6.436 -0.2730 -0.7588  0.0200
  172SAPE   HN319445   2.557   4.138   6.337 -0.7376  0.7164  0.0715
  172SAPE   C1219446   2.475   4.006   6.482  0.6195  0.3612 -0.5398
  172SAPE  H12A19447   2.385   4.071   6.489  0.2157 -0.2738  0.2207
  172SAPE  H12B19448   2.513   3.982   6.584  1.2777  1.0722 -0.6077
  172SAPE   C1119449   2.455   3.890   6.395  0.1241 -0.1046  0.3087
  172SAPE  H11A19450   2.370   3.832   6.438 -0.6927  0.5351 -0.4052
  172SAPE  H11B19451   2.548   3.830   6.390  0.6861  0.6408  1.5381
  172SAPE     P19452   2.364   3.819   6.164  0.0694 -0.0285 -0.9496
  172SAPE   O1319453   2.322   3.886   6.037  0.1282 -0.1265 -0.9932
  172SAPE   O1419454   2.467   3.711   6.156 -0.3305  0.3356  0.8699
  172SAPE   O1219455   2.410   3.936   6.268  0.0461 -0.6290  0.3147
  172SAPE   O1119456   2.242   3.765   6.242  0.1210  0.3949  0.0575
  172SAPE    C119457   2.199   3.631   6.257 -0.6956  0.2739 -0.4668
  172SAPE    HA19458   2.088   3.626   6.248 -0.9140 -1.7750  2.0703
  172SAPE    HB19459   2.237   3.557   6.183  2.4042 -0.4608  1.6937
  172SAPE    C219460   2.221   3.567   6.396 -0.5213 -0.7924 -0.0630
  172SAPE    HS19461   2.143   3.489   6.411 -0.5337 -0.9665 -0.9836
  172SAPE   O2119462   2.211   3.673   6.492  0.4088  0.1456  0.6397
  172SAPE   C2119463   2.097   3.720   6.537  0.3899 -0.0758 -0.6383
  172SAPE   O2219464   1.985   3.676   6.507  0.7913 -0.2293  0.1719
  172SAPE   C2219465   2.117   3.833   6.646  0.0548  0.4609 -0.1822
  172SAPE   H2R19466   2.118   3.927   6.586  0.7418 -0.1704 -1.1882
  172SAPE   H2S19467   2.028   3.822   6.712 -0.8981 -2.9173 -1.8053
  172SAPE    C319468   2.358   3.506   6.404  0.0699 -0.6085  0.1129
  172SAPE    HX19469   2.432   3.586   6.381  1.2145 -1.3218  1.1784
  172SAPE    HY19470   2.366   3.424   6.330 -1.2544 -2.8324  2.3015
  172SAPE   O3119471   2.384   3.446   6.537 -0.8221  0.7252  0.2805
  172SAPE   C3119472   2.436   3.510   6.636  0.3765 -0.5409 -0.4753
  172SAPE   O3219473   2.473   3.625   6.634 -0.2737  0.1603 -0.4302
  172SAPE   C3219474   2.420   3.430   6.768  0.3377  0.1256 -0.0153
  172SAPE   H2X19475   2.485   3.340   6.775 -0.2100 -0.2138  0.8863
  172SAPE   H2Y19476   2.311   3.406   6.769  0.5203 -0.8285 -1.0203
  172SAPE   C2319477   2.246   3.813   6.740  0.2303 -0.2398  1.1213
  172SAPE   H3R19478   2.331   3.859   6.685 -0.6679 -0.3775 -0.4519
  172SAPE   H3S19479   2.258   3.704   6.757  2.4502  0.0838  1.8805
  172SAPE   C2419480   2.240   3.885   6.879 -0.4027 -0.3993  0.0707
  172SAPE   H4R19481   2.320   3.842   6.942 -1.3579 -3.9983 -0.9336
  172SAPE   H4S19482   2.145   3.857   6.929  0.2751  0.1142  1.7065
  172SAPE   C2519483   2.249   4.035   6.882  0.2090 -1.4846 -0.2481
  172SAPE   H5R19484   2.237   4.081   6.782 -0.5877  1.0296  0.9391
  172SAPE   C2619485   2.241   4.119   6.989 -0.0932 -0.6142  0.9515
  172SAPE   H6R19486   2.249   4.228   6.979  0.8417 -0.8883 -2.7865
  172SAPE   C2719487   2.235   4.077   7.136  0.3486  0.4709  0.2009
  172SAPE   H7R19488   2.274   4.161   7.197 -1.7909  1.4521  0.3095
  172SAPE   H7S19489   2.312   3.999   7.153  0.5610  0.5002 -0.5911
  172SAPE   C2819490   2.099   4.040   7.185 -0.0866  0.4433  0.3665
  172SAPE   H8R19491   2.029   4.001   7.110 -1.0220  1.2373  0.8057
  172SAPE   C2919492   2.063   4.030   7.315 -0.7292  0.5073 -0.6849
  172SAPE   H9R19493   1.959   4.001   7.334 -0.6286  0.2933 -0.4477
  172SAPE  C21019494   2.147   4.053   7.435  0.3872  0.4663  0.7026
  172SAPE  H10R19495   2.247   4.012   7.408  0.4942  0.7061  0.7302
  172SAPE  H10S19496   2.098   3.992   7.513  0.4716 -1.8498 -0.9548
  172SAPE  C21119497   2.159   4.192   7.482  0.2078 -0.9949  0.6663
  172SAPE  H11R19498   2.109   4.266   7.417  0.6986 -1.8106 -0.6806
  172SAPE  C21219499   2.201   4.236   7.602 -0.0505  0.1595  0.7632
  172SAPE  H12R19500   2.203   4.345   7.620  2.0594  0.5404 -1.3195
  172SAPE  C21319501   2.237   4.141   7.720 -0.2910 -0.1529  0.1361
  172SAPE  H13R19502   2.326   4.180   7.775 -1.0892  2.4954 -0.2832
  172SAPE  H13S19503   2.263   4.042   7.678  0.2080 -0.6760  1.5938
  172SAPE  C21419504   2.119   4.120   7.813 -0.4595 -0.5193  0.4641
  172SAPE  H14R19505   2.054   4.040   7.774 -0.7082  0.1808 -0.6235
  172SAPE  C21519506   2.085   4.185   7.925 -0.6795  0.2189  0.2843
  172SAPE  H15R19507   1.986   4.164   7.969 -0.2993 -0.5481  0.7986
  172SAPE  C21619508   2.160   4.300   7.983  0.1404 -0.0364 -0.2354
  172SAPE  H16R19509   2.233   4.342   7.910  0.5895 -1.9877 -0.9651
  172SAPE  H16S19510   2.207   4.271   8.080  2.0919  1.6694 -0.5965
  172SAPE  C21719511   2.056   4.412   8.004 -0.3567 -0.3930 -0.4646
  172SAPE  H17R19512   1.956   4.366   8.015  0.6249 -1.9285  3.8320
  172SAPE  H17S19513   2.046   4.476   7.913 -1.9100 -1.7439 -1.2990
  172SAPE  C21819514   2.071   4.484   8.138  0.1718 -0.4437 -0.5104
  172SAPE  H18R19515   2.161   4.549   8.141  1.0168 -1.6115  0.4279
  172SAPE  H18S19516   2.071   4.408   8.218  1.1169  0.3652  0.2800
  172SAPE  C21919517   1.956   4.582   8.176 -0.0212 -0.2697 -1.0267
  172SAPE  H19R19518   1.966   4.607   8.284 -0.4583 -1.7881 -0.6124
  172SAPE  H19S19519   1.856   4.534   8.167 -0.3627 -0.3353  2.0444
  172SAPE  C22019520   1.970   4.716   8.096  0.7463 -0.3449 -0.4659
  172SAPE  H20R19521   2.071   4.760   8.102  0.6524 -0.2494  0.4966
  172SAPE  H20S19522   1.893   4.793   8.119 -0.5753 -1.3711 -1.3104
  172SAPE  H20T19523   1.956   4.685   7.990  1.1000 -2.0249 -0.0589
  172SAPE   C3319524   2.432   3.511   6.899 -0.8313  0.1124  0.2260
  172SAPE   H3X19525   2.349   3.585   6.900 -0.3583  0.6593  1.2400
  172SAPE   H3Y19526   2.539   3.542   6.903 -0.5192 -1.0077  1.0893
  172SAPE   C3419527   2.405   3.438   7.029  0.0449 -0.3421  0.0810
  172SAPE   H4X19528   2.461   3.342   7.021  1.8120  0.6907 -0.3611
  172SAPE   H4Y19529   2.297   3.410   7.025  0.4722 -1.9873 -1.9855
  172SAPE   C3519530   2.456   3.522   7.149 -0.9005  0.5467  0.4477
  172SAPE   H5X19531   2.391   3.608   7.176 -1.5455 -0.5734  2.7275
  172SAPE   H5Y19532   2.562   3.554   7.139 -0.7494  0.0119  0.3139
  172SAPE   C3619533   2.462   3.449   7.283  0.1619  0.4337  0.6302
  172SAPE   H6X19534   2.529   3.362   7.271  2.2097  1.8874  0.9996
  172SAPE   H6Y19535   2.363   3.400   7.295 -0.2751  1.1135 -0.1555
  172SAPE   C3719536   2.510   3.545   7.394  0.1747 -0.3131  0.2824
  172SAPE   H7X19537   2.463   3.645   7.379 -1.2650 -1.0992 -0.7336
  172SAPE   H7Y19538   2.617   3.563   7.368 -0.3818  0.3763 -1.7674
  172SAPE   C3819539   2.493   3.492   7.533  0.5323 -0.5477  0.1311
  172SAPE   H8X19540   2.383   3.487   7.548  0.1146  3.6463 -0.4114
  172SAPE   H8Y19541   2.519   3.571   7.606  0.9978  1.1081 -1.7535
  172SAPE   C3919542   2.549   3.351   7.563 -0.7286 -0.3077 -0.7959
  172SAPE   H9X19543   2.657   3.360   7.586 -0.3335 -0.8769 -2.2982
  172SAPE   H9Y19544   2.545   3.282   7.476 -0.1078  0.5817 -1.5515
  172SAPE  C31019545   2.496   3.278   7.688 -0.6567 -0.0212  0.1314
  172SAPE  H10X19546   2.529   3.172   7.679 -2.1079 -0.6898  2.0648
  172SAPE  H10Y19547   2.386   3.275   7.700 -0.7406  0.9871 -0.3277
  172SAPE  C31119548   2.559   3.338   7.816 -0.1739 -0.3276 -0.2527
  172SAPE  H11X19549   2.527   3.444   7.825  0.7738 -0.0726  0.1287
  172SAPE  H11Y19550   2.669   3.334   7.802 -0.1341  0.5644 -0.2739
  172SAPE  C31219551   2.515   3.266   7.944 -0.7593 -0.6687  0.1886
  172SAPE  H12X19552   2.409   3.235   7.940 -0.5462 -1.2708 -1.1825
  172SAPE  H12Y19553   2.519   3.350   8.017  2.0440  1.3087 -2.0292
  172SAPE  C31319554   2.614   3.164   7.995  0.5059 -0.5266 -0.1934
  172SAPE  H13X19555   2.718   3.194   7.971  0.3257 -0.8271 -1.4285
  172SAPE  H13Y19556   2.600   3.070   7.938  2.3852 -0.1179 -1.4207
  172SAPE  C31419557   2.590   3.136   8.141  0.1055  0.3447 -0.3153
  172SAPE  H14X19558   2.481   3.149   8.156  0.0459  2.9214 -2.2769
  172SAPE  H14Y19559   2.637   3.217   8.200 -2.4658  0.9255  1.0753
  172SAPE  C31519560   2.649   3.001   8.197 -0.6004 -0.1861  0.0736
  172SAPE  H15X19561   2.629   3.005   8.306 -0.4979  2.5328  0.0731
  172SAPE  H15Y19562   2.759   2.999   8.182 -0.5558 -1.2097  0.4540
  172SAPE  C31619563   2.592   2.875   8.134  0.0487 -0.0573  0.2364
  172SAPE  H16X19564   2.656   2.786   8.153  0.0040 -0.5363 -1.6378
  172SAPE  H16Y19565   2.579   2.892   8.025 -0.6499  0.3507  0.3829
  172SAPE  C31719566   2.451   2.835   8.188 -0.1555  0.2733 -0.2960
  172SAPE  H17X19567   2.376   2.916   8.172 -0.5037  0.0448  0.1614
  172SAPE  H17Y19568   2.472   2.829   8.297  1.0008 -0.0065 -0.5256
  172SAPE  C31819569   2.400   2.699   8.136 -0.3399  0.1130  0.1975
  172SAPE  H18X19570   2.481   2.623   8.145 -1.7730 -1.2644  2.2140
  172SAPE  H18Y19571   2.365   2.696   8.030 -2.2485 -2.0657  0.8159
  172SAPE  H18Z19572   2.317   2.659   8.197 -0.4553  1.9934  1.3256
  173SOPE     N19573   3.498   0.866  11.325  0.4407 -0.4184 -0.3477
  173SOPE   HN119574   3.428   0.790  11.335 -1.8523  1.4696 -1.2242
  173SOPE   HN219575   3.548   0.870  11.416 -1.4123 -1.2090  0.7446
  173SOPE   HN319576   3.436   0.949  11.315 -1.4032 -1.2971  2.5801
  173SOPE   C1219577   3.583   0.852  11.199 -1.1999 -0.9192  0.1493
  173SOPE  H12A19578   3.654   0.768  11.212 -2.4534 -2.4193 -2.0858
  173SOPE  H12B19579   3.644   0.945  11.198  3.2227 -3.5332 -1.3828
  173SOPE   C1119580   3.504   0.848  11.070 -0.2307 -0.2891  0.3174
  173SOPE  H11A19581   3.441   0.757  11.073 -1.0431  0.0600 -3.0229
  173SOPE  H11B19582   3.565   0.814  10.984 -0.9854 -2.9525  0.7365
  173SOPE     P19583   3.477   1.088  10.966 -0.3623 -0.1225  0.4985
  173SOPE   O1319584   3.622   1.098  10.989 -0.8748 -0.0592  0.3829
  173SOPE   O1419585   3.392   1.210  10.978  0.0572  0.5198 -0.1040
  173SOPE   O1219586   3.425   0.963  11.049 -0.2918  0.4164  0.4341
  173SOPE   O1119587   3.455   1.025  10.822 -0.0898  0.2037  0.2248
  173SOPE    C119588   3.333   0.961  10.784  0.4930 -0.0301  0.0158
  173SOPE    HA19589   3.244   1.004  10.834  0.2365  1.2413 -1.4680
  173SOPE    HB19590   3.341   0.858  10.825  1.3261 -0.3286 -0.8422
  173SOPE    C219591   3.306   0.960  10.626 -0.3783 -0.1447 -0.1245
  173SOPE    HS19592   3.230   0.883  10.602 -1.2415  0.4622  0.5870
  173SOPE   O2119593   3.435   0.930  10.563  0.9965 -0.6732  0.3074
  173SOPE   C2119594   3.456   0.801  10.550  0.4848 -0.1750 -0.3657
  173SOPE   O2219595   3.373   0.712  10.572  0.3179  0.2747 -0.3526
  173SOPE   C2219596   3.603   0.783  10.513 -0.2027  0.0058  0.9837
  173SOPE   H2R19597   3.632   0.677  10.501 -0.1343  0.1321 -0.0185
  173SOPE   H2S19598   3.661   0.822  10.600  0.2707 -1.5366  1.3897
  173SOPE    C319599   3.259   1.099  10.574  0.5335  0.0333  0.2338
  173SOPE    HX19600   3.324   1.181  10.611  1.1505 -0.2070 -0.2930
  173SOPE    HY19601   3.160   1.126  10.615  0.7823  1.2024  0.0872
  173SOPE   O3119602   3.244   1.103  10.432 -0.2186 -0.6816 -0.3937
  173SOPE   C3119603   3.345   1.155  10.363  0.9836  0.9117  0.3794
  173SOPE   O3219604   3.436   1.210  10.409 -0.0113  0.1228 -0.3163
  173SOPE   C3219605   3.333   1.121  10.215 -0.2066 -0.0947 -0.7998
  173SOPE   H2X19606   3.374   1.019  10.199 -2.3306 -0.9433 -1.2230
  173SOPE   H2Y19607   3.405   1.191  10.169  0.1771 -0.5369 -0.8817
  173SOPE   C2319608   3.653   0.861  10.388  0.0827 -0.2022 -0.3265
  173SOPE   H3R19609   3.761   0.836  10.380 -0.4639 -2.0234 -4.1720
  173SOPE   H3S19610   3.640   0.971  10.382  0.1528 -0.1049  1.0119
  173SOPE   C2419611   3.589   0.806  10.258 -0.7631  0.7220  0.3213
  173SOPE   H4R19612   3.596   0.695  10.261 -0.0319  0.7246 -0.8359
  173SOPE   H4S19613   3.480   0.829  10.267 -1.0665 -0.3140 -0.5509
  173SOPE   C2519614   3.630   0.872  10.123  0.2950 -0.5041  0.1826
  173SOPE   H5R19615   3.610   0.981  10.136 -0.7198 -0.8074  1.3374
  173SOPE   H5S19616   3.737   0.867  10.093  0.2303 -1.1786  0.0441
  173SOPE   C2619617   3.548   0.821  10.002 -0.0088 -0.7399 -0.7238
  173SOPE   H6R19618   3.578   0.714   9.996  0.5297 -0.7461  1.2538
  173SOPE   H6S19619   3.444   0.831  10.037  0.0240  0.0739 -0.8448
  173SOPE   C2719620   3.569   0.888   9.871 -0.7150 -0.1706 -0.2561
  173SOPE   H7R19621   3.530   0.992   9.868  0.0319  0.1685  1.0934
  173SOPE   H7S19622   3.677   0.903   9.851 -1.2450  1.2630 -2.3975
  173SOPE   C2819623   3.487   0.822   9.751 -0.7051  0.5722 -0.5277
  173SOPE   H8R19624   3.496   0.712   9.735 -0.2450  0.5035  0.1578
  173SOPE   H8S19625   3.382   0.835   9.785 -0.3485 -2.4221  2.2075
  173SOPE   C2919626   3.512   0.894   9.620 -0.2470 -0.2321  0.1662
  173SOPE   H9119627   3.618   0.919   9.609 -0.5069  1.4329  1.0865
  173SOPE  C21019628   3.428   0.936   9.530  0.1129  0.2147 -0.0615
  173SOPE  H10119629   3.463   0.991   9.441 -0.2060 -1.7969 -1.5079
  173SOPE  C21119630   3.282   0.923   9.538  0.8322 -0.5759  0.2401
  173SOPE  H11R19631   3.250   0.833   9.596 -2.9969 -0.4219 -1.3013
  173SOPE  H11S19632   3.234   0.892   9.443  2.5899  1.3193 -1.3300
  173SOPE  C21219633   3.212   1.059   9.581 -0.5900  0.4028  0.3182
  173SOPE  H12R19634   3.233   1.076   9.688  0.5611 -1.4213  0.4186
  173SOPE  H12S19635   3.103   1.037   9.569 -0.1621 -0.8933 -1.8787
  173SOPE  C21319636   3.244   1.184   9.488 -0.2893 -0.6349  0.4674
  173SOPE  H13R19637   3.343   1.225   9.520 -1.5104  1.1469  2.1959
  173SOPE  H13S19638   3.167   1.258   9.519 -0.5662 -0.7672  0.0916
  173SOPE  C21419639   3.251   1.152   9.334 -0.1933  0.1029 -0.9654
  173SOPE  H14R19640   3.147   1.123   9.305 -0.7450  1.2442 -0.1879
  173SOPE  H14S19641   3.319   1.066   9.315  1.2443  0.6941  1.1849
  173SOPE  C21519642   3.297   1.270   9.252 -0.2273 -0.4928 -0.4131
  173SOPE  H15R19643   3.392   1.301   9.300 -0.3127 -1.1422  0.1793
  173SOPE  H15S19644   3.228   1.357   9.247  0.4227 -0.0045 -1.1171
  173SOPE  C21619645   3.316   1.221   9.110  0.0747 -0.2659  0.3168
  173SOPE  H16R19646   3.216   1.189   9.074 -1.0170  0.7863  2.1728
  173SOPE  H16S19647   3.378   1.130   9.123  1.1469  0.5471  1.0679
  173SOPE  C21719648   3.383   1.329   9.013  0.6187  0.2728  0.0227
  173SOPE  H17R19649   3.492   1.326   9.036  0.5664  0.0354  0.2430
  173SOPE  H17S19650   3.354   1.435   9.029  0.8597  0.1197  1.6648
  173SOPE  C21819651   3.372   1.284   8.867 -0.5612  0.0878 -0.4296
  173SOPE  H18R19652   3.403   1.370   8.805  2.1057  0.9139  1.8450
  173SOPE  H18S19653   3.269   1.258   8.834  0.2390 -1.2308 -2.0700
  173SOPE  H18T19654   3.436   1.196   8.843  0.0624  0.1636  0.8840
  173SOPE   C3319655   3.189   1.138  10.159 -0.3401 -0.6413 -0.1110
  173SOPE   H3X19656   3.121   1.066  10.210 -3.5344  1.4326 -1.0741
  173SOPE   H3Y19657   3.193   1.125  10.049  0.1336 -0.0313 -0.1709
  173SOPE   C3419658   3.140   1.283  10.169  0.4684 -0.7298  0.2482
  173SOPE   H4X19659   3.211   1.349  10.117 -1.1644  1.7164  0.9526
  173SOPE   H4Y19660   3.135   1.311  10.277  0.9092 -0.7128  0.2674
  173SOPE   C3519661   3.000   1.311  10.111  0.3900  0.3834  0.3281
  173SOPE   H5X19662   2.948   1.401  10.151 -0.4941 -0.5974  1.4641
  173SOPE   H5Y19663   2.923   1.237  10.142 -1.5755  2.8350  1.6914
  173SOPE   C3619664   2.982   1.314   9.960  0.7467  0.7387 -0.0108
  173SOPE   H6X19665   2.976   1.213   9.914  2.2170  0.2953  0.6886
  173SOPE   H6Y19666   3.077   1.361   9.926  1.4008  0.2746  1.1039
  173SOPE   C3719667   2.855   1.390   9.917 -0.2994 -0.4711 -0.0315
  173SOPE   H7X19668   2.874   1.499   9.926 -1.1422 -0.1305 -1.9139
  173SOPE   H7Y19669   2.768   1.360   9.980  0.1621 -1.8389 -0.0025
  173SOPE   C3819670   2.818   1.363   9.771  0.0750 -0.6742  0.4009
  173SOPE   H8X19671   2.719   1.409   9.752  0.6662  0.8517  0.8656
  173SOPE   H8Y19672   2.806   1.255   9.748  0.5763 -1.0379  1.7538
  173SOPE   C3919673   2.913   1.427   9.669 -0.0643 -0.1572  0.0456
  173SOPE   H9X19674   3.011   1.376   9.661  0.4550  0.7774  0.2434
  173SOPE   H9Y19675   2.947   1.530   9.695  1.4228 -0.7368  0.4782
  173SOPE  C31019676   2.854   1.433   9.527 -0.3186  0.0579  0.4178
  173SOPE  H10X19677   2.753   1.479   9.532 -0.9607 -1.3300  0.5396
  173SOPE  H10Y19678   2.835   1.329   9.494 -0.3330  1.0462 -3.1396
  173SOPE  C31119679   2.939   1.506   9.421 -0.7916  0.0724  0.1168
  173SOPE  H11X19680   3.046   1.480   9.430 -0.9986 -0.5438  0.9287
  173SOPE  H11Y19681   2.937   1.615   9.441  0.2027 -0.1273  1.4501
  173SOPE  C31219682   2.907   1.475   9.276 -0.4675 -0.2018  1.2459
  173SOPE  H12X19683   2.802   1.474   9.240  0.3828  1.2365 -1.6481
  173SOPE  H12Y19684   2.936   1.371   9.252 -2.9967 -0.8516  0.7455
  173SOPE  C31319685   2.988   1.563   9.186  0.8141 -0.2922 -0.5630
  173SOPE  H13X19686   3.098   1.546   9.196  1.2684  2.7811  0.8463
  173SOPE  H13Y19687   2.974   1.669   9.215  1.2119 -0.4368  0.1604
  173SOPE  C31419688   2.960   1.552   9.035 -0.2695 -0.3605  0.8764
  173SOPE  H14X19689   3.002   1.635   8.974  1.9321  0.9998  3.9612
  173SOPE  H14Y19690   2.850   1.555   9.024 -0.2240  0.8501  0.5792
  173SOPE  C31519691   3.007   1.422   8.977  0.0458 -0.5267 -0.9188
  173SOPE  H15X19692   3.003   1.337   9.049 -1.0030 -2.3438 -2.9932
  173SOPE  H15Y19693   3.116   1.422   8.958  0.4901 -1.0968  1.3893
  173SOPE  C31619694   2.920   1.383   8.856  0.6452 -0.0753 -0.0248
  173SOPE  H16X19695   2.962   1.435   8.767 -0.8791 -0.6178 -1.1046
  173SOPE  H16Y19696   2.814   1.414   8.866  0.6072 -0.4324  0.7488
  173SOPE  C31719697   2.935   1.231   8.821 -0.1929  0.7621 -0.4613
  173SOPE  H17X19698   3.040   1.198   8.810 -1.2466 -3.0387 -0.6849
  173SOPE  H17Y19699   2.886   1.206   8.724 -0.6113 -0.0750 -0.0453
  173SOPE  C31819700   2.857   1.152   8.932 -0.4754  0.7056  0.1662
  173SOPE  H18X19701   2.751   1.185   8.936 -0.1968  1.6145  0.3967
  173SOPE  H18Y19702   2.888   1.176   9.037 -1.6851  0.9271  0.4804
  173SOPE  H18Z19703   2.866   1.041   8.933 -0.6843  0.6514  2.6189
  174SOPE     N19704   2.282   6.071  10.723 -0.0412 -0.5733  0.6037
  174SOPE   HN119705   2.181   6.079  10.745 -0.3021 -3.1199  0.6457
  174SOPE   HN219706   2.306   6.080  10.622  1.3526  0.2642  0.9857
  174SOPE   HN319707   2.306   5.974  10.752 -1.1804 -0.7764  0.8997
  174SOPE   C1219708   2.359   6.171  10.804  0.1291 -1.3278  0.4983
  174SOPE  H12A19709   2.468   6.150  10.794  0.0739 -1.5139  0.2662
  174SOPE  H12B19710   2.335   6.156  10.911  2.7654  2.8980  1.9468
  174SOPE   C1119711   2.336   6.315  10.762  0.1869 -0.0908  0.1302
  174SOPE  H11A19712   2.391   6.386  10.827 -0.7274  0.2514  0.5511
  174SOPE  H11B19713   2.230   6.340  10.786 -0.4721 -2.3489 -0.0979
  174SOPE     P19714   2.268   6.377  10.501 -0.6494  0.2120  0.1339
  174SOPE   O1319715   2.132   6.329  10.518  0.5971  0.1045  0.0212
  174SOPE   O1419716   2.341   6.341  10.379 -0.1030 -0.0631  0.3845
  174SOPE   O1219717   2.358   6.323  10.620 -0.1557  0.5073  0.0272
  174SOPE   O1119718   2.286   6.530  10.530  0.6958 -0.4316  0.1757
  174SOPE    C119719   2.258   6.644  10.445 -0.5453 -0.1654 -0.5853
  174SOPE    HA19720   2.315   6.635  10.351  0.9061  1.4416  0.0770
  174SOPE    HB19721   2.295   6.737  10.495 -2.7567 -0.7028  2.3581
  174SOPE    C219722   2.114   6.670  10.412  0.6312 -0.4283  0.7196
  174SOPE    HS19723   2.060   6.675  10.509 -0.2338  0.1238  0.2246
  174SOPE   O2119724   2.066   6.558  10.341  0.1763  0.8392 -0.5041
  174SOPE   C2119725   1.933   6.541  10.348 -0.1983  0.1413 -0.5436
  174SOPE   O2219726   1.856   6.615  10.405  0.7042 -0.3844 -0.0903
  174SOPE   C2219727   1.877   6.418  10.263 -0.0442  0.8855  0.7366
  174SOPE   H2R19728   1.850   6.336  10.334 -0.8381 -0.5748 -1.1644
  174SOPE   H2S19729   1.963   6.385  10.201 -0.2413  1.7359 -0.0059
  174SOPE    C319730   2.088   6.802  10.328 -0.0841  0.2697 -0.1623
  174SOPE    HX19731   2.125   6.888  10.388  3.7520 -1.1262 -0.2495
  174SOPE    HY19732   1.977   6.807  10.323 -0.4814 -3.3605  1.7825
  174SOPE   O3119733   2.163   6.805  10.204  0.3934 -0.1689  0.0493
  174SOPE   C3119734   2.110   6.887  10.114  0.0854  0.1994 -0.3722
  174SOPE   O3219735   2.016   6.961  10.128 -0.3776  0.4779  0.0776
  174SOPE   C3219736   2.205   6.879   9.997  0.3841  0.6060  0.0343
  174SOPE   H2X19737   2.235   6.774   9.977 -0.6852  0.1620  0.6500
  174SOPE   H2Y19738   2.300   6.933  10.012  0.8673  0.9940 -3.5077
  174SOPE   C2319739   1.756   6.456  10.172  0.5648  0.5287 -0.7428
  174SOPE   H3R19740   1.678   6.497  10.240  1.2658 -1.3368  1.3179
  174SOPE   H3S19741   1.706   6.362  10.139  1.3176 -0.0956 -0.1604
  174SOPE   C2419742   1.784   6.541  10.051  0.5415 -0.7080 -0.3789
  174SOPE   H4R19743   1.687   6.575  10.009  0.4649 -0.7923 -0.2706
  174SOPE   H4S19744   1.837   6.635  10.078  0.5201 -0.6075 -0.6861
  174SOPE   C2519745   1.862   6.457   9.953 -0.0237 -0.0715 -0.1770
  174SOPE   H5R19746   1.941   6.400  10.007  0.1309  0.4525  0.1535
  174SOPE   H5S19747   1.800   6.371   9.922 -1.3274  0.9116 -0.3605
  174SOPE   C2619748   1.895   6.524   9.823  0.0405 -0.4509  0.1924
  174SOPE   H6R19749   1.804   6.569   9.777 -0.4661 -0.7873  0.8409
  174SOPE   H6S19750   1.955   6.616   9.837 -0.9621  0.5626 -1.7985
  174SOPE   C2719751   1.963   6.429   9.714  0.0687  0.8636  0.3692
  174SOPE   H7R19752   2.053   6.478   9.671 -0.0527  0.8297  0.0800
  174SOPE   H7S19753   1.998   6.339   9.771  2.9739  2.4390  1.2944
  174SOPE   C2819754   1.887   6.403   9.585  0.2258  0.4481 -0.3969
  174SOPE   H8R19755   1.952   6.346   9.515 -2.1276 -2.8287 -0.1359
  174SOPE   H8S19756   1.806   6.329   9.602 -1.1083  2.0631  0.5525
  174SOPE   C2919757   1.826   6.518   9.511  0.1935 -0.1784  0.1266
  174SOPE   H9119758   1.716   6.519   9.513  0.2055  0.0112  0.7169
  174SOPE  C21019759   1.889   6.602   9.432  0.1541  0.0481  0.2931
  174SOPE  H10119760   1.832   6.686   9.389  1.3686  0.8509  0.2186
  174SOPE  C21119761   2.035   6.596   9.383  0.3381  0.0380  0.0061
  174SOPE  H11R19762   2.111   6.548   9.449 -1.2839 -2.9104 -0.0743
  174SOPE  H11S19763   2.067   6.701   9.372 -0.6621  0.5671  1.8275
  174SOPE  C21219764   2.023   6.536   9.240 -0.5975 -0.2110  0.1689
  174SOPE  H12R19765   2.097   6.592   9.180 -0.9022 -2.1778 -2.1994
  174SOPE  H12S19766   1.923   6.538   9.191  0.2268  2.1421 -1.5537
  174SOPE  C21319767   2.065   6.390   9.225  0.7826  0.3048  0.4539
  174SOPE  H13R19768   1.993   6.333   9.288 -2.4650  1.8401 -1.6164
  174SOPE  H13S19769   2.170   6.383   9.262  0.3170  0.5172  1.9055
  174SOPE  C21419770   2.044   6.336   9.080  0.3599  0.0970  0.6092
  174SOPE  H14R19771   1.935   6.340   9.060  0.4476 -1.5061 -0.3320
  174SOPE  H14S19772   2.074   6.229   9.089 -1.4981 -0.4651  0.5312
  174SOPE  C21519773   2.130   6.405   8.977  1.5151  0.3792  0.1118
  174SOPE  H15R19774   2.214   6.333   8.969  0.7507 -0.9227  2.7840
  174SOPE  H15S19775   2.177   6.498   9.016 -1.5325  1.8482  0.5655
  174SOPE  C21619776   2.060   6.431   8.847  0.4787  0.2465  0.4514
  174SOPE  H16R19777   1.975   6.493   8.882  0.6040 -0.3561  1.9107
  174SOPE  H16S19778   2.022   6.338   8.799 -0.0972 -0.0815  1.4975
  174SOPE  C21719779   2.149   6.492   8.745  0.0506 -0.0565  1.0043
  174SOPE  H17R19780   2.233   6.419   8.736 -0.5056 -0.5357 -0.7070
  174SOPE  H17S19781   2.190   6.585   8.791  1.5619 -1.3487  2.4079
  174SOPE  C21819782   2.083   6.505   8.606 -0.0506  0.5204  0.0807
  174SOPE  H18R19783   2.037   6.412   8.564 -0.4594  0.9082 -0.3518
  174SOPE  H18S19784   2.156   6.546   8.533 -0.0951  1.8007  0.7327
  174SOPE  H18T19785   2.002   6.580   8.618  0.7954  1.7221 -1.4713
  174SOPE   C3319786   2.141   6.941   9.866 -0.1551 -0.3022  0.5480
  174SOPE   H3X19787   2.097   7.038   9.897 -0.1255 -0.8057  2.2812
  174SOPE   H3Y19788   2.060   6.882   9.818  1.4641 -0.9162 -1.5787
  174SOPE   C3419789   2.241   6.969   9.753  0.5914 -0.9160 -0.2052
  174SOPE   H4X19790   2.305   6.878   9.748 -0.4113 -1.7593  1.4173
  174SOPE   H4Y19791   2.307   7.052   9.785 -0.6742 -1.1121  3.3148
  174SOPE   C3519792   2.175   6.996   9.621  0.1077 -0.7210  0.7664
  174SOPE   H5X19793   2.106   7.081   9.636  1.6597  0.5337  1.0755
  174SOPE   H5Y19794   2.111   6.910   9.591 -2.9912  0.7005  2.8691
  174SOPE   C3619795   2.274   7.029   9.504 -0.5382 -0.5019  0.2858
  174SOPE   H6X19796   2.330   6.934   9.490  0.2563  0.1669 -1.1675
  174SOPE   H6Y19797   2.342   7.111   9.531  0.6916 -0.8057 -1.7009
  174SOPE   C3719798   2.204   7.035   9.364 -0.7048  0.1971 -1.2389
  174SOPE   H7X19799   2.174   7.142   9.354 -1.3733 -0.0015 -1.3512
  174SOPE   H7Y19800   2.106   6.983   9.364 -1.3803  1.3181  1.0375
  174SOPE   C3819801   2.299   7.001   9.244 -0.7958  0.1782 -0.0882
  174SOPE   H8X19802   2.317   6.891   9.241 -0.9825  0.1634 -0.8147
  174SOPE   H8Y19803   2.384   7.071   9.261 -2.2230  1.7180  1.1117
  174SOPE   C3919804   2.231   7.027   9.112  0.0118  0.5880  0.2630
  174SOPE   H9X19805   2.135   6.972   9.121  1.5059 -2.0812  0.7007
  174SOPE   H9Y19806   2.289   6.968   9.038 -0.3552 -1.2341  1.3628
  174SOPE  C31019807   2.241   7.170   9.069  1.6261  0.5694  0.9175
  174SOPE  H10X19808   2.349   7.194   9.063  1.6564  0.8129  2.2200
  174SOPE  H10Y19809   2.201   7.240   9.146 -1.7202  0.8644 -0.8632
  174SOPE  C31119810   2.174   7.201   8.930 -0.6610 -0.0498 -0.6159
  174SOPE  H11X19811   2.072   7.160   8.948 -0.5505  0.0428  0.2751
  174SOPE  H11Y19812   2.215   7.146   8.843  1.9852  0.6717  0.0962
  174SOPE  C31219813   2.165   7.348   8.912 -0.3824 -0.9062  0.3286
  174SOPE  H12X19814   2.267   7.389   8.900 -0.7471 -0.7383 -3.1445
  174SOPE  H12Y19815   2.116   7.394   9.001 -2.4865 -0.9452 -0.7548
  174SOPE  C31319816   2.103   7.378   8.776  0.0952 -0.5449 -0.4983
  174SOPE  H13X19817   1.992   7.367   8.782 -0.2893  2.7409  0.4169
  174SOPE  H13Y19818   2.143   7.311   8.697 -1.5695 -0.6453 -1.3044
  174SOPE  C31419819   2.123   7.526   8.731  0.2751  0.0237  0.6418
  174SOPE  H14X19820   2.233   7.535   8.718 -0.0279 -0.2665 -3.6129
  174SOPE  H14Y19821   2.087   7.590   8.814  0.7735  2.0230 -0.6163
  174SOPE  C31519822   2.058   7.571   8.597 -0.2630 -0.0508 -0.4668
  174SOPE  H15X19823   2.100   7.673   8.586  2.5799 -1.2346 -1.3290
  174SOPE  H15Y19824   1.947   7.570   8.603 -0.1883 -0.7898  2.0942
  174SOPE  C31619825   2.095   7.479   8.484 -0.1160  0.9397  0.3497
  174SOPE  H16X19826   2.037   7.386   8.503  1.8049 -0.4357 -0.3100
  174SOPE  H16Y19827   2.204   7.459   8.482 -0.3721 -0.4864 -1.4286
  174SOPE  C31719828   2.057   7.545   8.344  0.0827 -0.1340  0.5994
  174SOPE  H17X19829   2.130   7.623   8.315  1.0081 -1.0994  0.2680
  174SOPE  H17Y19830   1.965   7.607   8.353  0.0648 -0.0703 -0.0083
  174SOPE  C31819831   2.061   7.455   8.219  0.0037 -0.6226  0.1062
  174SOPE  H18X19832   2.058   7.500   8.118  1.5576  0.6670  0.6044
  174SOPE  H18Y19833   1.974   7.386   8.225 -0.3951 -0.1097  0.1834
  174SOPE  H18Z19834   2.153   7.392   8.231 -0.0901 -0.9423 -0.7577
  175SOPE     N19835   4.860   4.045  10.536  0.8745 -0.4626 -0.5268
  175SOPE   HN119836   4.944   4.001  10.493  2.5501 -0.3849  2.4144
  175SOPE   HN219837   4.881   4.096  10.624 -0.4752  0.6370 -0.7966
  175SOPE   HN319838   4.791   3.974  10.565 -1.1086  1.8744  0.8455
  175SOPE   C1219839   4.790   4.146  10.446 -0.1514  0.1156 -0.4717
  175SOPE  H12A19840   4.861   4.192  10.374  0.7512  1.1166  0.9857
  175SOPE  H12B19841   4.742   4.225  10.508 -0.0688 -0.6587  0.5982
  175SOPE   C1119842   4.687   4.084  10.352  0.6269  0.5997 -0.0554
  175SOPE  H11A19843   4.747   4.025  10.280  1.5603  0.5806  0.7358
  175SOPE  H11B19844   4.646   4.168  10.291  3.3092  0.8392 -1.6855
  175SOPE     P19845   4.567   3.857  10.402  0.3305  0.1728  0.3206
  175SOPE   O1319846   4.457   3.804  10.488  0.1215 -0.6923 -0.2128
  175SOPE   O1419847   4.701   3.793  10.399  0.2097 -0.7235 -0.3775
  175SOPE   O1219848   4.593   4.007  10.429 -0.0074  0.7445  0.3643
  175SOPE   O1119849   4.506   3.853  10.257  0.0058 -0.0495 -0.5902
  175SOPE    C119850   4.394   3.945  10.233 -0.5209  0.4349  0.3554
  175SOPE    HA19851   4.404   3.987  10.130 -0.4045  1.6715  0.8552
  175SOPE    HB19852   4.394   4.039  10.292 -0.9550  0.8164 -0.2421
  175SOPE    C219853   4.257   3.870  10.222 -0.9053  0.2337  0.0687
  175SOPE    HS19854   4.250   3.810  10.316 -1.7106  1.4927  0.8431
  175SOPE   O2119855   4.263   3.802  10.101 -0.1675  0.1710 -0.1979
  175SOPE   C2119856   4.275   3.670  10.097  0.4678 -0.2742  0.0453
  175SOPE   O2219857   4.273   3.598  10.195  0.0174 -0.3006 -0.4992
  175SOPE   C2219858   4.303   3.623   9.955  0.1921 -0.7634 -0.3121
  175SOPE   H2R19859   4.236   3.536   9.938 -0.9656  0.4029 -2.0463
  175SOPE   H2S19860   4.407   3.586   9.947  1.6337  2.9663 -0.5674
  175SOPE    C319861   4.127   3.956  10.211 -0.7034 -0.4812  0.1807
  175SOPE    HX19862   4.133   4.034  10.290 -1.3441  1.4024 -1.5418
  175SOPE    HY19863   4.039   3.888  10.219 -1.0682  0.0671  1.0009
  175SOPE   O3119864   4.137   4.040  10.090  0.0673  0.4004  0.1840
  175SOPE   C3119865   4.064   3.992   9.991 -0.0660  0.7944  0.4682
  175SOPE   O3219866   3.995   3.891   9.998  0.2897 -0.3259  0.3863
  175SOPE   C3219867   4.077   4.082   9.872 -0.0610  0.7151  0.2498
  175SOPE   H2X19868   4.183   4.084   9.838 -0.3265  0.1286 -0.6517
  175SOPE   H2Y19869   4.039   4.180   9.906 -1.5756  0.1273  0.3281
  175SOPE   C2319870   4.263   3.717   9.837  0.4241 -0.4730 -0.8090
  175SOPE   H3R19871   4.345   3.791   9.824  0.0532 -0.3104 -2.4140
  175SOPE   H3S19872   4.178   3.786   9.853  0.4802 -0.4964 -0.3882
  175SOPE   C2419873   4.238   3.638   9.707 -0.8061  0.4245 -0.3779
  175SOPE   H4R19874   4.332   3.585   9.683 -1.2461  0.2653 -1.8743
  175SOPE   H4S19875   4.160   3.559   9.712  0.5155 -0.8701  0.3804
  175SOPE   C2519876   4.199   3.731   9.595 -0.1900  0.0691  0.4248
  175SOPE   H5R19877   4.105   3.791   9.602  0.8427  1.5487  2.6750
  175SOPE   H5S19878   4.281   3.804   9.585 -0.2339  0.0421 -0.2139
  175SOPE   C2619879   4.204   3.646   9.467  0.0095  0.4581 -0.9999
  175SOPE   H6R19880   4.291   3.577   9.470 -0.3997 -0.0530  1.3108
  175SOPE   H6S19881   4.109   3.588   9.467 -0.7078  1.4461  2.0164
  175SOPE   C2719882   4.208   3.734   9.339 -0.1453 -0.1625  0.2658
  175SOPE   H7R19883   4.119   3.800   9.349 -0.0730 -0.1121  0.5979
  175SOPE   H7S19884   4.298   3.799   9.348 -0.8385  0.5490  2.7205
  175SOPE   C2819885   4.195   3.661   9.204 -0.9468 -0.5202  0.4079
  175SOPE   H8R19886   4.159   3.557   9.220 -1.6870 -0.2514  0.5570
  175SOPE   H8S19887   4.116   3.711   9.145  0.9250  2.1771  0.0325
  175SOPE   C2919888   4.322   3.659   9.116  0.2813  0.1663  0.8831
  175SOPE   H9119889   4.377   3.564   9.126 -1.0639 -0.5870  1.2827
  175SOPE  C21019890   4.364   3.763   9.036  1.0181  0.3475  0.3945
  175SOPE  H10119891   4.447   3.757   8.964  0.5837  2.3093 -0.3494
  175SOPE  C21119892   4.293   3.893   9.027  0.3043  0.0043 -0.0680
  175SOPE  H11R19893   4.360   3.973   9.063 -1.0680  0.8743  0.6453
  175SOPE  H11S19894   4.210   3.896   9.101  1.2306 -0.3203  1.0143
  175SOPE  C21219895   4.253   3.931   8.884 -0.2766 -0.0906 -0.4328
  175SOPE  H12R19896   4.341   3.962   8.823  1.7489 -1.0090  1.8514
  175SOPE  H12S19897   4.170   4.004   8.893 -1.3511 -1.4249  1.1327
  175SOPE  C21319898   4.185   3.811   8.805 -0.1804  0.3296 -0.5070
  175SOPE  H13R19899   4.087   3.773   8.840  0.6434 -0.2594  1.3028
  175SOPE  H13S19900   4.262   3.731   8.799 -0.8737 -0.2892 -1.3738
  175SOPE  C21419901   4.147   3.855   8.669 -0.5164 -0.3480 -0.1608
  175SOPE  H14R19902   4.234   3.888   8.608  1.2329  1.4149  2.9943
  175SOPE  H14S19903   4.096   3.952   8.691  1.3122  0.4356  0.8766
  175SOPE  C21519904   4.063   3.754   8.598  0.2254 -0.0062  0.2075
  175SOPE  H15R19905   3.962   3.750   8.644 -0.1487 -0.5346 -0.6407
  175SOPE  H15S19906   4.106   3.652   8.603  0.6821 -0.0340 -2.7415
  175SOPE  C21619907   4.049   3.780   8.447 -0.0537 -0.2439 -0.4341
  175SOPE  H16R19908   4.010   3.686   8.402 -1.0267 -0.5479  0.9328
  175SOPE  H16S19909   4.146   3.808   8.401  1.8003 -2.3829  1.8697
  175SOPE  C21719910   3.940   3.873   8.414 -0.7083 -1.0655  0.6720
  175SOPE  H17R19911   3.951   3.973   8.462 -0.7592 -1.5309  1.6786
  175SOPE  H17S19912   3.841   3.836   8.448 -2.1380  2.3013  0.6501
  175SOPE  C21819913   3.940   3.910   8.264 -0.7181 -0.4851  0.1212
  175SOPE  H18R19914   3.897   3.822   8.211 -0.6546 -0.5754  0.2197
  175SOPE  H18S19915   4.038   3.937   8.220 -1.3927 -0.4645 -1.4350
  175SOPE  H18T19916   3.882   4.002   8.243  1.7612  0.4105 -4.0058
  175SOPE   C3319917   3.990   4.029   9.761 -0.2023 -0.1057  0.1128
  175SOPE   H3X19918   3.884   4.059   9.776 -0.7053  0.3040 -3.5028
  175SOPE   H3Y19919   3.997   3.921   9.739 -1.7596  0.3128 -2.9580
  175SOPE   C3419920   4.030   4.088   9.625 -0.8975 -0.8649 -0.5266
  175SOPE   H4X19921   4.129   4.056   9.585  0.7398  3.1248 -0.1637
  175SOPE   H4Y19922   4.041   4.198   9.637  0.8513 -1.0240 -0.3955
  175SOPE   C3519923   3.921   4.063   9.520 -0.4960  0.2044 -1.0818
  175SOPE   H5X19924   3.831   4.119   9.553  0.9814  0.6609  2.5366
  175SOPE   H5Y19925   3.901   3.954   9.520 -0.5303  0.2017 -0.1180
  175SOPE   C3619926   3.984   4.115   9.384 -0.6637  0.0693  0.5690
  175SOPE   H6X19927   4.069   4.046   9.365 -1.8584 -1.2242 -0.3487
  175SOPE   H6Y19928   4.022   4.217   9.405 -1.2760  0.8940 -1.9456
  175SOPE   C3719929   3.897   4.108   9.260 -0.3862 -0.1163 -0.3796
  175SOPE   H7X19930   3.810   4.177   9.263 -0.2260  0.0588  0.8392
  175SOPE   H7Y19931   3.845   4.011   9.246 -1.9842  0.5741  0.4694
  175SOPE   C3819932   3.969   4.142   9.124  0.3024 -0.2077 -1.0454
  175SOPE   H8X19933   4.059   4.080   9.104  0.5310 -0.7483  1.3888
  175SOPE   H8Y19934   3.995   4.249   9.131 -1.5674  0.2140  0.5292
  175SOPE   C3919935   3.868   4.121   9.007  0.3198  0.0558  0.3435
  175SOPE   H9X19936   3.908   4.167   8.914  1.1380  0.5752  0.9374
  175SOPE   H9Y19937   3.776   4.178   9.032  1.0747  0.8576  1.4315
  175SOPE  C31019938   3.835   3.972   8.971  0.2012  0.0448  0.3146
  175SOPE  H10X19939   3.768   3.941   9.054  1.6688  1.1917  2.0095
  175SOPE  H10Y19940   3.919   3.901   8.985 -1.1171 -1.0106  3.8917
  175SOPE  C31119941   3.766   3.954   8.830  0.0445  0.7141  1.0078
  175SOPE  H11X19942   3.836   3.978   8.747 -0.2599  1.2413  0.8958
  175SOPE  H11Y19943   3.692   4.037   8.823  3.6652  4.2354  0.8663
  175SOPE  C31219944   3.686   3.822   8.814  0.2145 -0.7849  0.0266
  175SOPE  H12X19945   3.626   3.815   8.906  2.7771 -1.2159  1.7834
  175SOPE  H12Y19946   3.766   3.745   8.817 -1.2715 -2.3728  2.7183
  175SOPE  C31319947   3.599   3.811   8.684  0.6355  0.3263 -0.5447
  175SOPE  H13X19948   3.573   3.706   8.658  0.7173  0.1581  0.0337
  175SOPE  H13Y19949   3.660   3.833   8.594  0.3191 -2.3508 -1.5226
  175SOPE  C31419950   3.476   3.902   8.697  0.8159 -0.1680  0.5210
  175SOPE  H14X19951   3.497   4.004   8.735 -0.9770  0.7029 -0.6483
  175SOPE  H14Y19952   3.409   3.868   8.780  0.4211  2.8739  1.5677
  175SOPE  C31519953   3.405   3.929   8.560 -0.9530  0.0884  0.6951
  175SOPE  H15X19954   3.315   3.995   8.568 -0.9141  0.0694  1.3254
  175SOPE  H15Y19955   3.377   3.838   8.503  1.0611 -0.3433  0.3216
  175SOPE  C31619956   3.499   4.019   8.470  0.4531  0.0378  0.0820
  175SOPE  H16X19957   3.591   3.966   8.435  0.4526 -0.4413  0.7784
  175SOPE  H16Y19958   3.534   4.103   8.533 -3.1582  1.1873  0.7856
  175SOPE  C31719959   3.436   4.096   8.355 -0.8030 -0.1293 -0.0116
  175SOPE  H17X19960   3.349   4.159   8.382 -1.8305 -1.2741 -0.5764
  175SOPE  H17Y19961   3.404   4.016   8.285 -0.0404  1.0191 -1.7584
  175SOPE  C31819962   3.537   4.189   8.283 -0.3296 -0.2490 -0.2625
  175SOPE  H18X19963   3.552   4.281   8.344  0.2673 -0.1412 -0.5651
  175SOPE  H18Y19964   3.505   4.238   8.188 -0.6075  0.4745  0.1970
  175SOPE  H18Z19965   3.640   4.150   8.267  0.0142  0.5388 -0.0113
  176SOPE     N19966   5.218   3.364  10.875  0.7082  0.0115 -0.1192
  176SOPE   HN119967   5.284   3.361  10.956  0.0224 -2.8171  0.4535
  176SOPE   HN219968   5.187   3.269  10.847 -1.4215  0.6870 -0.1843
  176SOPE   HN319969   5.273   3.397  10.794 -0.8547  0.2294 -1.1275
  176SOPE   C1219970   5.101   3.455  10.886  0.3461 -0.1984  0.6363
  176SOPE  H12A19971   5.152   3.553  10.899 -0.1252  0.6101 -2.6929
  176SOPE  H12B19972   5.042   3.426  10.975  1.0397 -0.4363  1.0277
  176SOPE   C1119973   5.014   3.467  10.758  0.3531  0.4494 -0.2617
  176SOPE  H11A19974   5.081   3.471  10.670  2.3819  0.4707  1.2062
  176SOPE  H11B19975   4.955   3.559  10.774 -1.7153 -1.2041  2.7368
  176SOPE     P19976   4.778   3.344  10.732 -0.1967  0.0451  0.0511
  176SOPE   O1319977   4.723   3.356  10.866 -0.3186 -0.3323 -0.0586
  176SOPE   O1419978   4.744   3.227  10.657  0.4617  0.0862  0.0325
  176SOPE   O1219979   4.932   3.349  10.741  0.4143 -0.2390 -0.0943
  176SOPE   O1119980   4.750   3.476  10.653  0.2990  0.0700 -0.6956
  176SOPE    C119981   4.639   3.482  10.566 -0.1247 -0.0489  1.1138
  176SOPE    HA19982   4.606   3.588  10.557 -1.9875 -0.7346 -1.2448
  176SOPE    HB19983   4.545   3.427  10.586 -1.2040  0.6089 -1.7098
  176SOPE    C219984   4.669   3.443  10.423 -0.5509  0.1347 -0.2260
  176SOPE    HS19985   4.696   3.335  10.429 -1.6635 -0.0633  2.4608
  176SOPE   O2119986   4.779   3.518  10.360  0.4752  0.0549 -0.5158
  176SOPE   C2119987   4.874   3.448  10.303 -0.0060 -0.0330 -0.2810
  176SOPE   O2219988   4.893   3.326  10.300  0.0398 -0.1093 -0.2502
  176SOPE   C2219989   4.960   3.558  10.243  0.0909  0.0172  0.4583
  176SOPE   H2R19990   5.025   3.613  10.315 -0.6081  2.1829 -0.4552
  176SOPE   H2S19991   4.891   3.630  10.193 -0.3646  0.0581  1.1334
  176SOPE    C319992   4.558   3.443  10.318 -0.0155 -0.1004  0.1018
  176SOPE    HX19993   4.524   3.547  10.298  2.1031  0.1808 -2.7246
  176SOPE    HY19994   4.470   3.390  10.361  0.7769 -3.0592 -1.6120
  176SOPE   O3119995   4.590   3.386  10.186  0.4876 -0.1611  0.3317
  176SOPE   C3119996   4.586   3.258  10.182 -0.6145  0.0832  0.0240
  176SOPE   O3219997   4.583   3.179  10.275 -0.6922 -0.0925  0.1189
  176SOPE   C3219998   4.599   3.222  10.036  0.2679  0.2287 -0.5572
  176SOPE   H2X19999   4.660   3.304   9.992  0.1549  1.7915  1.9313
  176SOPE   H2Y20000   4.496   3.212   9.997 -0.9877  0.5388  2.3910
  176SOPE   C2320001   5.064   3.504  10.136  0.4401 -0.4745 -0.3794
  176SOPE   H3R20002   5.128   3.428  10.185  0.6941  0.5458  0.9346
  176SOPE   H3S20003   5.134   3.583  10.100 -0.1119 -0.4043 -1.3121
  176SOPE   C2420004   4.990   3.430  10.025  0.0712  0.3077 -0.3993
  176SOPE   H4R20005   4.938   3.345  10.075 -0.4506  1.0862  0.4161
  176SOPE   H4S20006   4.914   3.501   9.983  0.3225 -0.7730 -2.8638
  176SOPE   C2520007   5.077   3.357   9.924  0.3783  0.0166 -0.9883
  176SOPE   H5R20008   5.155   3.428   9.890  0.9795  0.0374  0.3673
  176SOPE   H5S20009   5.117   3.269   9.979 -2.2234 -0.9292 -0.4360
  176SOPE   C2620010   4.987   3.302   9.813  0.3481  0.4476  0.3241
  176SOPE   H6R20011   4.912   3.244   9.872  0.0788 -0.1663 -0.5989
  176SOPE   H6S20012   4.928   3.372   9.750  1.0886 -0.5444 -1.5511
  176SOPE   C2720013   5.071   3.221   9.713  0.6741 -0.0365  0.5004
  176SOPE   H7R20014   5.117   3.302   9.653 -1.6416  0.0642 -1.2790
  176SOPE   H7S20015   5.151   3.167   9.768  0.4568 -0.3421  0.5236
  176SOPE   C2820016   4.988   3.136   9.607  0.3754 -0.1688 -0.2223
  176SOPE   H8R20017   4.940   3.061   9.674 -1.7222 -0.1553 -1.5917
  176SOPE   H8S20018   4.913   3.205   9.561  0.1802 -1.2169 -1.5275
  176SOPE   C2920019   5.087   3.073   9.505 -0.2591 -0.0472 -0.8517
  176SOPE   H9120020   5.169   3.021   9.558 -0.8338 -0.2306 -0.1192
  176SOPE  C21020021   5.098   3.097   9.376  0.4505 -0.1097  0.1073
  176SOPE  H10120022   5.157   3.025   9.318 -0.5857 -0.9109  0.0170
  176SOPE  C21120023   5.013   3.191   9.287 -0.3356 -0.5537  0.3080
  176SOPE  H11R20024   5.081   3.260   9.234 -2.9554  2.2857  0.3815
  176SOPE  H11S20025   4.951   3.251   9.356  1.4922  2.0834 -0.1835
  176SOPE  C21220026   4.932   3.103   9.185  0.1021 -0.6033 -0.1131
  176SOPE  H12R20027   4.835   3.153   9.164 -0.8036 -2.0554  0.4730
  176SOPE  H12S20028   4.910   3.001   9.222 -0.0921 -0.9939 -1.2420
  176SOPE  C21320029   5.004   3.066   9.046  0.1146  0.3225 -0.4570
  176SOPE  H13R20030   5.024   3.163   8.997 -0.0057  0.3653 -0.4198
  176SOPE  H13S20031   4.934   2.992   9.001  0.5488 -1.4315  1.5766
  176SOPE  C21420032   5.129   2.981   9.068  1.1915 -0.0658  0.0969
  176SOPE  H14R20033   5.107   2.889   9.127 -1.4270 -0.6297 -1.5882
  176SOPE  H14S20034   5.203   3.053   9.110 -0.2775  1.9939 -0.6613
  176SOPE  C21520035   5.177   2.945   8.929 -0.3695  0.3314 -0.0419
  176SOPE  H15R20036   5.197   3.045   8.885  1.3533 -0.3397 -0.8690
  176SOPE  H15S20037   5.100   2.889   8.872  1.9972 -1.7869 -1.3828
  176SOPE  C21620038   5.299   2.853   8.935 -0.9434 -0.1177  0.3572
  176SOPE  H16R20039   5.293   2.746   8.966  1.0315 -0.1879  0.6454
  176SOPE  H16S20040   5.359   2.910   9.008 -0.5207  1.1776 -0.9585
  176SOPE  C21720041   5.369   2.853   8.798  0.3190  0.1629  0.7625
  176SOPE  H17R20042   5.297   2.829   8.718  0.1674  0.5129  0.7891
  176SOPE  H17S20043   5.448   2.777   8.782 -1.4155 -1.3962 -0.8180
  176SOPE  C21820044   5.439   2.984   8.755 -0.0208 -0.5492  0.0620
  176SOPE  H18R20045   5.373   3.072   8.768 -0.4989 -0.9651  0.4982
  176SOPE  H18S20046   5.475   2.983   8.650 -1.1014  2.7995 -0.4476
  176SOPE  H18T20047   5.533   3.000   8.812  1.6061  0.6723 -2.7306
  176SOPE   C3320048   4.686   3.095  10.006 -0.1085 -0.2794 -0.1242
  176SOPE   H3X20049   4.638   3.008  10.054  0.8354 -0.0171  1.3757
  176SOPE   H3Y20050   4.789   3.104  10.048 -0.3949 -1.0862  0.7967
  176SOPE   C3420051   4.689   3.076   9.855  0.3128  0.2863  0.5112
  176SOPE   H4X20052   4.778   3.012   9.843  0.8562  1.0655  0.2729
  176SOPE   H4Y20053   4.701   3.161   9.784 -0.7721  0.6941  0.7888
  176SOPE   C3520054   4.571   2.996   9.796  0.0177 -0.1677 -0.6314
  176SOPE   H5X20055   4.518   2.944   9.879  0.7486 -0.4730 -0.3457
  176SOPE   H5Y20056   4.604   2.921   9.721  1.1998  0.3458 -0.6515
  176SOPE   C3620057   4.469   3.085   9.708 -0.1294  0.3560 -0.6602
  176SOPE   H6X20058   4.470   3.184   9.758  1.9939 -0.7482  1.7172
  176SOPE   H6Y20059   4.379   3.027   9.738  0.7906 -0.2925  0.9850
  176SOPE   C3720060   4.496   3.083   9.562 -0.0962 -0.1076 -0.7931
  176SOPE   H7X20061   4.404   3.113   9.508  0.2500 -1.3342 -2.1269
  176SOPE   H7Y20062   4.529   2.984   9.524 -1.0533 -0.9310  0.4451
  176SOPE   C3820063   4.606   3.181   9.519 -0.6620 -0.2740  0.0982
  176SOPE   H8X20064   4.700   3.151   9.570 -0.9370 -0.4002  0.5282
  176SOPE   H8Y20065   4.566   3.272   9.570 -2.7766 -1.7993  1.2794
  176SOPE   C3920066   4.639   3.199   9.371  0.1246  0.1815 -0.2196
  176SOPE   H9X20067   4.681   3.109   9.321  0.0152  1.3174 -2.4984
  176SOPE   H9Y20068   4.717   3.278   9.369 -0.1563  0.4483 -1.0424
  176SOPE  C31020069   4.515   3.228   9.284  0.1819 -0.9521  0.8971
  176SOPE  H10X20070   4.466   3.316   9.332  0.3460 -1.8144  2.7408
  176SOPE  H10Y20071   4.448   3.143   9.306  1.0281 -1.3688  2.0030
  176SOPE  C31120072   4.545   3.245   9.136 -0.5422  0.8337  0.1102
  176SOPE  H11X20073   4.619   3.169   9.101 -0.7390  1.0202 -0.7440
  176SOPE  H11Y20074   4.583   3.349   9.126 -1.2126  1.1756  0.9808
  176SOPE  C31220075   4.415   3.236   9.063  0.6933  0.3569  0.6165
  176SOPE  H12X20076   4.336   3.305   9.099  0.6058 -0.4830  2.0870
  176SOPE  H12Y20077   4.377   3.132   9.071 -0.6837  0.8927  1.4461
  176SOPE  C31320078   4.418   3.261   8.909 -0.4302  0.1409 -0.4585
  176SOPE  H13X20079   4.333   3.204   8.865  0.4436 -0.5626 -1.2851
  176SOPE  H13Y20080   4.511   3.209   8.877 -0.9723 -2.0874  1.2963
  176SOPE  C31420081   4.407   3.404   8.859 -0.7989  0.0143  0.0828
  176SOPE  H14X20082   4.476   3.472   8.915 -2.4897  1.4704  0.4759
  176SOPE  H14Y20083   4.304   3.432   8.887 -1.6546 -1.4410 -1.4494
  176SOPE  C31520084   4.444   3.423   8.715 -0.4394 -0.0679 -0.7853
  176SOPE  H15X20085   4.418   3.334   8.653  1.5223 -0.9503 -0.4319
  176SOPE  H15Y20086   4.554   3.431   8.703 -0.6572  0.6835 -2.6910
  176SOPE  C31620087   4.385   3.550   8.654  0.2891 -0.0910 -0.4372
  176SOPE  H16X20088   4.424   3.632   8.718 -3.8331 -0.7139  3.3202
  176SOPE  H16Y20089   4.275   3.552   8.669  0.1945  1.4804 -1.1345
  176SOPE  C31720090   4.409   3.572   8.506  0.1763 -0.1578  0.3145
  176SOPE  H17X20091   4.512   3.551   8.470 -1.0041  0.0168 -3.5673
  176SOPE  H17Y20092   4.393   3.680   8.485  1.0623  0.2774  1.7028
  176SOPE  C31820093   4.317   3.486   8.418 -0.2613  0.0865 -0.9568
  176SOPE  H18X20094   4.322   3.532   8.317  0.9814 -0.6969 -1.2779
  176SOPE  H18Y20095   4.214   3.492   8.459 -0.7428 -0.5571 -2.0218
  176SOPE  H18Z20096   4.340   3.377   8.425  2.0235  0.6111  0.8057
  177SOPE     N20097   4.920   6.551  11.338  0.0611  0.8356  0.4545
  177SOPE   HN120098   4.897   6.594  11.431 -0.0240  0.7723  0.4629
  177SOPE   HN220099   4.831   6.534  11.287  2.0298  1.4323 -3.5772
  177SOPE   HN320100   4.965   6.461  11.361 -1.1488 -0.7869 -2.9774
  177SOPE   C1220101   5.021   6.623  11.251 -0.0806 -0.1773 -0.2247
  177SOPE  H12A20102   5.122   6.580  11.264 -0.0598  0.3092  1.3861
  177SOPE  H12B20103   5.040   6.726  11.287  1.6217 -0.2625 -0.8074
  177SOPE   C1120104   4.985   6.628  11.099 -0.0573  0.1974  0.8938
  177SOPE  H11A20105   4.996   6.526  11.056  2.2058  1.0816 -0.8946
  177SOPE  H11B20106   5.060   6.701  11.059 -0.7149  0.7787  0.7062
  177SOPE     P20107   4.797   6.695  10.935 -0.0541 -0.2198  0.0686
  177SOPE   O1320108   4.661   6.751  10.929  0.2000  0.6042 -0.6460
  177SOPE   O1420109   4.814   6.569  10.860  0.4173 -0.7119  0.1033
  177SOPE   O1220110   4.858   6.672  11.085  0.3417 -0.1606 -0.1928
  177SOPE   O1120111   4.899   6.793  10.865 -0.2850 -0.0345  0.0383
  177SOPE    C120112   4.899   6.931  10.900  0.0895 -0.0042 -0.0464
  177SOPE    HA20113   4.981   6.953  10.972 -0.2237  0.7073  0.1027
  177SOPE    HB20114   4.798   6.956  10.938 -0.6060 -1.3231 -0.9241
  177SOPE    C220115   4.924   7.018  10.766  0.5742  0.7685 -0.3393
  177SOPE    HS20116   4.894   7.124  10.783  3.4198  1.7905 -1.0171
  177SOPE   O2120117   4.856   6.962  10.654  0.1947 -0.2133  0.1161
  177SOPE   C2120118   4.725   6.987  10.657 -0.3749 -0.7300  0.9240
  177SOPE   O2220119   4.673   7.058  10.734 -0.0275 -0.2397  0.2599
  177SOPE   C2220120   4.676   6.924  10.529  0.5104  0.4353  0.8159
  177SOPE   H2R20121   4.699   6.816  10.516  2.0384  1.0476 -3.0042
  177SOPE   H2S20122   4.728   6.976  10.445  0.5347  1.8470  1.6664
  177SOPE    C320123   5.078   7.027  10.725 -0.7181  0.2660  0.2072
  177SOPE    HX20124   5.117   6.929  10.690 -1.5252  0.5340 -1.5343
  177SOPE    HY20125   5.145   7.033  10.813  0.7613 -1.0924 -0.7906
  177SOPE   O3120126   5.114   7.133  10.630  0.2236 -0.1912 -0.1289
  177SOPE   C3120127   5.111   7.249  10.687 -0.7729 -0.5066 -0.0193
  177SOPE   O3220128   5.093   7.265  10.810  0.7376 -0.2156  0.4034
  177SOPE   C3220129   5.136   7.355  10.582 -0.4555  0.4400  0.1260
  177SOPE   H2X20130   5.202   7.312  10.504 -0.6645 -1.9273  1.1700
  177SOPE   H2Y20131   5.194   7.438  10.629  1.2175 -0.2992 -0.5568
  177SOPE   C2320132   4.531   6.952  10.494  0.0058  0.4662 -0.1498
  177SOPE   H3R20133   4.508   7.060  10.487 -1.1524  0.1558 -1.6741
  177SOPE   H3S20134   4.479   6.913  10.585 -0.3626  1.8150  0.2404
  177SOPE   C2420135   4.485   6.882  10.366 -0.1411  0.5170  0.4631
  177SOPE   H4R20136   4.545   6.909  10.277 -2.0585 -1.5868 -1.5831
  177SOPE   H4S20137   4.491   6.772  10.375 -0.6421  0.4141 -0.3672
  177SOPE   C2520138   4.338   6.896  10.327 -0.8831  0.7977  0.1747
  177SOPE   H5R20139   4.272   6.828  10.384  0.3160  0.1882  0.8748
  177SOPE   H5S20140   4.310   7.001  10.350  1.1443  1.5849 -0.6874
  177SOPE   C2620141   4.311   6.853  10.182  0.2411  0.1381  0.2331
  177SOPE   H6R20142   4.367   6.758  10.171  1.3392  0.2909  3.4726
  177SOPE   H6S20143   4.205   6.822  10.171  0.8422 -2.3382  0.7119
  177SOPE   C2720144   4.351   6.960  10.077 -0.4079  0.6923 -0.3180
  177SOPE   H7R20145   4.325   7.065  10.103  2.0967  2.0882 -2.9212
  177SOPE   H7S20146   4.462   6.955  10.075 -0.4554 -1.2413  0.0315
  177SOPE   C2820147   4.289   6.932   9.943 -0.2084  1.2296 -0.2411
  177SOPE   H8R20148   4.280   6.821   9.939 -0.6868  1.2659 -0.2740
  177SOPE   H8S20149   4.185   6.969   9.931 -0.1327  0.7542 -3.1388
  177SOPE   C2920150   4.358   6.968   9.814  0.2954 -0.2476 -0.0612
  177SOPE   H9120151   4.435   7.045   9.826  0.6720 -0.6889  0.3982
  177SOPE  C21020152   4.332   6.923   9.688  0.5699 -0.6920 -0.0163
  177SOPE  H10120153   4.388   6.963   9.602 -2.4699  0.6607 -1.5300
  177SOPE  C21120154   4.239   6.812   9.657 -0.2373 -0.0159 -0.0158
  177SOPE  H11R20155   4.144   6.871   9.661 -0.4459 -0.2943 -0.7162
  177SOPE  H11S20156   4.235   6.750   9.749 -2.1034  0.9600  0.6130
  177SOPE  C21220157   4.246   6.733   9.529 -0.4267 -0.2773 -0.7612
  177SOPE  H12R20158   4.168   6.655   9.522 -0.2633 -0.5659  0.4983
  177SOPE  H12S20159   4.349   6.692   9.527 -0.9569 -1.7198  0.0955
  177SOPE  C21320160   4.253   6.824   9.408 -0.6487 -0.5683  0.5453
  177SOPE  H13R20161   4.344   6.886   9.420 -0.0199 -0.8864 -2.0246
  177SOPE  H13S20162   4.176   6.904   9.402 -0.2981 -0.1882  1.1183
  177SOPE  C21420163   4.261   6.745   9.279 -0.0296 -0.2237  0.5472
  177SOPE  H14R20164   4.162   6.705   9.248 -0.0475  0.1949  0.0481
  177SOPE  H14S20165   4.336   6.663   9.279  1.7841  1.3307 -0.9779
  177SOPE  C21520166   4.292   6.838   9.164 -0.3504 -0.0254  0.7271
  177SOPE  H15R20167   4.328   6.776   9.080 -0.9005  2.2791 -1.3259
  177SOPE  H15S20168   4.369   6.911   9.196 -0.5881  0.7894 -0.4746
  177SOPE  C21620169   4.178   6.910   9.105  0.1268 -0.2332  0.1244
  177SOPE  H16R20170   4.139   6.984   9.177 -1.1668  0.5788 -1.3738
  177SOPE  H16S20171   4.102   6.831   9.087  0.2883 -1.4901  3.9010
  177SOPE  C21720172   4.202   7.004   8.990 -0.9101  0.9011  1.1796
  177SOPE  H17R20173   4.267   6.962   8.911  0.6171  0.7744  2.4417
  177SOPE  H17S20174   4.263   7.087   9.033 -0.0393 -1.4143  4.8615
  177SOPE  C21820175   4.073   7.050   8.935  0.0559 -1.0211  0.0987
  177SOPE  H18R20176   4.090   7.119   8.850 -1.1291  1.9878  2.1234
  177SOPE  H18S20177   4.025   7.109   9.016  1.7783  1.3692 -0.4999
  177SOPE  H18T20178   3.998   6.978   8.896  1.1866 -1.8029 -0.7005
  177SOPE   C3320179   5.000   7.388  10.525 -0.2027 -0.2667 -0.5856
  177SOPE   H3X20180   5.011   7.484  10.469 -1.3051  0.8453  1.0131
  177SOPE   H3Y20181   4.921   7.410  10.600 -0.6257 -2.6775 -0.2430
  177SOPE   C3420182   4.947   7.283  10.423  0.1861  0.5310  0.6439
  177SOPE   H4X20183   4.967   7.181  10.460 -1.5403  0.1474  0.6175
  177SOPE   H4Y20184   4.996   7.308  10.326 -2.4595 -0.9180 -1.2034
  177SOPE   C3520185   4.795   7.293  10.378  0.0588  0.2589 -0.9925
  177SOPE   H5X20186   4.761   7.395  10.352 -1.9909  0.2471  1.2490
  177SOPE   H5Y20187   4.733   7.270  10.468 -0.9159 -0.4447 -1.8272
  177SOPE   C3620188   4.740   7.211  10.256  0.2199  0.1533  0.0050
  177SOPE   H6X20189   4.767   7.103  10.266 -3.4369 -0.8960 -0.0973
  177SOPE   H6Y20190   4.803   7.244  10.170  0.2950  0.2821  0.1101
  177SOPE   C3720191   4.589   7.223  10.227  0.1715  0.3577  0.4150
  177SOPE   H7X20192   4.544   7.237  10.328 -2.7239  0.3657 -0.7715
  177SOPE   H7Y20193   4.553   7.131  10.176 -1.3510  0.6753  0.8782
  177SOPE   C3820194   4.554   7.353  10.150 -0.7632  0.2151 -0.2705
  177SOPE   H8X20195   4.608   7.437  10.200  0.8965  0.0641 -1.6786
  177SOPE   H8Y20196   4.445   7.373  10.161 -0.1121  4.1545  0.7157
  177SOPE   C3920197   4.587   7.361   9.999  0.1258 -0.1551  0.4881
  177SOPE   H9X20198   4.637   7.270   9.960 -0.8412 -0.8553  0.8351
  177SOPE   H9Y20199   4.656   7.447   9.990 -2.1482  1.5322 -3.7470
  177SOPE  C31020200   4.462   7.395   9.913  0.0601  0.1345  0.4078
  177SOPE  H10X20201   4.423   7.497   9.933  0.2502  0.1385  0.7825
  177SOPE  H10Y20202   4.382   7.321   9.935 -0.5180  0.7581  0.4136
  177SOPE  C31120203   4.472   7.391   9.754  0.0102 -0.4992 -0.0631
  177SOPE  H11X20204   4.545   7.312   9.727  2.2708  1.6707 -0.7283
  177SOPE  H11Y20205   4.542   7.474   9.729  2.0540 -1.8032  1.0459
  177SOPE  C31220206   4.327   7.405   9.690  0.2019 -0.3817  0.7310
  177SOPE  H12X20207   4.270   7.482   9.746 -0.3860  0.2564 -0.6853
  177SOPE  H12Y20208   4.281   7.305   9.698 -1.1466  0.1133 -0.4534
  177SOPE  C31320209   4.341   7.434   9.533 -0.1722  0.4631  0.2168
  177SOPE  H13X20210   4.423   7.508   9.537 -0.1616  0.4201  1.1806
  177SOPE  H13Y20211   4.253   7.485   9.488 -0.7398 -0.5136  0.1737
  177SOPE  C31420212   4.380   7.312   9.449  0.1035  0.5734 -0.2830
  177SOPE  H14X20213   4.289   7.253   9.423  0.5491  0.4017 -1.5076
  177SOPE  H14Y20214   4.449   7.251   9.511 -0.9130  1.0446  1.3727
  177SOPE  C31520215   4.432   7.339   9.310 -0.0171  0.3493  0.1115
  177SOPE  H15X20216   4.535   7.380   9.322  0.6873 -1.6104  1.2488
  177SOPE  H15Y20217   4.366   7.410   9.256 -2.0806 -0.8120  0.9940
  177SOPE  C31620218   4.446   7.206   9.227 -0.5950 -0.3433  0.4395
  177SOPE  H16X20219   4.352   7.166   9.185 -0.1230 -1.6324  0.5762
  177SOPE  H16Y20220   4.492   7.128   9.292 -3.2989 -3.2611 -0.9280
  177SOPE  C31720221   4.545   7.210   9.103  0.4792  0.1328 -0.0308
  177SOPE  H17X20222   4.525   7.120   9.041 -0.2237 -0.1710  0.6244
  177SOPE  H17Y20223   4.653   7.211   9.127  0.6629 -0.2467 -0.8026
  177SOPE  C31820224   4.520   7.327   9.003 -0.5608  0.2261 -0.1845
  177SOPE  H18X20225   4.596   7.323   8.922  2.5117  0.5190  2.4705
  177SOPE  H18Y20226   4.552   7.423   9.048  1.2173 -0.3571 -0.1282
  177SOPE  H18Z20227   4.420   7.315   8.956 -0.3267 -2.3234 -0.2140
  178SOPE     N20228   0.019   4.734  10.690  0.1442 -0.2921 -0.2330
  178SOPE   HN120229   0.122   4.717  10.686  0.5103  0.5994  2.6896
  178SOPE   HN220230  -0.033   4.696  10.608 -0.7100  0.6508 -0.1435
  178SOPE   HN320231   0.003   4.836  10.677  0.2907 -0.5631 -3.4327
  178SOPE   C1220232  -0.033   4.685  10.826 -0.2151 -0.2957 -0.2503
  178SOPE  H12A20233  -0.140   4.715  10.834  0.0779  1.2658 -1.5758
  178SOPE  H12B20234   0.021   4.748  10.900  0.8855  1.1088 -2.1559
  178SOPE   C1120235   0.001   4.540  10.844  0.6909 -0.3859  0.4854
  178SOPE  H11A20236  -0.046   4.517  10.942  1.3465 -0.5023  0.7777
  178SOPE  H11B20237   0.111   4.524  10.849  0.4836 -1.6806  2.9804
  178SOPE     P20238  -0.200   4.410  10.741  0.4070 -0.0724  0.4922
  178SOPE   O1320239  -0.289   4.509  10.806  0.0453 -0.0225 -0.2796
  178SOPE   O1420240  -0.203   4.270  10.788 -0.1357  0.2481 -0.9488
  178SOPE   O1220241  -0.054   4.459  10.741  0.3759  0.1723  0.2473
  178SOPE   O1120242  -0.240   4.407  10.587 -0.2615 -0.1576  0.0955
  178SOPE    C120243  -0.170   4.331  10.489  0.4440 -0.5548 -0.4642
  178SOPE    HA20244  -0.233   4.244  10.461 -0.1948 -1.0736  2.3139
  178SOPE    HB20245  -0.084   4.278  10.535  0.9161  1.3357  0.9563
  178SOPE    C220246  -0.115   4.411  10.368  0.1252 -0.4843 -0.0138
  178SOPE    HS20247  -0.018   4.454  10.401 -0.5093  2.4697 -1.6138
  178SOPE   O2120248  -0.214   4.510  10.329 -0.0329 -0.5630 -0.2477
  178SOPE   C2120249  -0.198   4.627  10.389 -0.6046 -0.3848  0.7176
  178SOPE   O2220250  -0.102   4.676  10.451  0.4784 -0.1153  0.0574
  178SOPE   C2220251  -0.323   4.704  10.357 -0.8454 -0.3888  0.2048
  178SOPE   H2R20252  -0.362   4.758  10.445  1.8131  2.0740  0.0108
  178SOPE   H2S20253  -0.396   4.631  10.317 -1.0699  0.5500 -1.1813
  178SOPE    C320254  -0.071   4.316  10.255 -0.3314  0.5877 -0.5316
  178SOPE    HX20255  -0.162   4.253  10.239 -0.1884  0.1003  0.4419
  178SOPE    HY20256   0.013   4.256  10.297 -0.5440  2.1319  2.3607
  178SOPE   O3120257  -0.044   4.393  10.144 -0.2179 -0.2024 -0.0184
  178SOPE   C3120258   0.082   4.411  10.103 -0.7730 -0.7449 -0.1467
  178SOPE   O3220259   0.180   4.379  10.166 -0.1252 -0.1747 -0.8957
  178SOPE   C3220260   0.073   4.457   9.960  0.1534  0.0886  0.1922
  178SOPE   H2X20261   0.074   4.568   9.966  2.5452  0.2327 -1.5186
  178SOPE   H2Y20262  -0.023   4.432   9.910 -0.4620  2.8015 -0.1366
  178SOPE   C2320263  -0.286   4.834  10.271 -0.0974  0.3062 -0.4121
  178SOPE   H3R20264  -0.229   4.907  10.333 -0.5097 -0.6711  1.1764
  178SOPE   H3S20265  -0.383   4.887  10.254 -1.3280 -1.3305  1.1512
  178SOPE   C2420266  -0.221   4.792  10.137 -0.2446  0.2073 -0.2255
  178SOPE   H4R20267  -0.123   4.749  10.168  0.1358  1.5357  0.4798
  178SOPE   H4S20268  -0.292   4.719  10.092  1.0902 -0.5815 -1.0957
  178SOPE   C2520269  -0.194   4.910  10.043 -0.2252 -0.0535 -0.0827
  178SOPE   H5R20270  -0.293   4.958  10.024 -0.6948 -0.2258  1.7742
  178SOPE   H5S20271  -0.133   4.981  10.102 -1.4184 -1.5224  3.1512
  178SOPE   C2620272  -0.134   4.851   9.920 -1.0732 -0.3616 -0.1709
  178SOPE   H6R20273  -0.061   4.777   9.957 -0.2511  0.2647 -0.5082
  178SOPE   H6S20274  -0.214   4.795   9.866 -1.8634  0.4983  0.0840
  178SOPE   C2720275  -0.068   4.956   9.827 -0.1910 -0.0551  0.1368
  178SOPE   H7R20276  -0.125   5.050   9.846 -1.7962 -1.4868  3.3323
  178SOPE   H7S20277   0.036   4.972   9.862 -0.6557  1.2033  0.9994
  178SOPE   C2820278  -0.073   4.914   9.683  0.3525 -0.0331 -0.1100
  178SOPE   H8R20279  -0.016   4.819   9.686  1.4800  0.5196  4.4280
  178SOPE   H8S20280  -0.177   4.901   9.646  1.1048 -0.9118 -2.0180
  178SOPE   C2920281   0.004   5.012   9.602 -0.1222 -0.0511  0.1477
  178SOPE   H9120282  -0.045   5.109   9.588 -0.6772 -0.2978  0.3209
  178SOPE  C21020283   0.109   4.990   9.517 -0.3104  0.4828  0.9979
  178SOPE  H10120284   0.160   5.074   9.467 -0.9875 -0.9788 -2.4173
  178SOPE  C21120285   0.178   4.859   9.494 -0.0043  0.2362  0.3193
  178SOPE  H11R20286   0.106   4.777   9.470 -1.2443  1.1165  0.8851
  178SOPE  H11S20287   0.226   4.814   9.583  2.2733 -1.1426 -1.4891
  178SOPE  C21220288   0.266   4.870   9.367 -0.2635  0.3816 -0.2930
  178SOPE  H12R20289   0.206   4.901   9.279 -0.9487  0.0859  0.0613
  178SOPE  H12S20290   0.310   4.769   9.351 -1.1473  0.0499 -0.6658
  178SOPE  C21320291   0.381   4.965   9.383  0.0202 -0.5509  0.7507
  178SOPE  H13R20292   0.438   4.927   9.471  0.1208 -3.7072 -0.5495
  178SOPE  H13S20293   0.353   5.072   9.400  1.1238  0.3436 -2.4355
  178SOPE  C21420294   0.476   4.962   9.268  0.6563  0.0167 -0.3583
  178SOPE  H14R20295   0.482   4.858   9.231 -1.0407 -1.2790  2.6675
  178SOPE  H14S20296   0.576   5.005   9.291  1.2635 -1.3992 -0.2542
  178SOPE  C21520297   0.423   5.057   9.155  0.0365 -0.9118  0.2583
  178SOPE  H15R20298   0.449   5.157   9.195 -0.0658 -0.1404 -1.5072
  178SOPE  H15S20299   0.315   5.050   9.130 -0.1184 -0.9324  0.9158
  178SOPE  C21620300   0.502   5.033   9.029 -0.1531 -0.1557 -0.0019
  178SOPE  H16R20301   0.511   4.932   8.983  2.2209  1.4671 -3.6485
  178SOPE  H16S20302   0.605   5.064   9.057 -0.2866  1.0534 -0.7663
  178SOPE  C21720303   0.451   5.115   8.910 -0.5653  0.4781 -0.1519
  178SOPE  H17R20304   0.441   5.219   8.947  0.1827  1.2797 -2.0476
  178SOPE  H17S20305   0.352   5.073   8.882 -1.2331  0.8473  1.5025
  178SOPE  C21820306   0.533   5.114   8.771 -0.0422  0.2079 -0.2086
  178SOPE  H18R20307   0.482   5.178   8.696 -2.1941 -0.0856  0.9309
  178SOPE  H18S20308   0.552   5.014   8.728 -1.7532  0.0204 -0.6157
  178SOPE  H18T20309   0.631   5.161   8.795  0.3933  0.1076 -1.6991
  178SOPE   C3320310   0.189   4.413   9.870 -0.0639 -0.3836  0.3496
  178SOPE   H3X20311   0.181   4.305   9.843 -1.4531  0.4877 -3.3762
  178SOPE   H3Y20312   0.294   4.421   9.905 -0.0394 -0.4304  0.2884
  178SOPE   C3420313   0.185   4.495   9.742  0.7830  0.1041  0.7099
  178SOPE   H4X20314   0.214   4.599   9.767 -4.7329  1.5262  2.7115
  178SOPE   H4Y20315   0.078   4.502   9.711  0.2845  0.6553  2.4504
  178SOPE   C3520316   0.258   4.428   9.626 -0.3393 -0.0379  0.9921
  178SOPE   H5X20317   0.227   4.322   9.618  1.4644 -0.5342  0.0497
  178SOPE   H5Y20318   0.363   4.416   9.658 -0.6066 -2.7125  1.0775
  178SOPE   C3620319   0.235   4.499   9.491  0.3151 -0.0706  0.1104
  178SOPE   H6X20320   0.271   4.604   9.500  0.0713  0.1966 -1.6875
  178SOPE   H6Y20321   0.126   4.501   9.471  0.1786  2.5616  0.7209
  178SOPE   C3720322   0.305   4.416   9.388  0.1494  0.1374 -0.1303
  178SOPE   H7X20323   0.248   4.321   9.382  0.1949  0.0282  0.9107
  178SOPE   H7Y20324   0.409   4.389   9.418 -0.2777 -0.3844  0.9376
  178SOPE   C3820325   0.300   4.464   9.246 -0.2778  0.5667  0.6876
  178SOPE   H8X20326   0.349   4.564   9.249  1.2898 -0.1811  1.3523
  178SOPE   H8Y20327   0.192   4.479   9.224  0.0094 -0.8043 -2.0795
  178SOPE   C3920328   0.351   4.361   9.143 -0.7685 -0.1503  0.2513
  178SOPE   H9X20329   0.310   4.264   9.177  1.2937 -2.1245 -2.5463
  178SOPE   H9Y20330   0.461   4.352   9.142 -0.7978 -2.1021  3.2970
  178SOPE  C31020331   0.315   4.370   8.994 -0.0455  0.2901 -0.1884
  178SOPE  H10X20332   0.333   4.469   8.947 -1.2029  2.3751  3.3669
  178SOPE  H10Y20333   0.212   4.339   8.965 -0.7118  0.1697  2.1154
  178SOPE  C31120334   0.408   4.265   8.922 -0.0849  0.2828  0.8249
  178SOPE  H11X20335   0.379   4.164   8.959 -0.0487 -0.1205 -0.2094
  178SOPE  H11Y20336   0.515   4.287   8.941 -0.0389 -0.7705  1.9366
  178SOPE  C31220337   0.374   4.274   8.771 -0.5578 -0.1999  0.6143
  178SOPE  H12X20338   0.405   4.376   8.740  0.2020 -0.8073 -0.7107
  178SOPE  H12Y20339   0.265   4.268   8.751 -0.2979 -2.4581 -0.5069
  178SOPE  C31320340   0.449   4.172   8.681  0.3510 -0.3713  0.7497
  178SOPE  H13X20341   0.558   4.192   8.683  0.2622  0.5791 -1.2816
  178SOPE  H13Y20342   0.421   4.183   8.574  0.7589 -0.1199  0.6647
  178SOPE  C31420343   0.407   4.030   8.721  1.1633  0.7746  0.6456
  178SOPE  H14X20344   0.297   4.018   8.712  1.1690  1.4722 -0.6284
  178SOPE  H14Y20345   0.441   4.003   8.823  1.7317  0.2361  0.3180
  178SOPE  C31520346   0.446   3.927   8.620 -0.6218  0.4591  0.3733
  178SOPE  H15X20347   0.427   3.974   8.520 -0.0952  0.7600  0.4125
  178SOPE  H15Y20348   0.396   3.829   8.632 -1.3860  0.5590 -1.5440
  178SOPE  C31620349   0.591   3.893   8.635 -0.6699  0.1383  0.3199
  178SOPE  H16X20350   0.613   3.840   8.730 -1.0084  2.4396  1.7664
  178SOPE  H16Y20351   0.667   3.974   8.632  0.8650 -1.2527  0.4896
  178SOPE  C31720352   0.633   3.806   8.517 -0.2193 -1.0023 -0.7785
  178SOPE  H17X20353   0.613   3.865   8.425 -2.7712  0.5387  0.6402
  178SOPE  H17Y20354   0.582   3.707   8.520  0.7150 -1.4929  1.1356
  178SOPE  C31820355   0.778   3.761   8.512  0.5031 -0.8168  0.0879
  178SOPE  H18X20356   0.844   3.851   8.510  0.1204 -0.5410 -0.9257
  178SOPE  H18Y20357   0.799   3.689   8.430 -1.7833 -0.4517 -0.8905
  178SOPE  H18Z20358   0.800   3.700   8.603  3.5106  0.5859  0.4264
  179SOPE     N20359   0.169   6.652   6.611  0.0870  0.3231  1.1178
  179SOPE   HN120360   0.203   6.745   6.580 -1.0107 -0.3223 -2.5309
  179SOPE   HN220361   0.213   6.622   6.700  2.2759  0.6278  0.2002
  179SOPE   HN320362   0.230   6.597   6.547  0.1457  1.4531  0.1858
  179SOPE   C1220363   0.023   6.620   6.596  0.3412 -0.4440 -0.3971
  179SOPE  H12A20364  -0.001   6.514   6.622  0.6987 -0.4981 -0.2782
  179SOPE  H12B20365  -0.007   6.640   6.491 -1.6210  0.9429  0.3774
  179SOPE   C1120366  -0.065   6.716   6.677 -0.2865  0.0539  0.1416
  179SOPE  H11A20367  -0.036   6.707   6.784 -0.1484  0.1660  0.1145
  179SOPE  H11B20368  -0.165   6.674   6.656 -0.3804  0.4966 -0.3349
  179SOPE     P20369  -0.182   6.942   6.601  0.1987  0.2846 -0.0840
  179SOPE   O1320370  -0.291   6.877   6.521 -0.1857  0.4320  0.2730
  179SOPE   O1420371  -0.123   7.067   6.550  0.0879  0.2660 -0.0014
  179SOPE   O1220372  -0.057   6.846   6.627  0.4558 -0.7333 -0.0679
  179SOPE   O1120373  -0.238   6.967   6.746 -0.1725  0.1771 -0.0751
  179SOPE    C120374  -0.361   7.008   6.771 -0.0572 -0.3171  0.6300
  179SOPE    HA20375  -0.431   7.005   6.685 -1.9441  1.0136  2.0358
  179SOPE    HB20376  -0.357   7.115   6.801  0.9660 -0.4418  0.9743
  179SOPE    C220377  -0.436   6.927   6.877  0.4431 -0.3336 -0.0271
  179SOPE    HS20378  -0.538   6.972   6.880  1.5104  2.2290  1.5583
  179SOPE   O2120379  -0.365   6.936   7.004 -0.3616 -0.1806  0.1157
  179SOPE   C2120380  -0.390   7.042   7.078  0.2472  0.5624  0.2739
  179SOPE   O2220381  -0.475   7.122   7.044  0.2255  0.3213  0.2748
  179SOPE   C2220382  -0.321   7.045   7.211 -0.3562 -0.2843  0.3457
  179SOPE   H2R20383  -0.224   7.096   7.190 -1.5362  2.1151  0.3251
  179SOPE   H2S20384  -0.301   6.940   7.241 -0.3747 -0.5916 -0.6578
  179SOPE    C320385  -0.434   6.777   6.840  0.0036 -0.1715 -0.1336
  179SOPE    HX20386  -0.334   6.735   6.814 -0.2998  0.2333 -2.1380
  179SOPE    HY20387  -0.485   6.774   6.741 -0.6548 -0.9874  0.2212
  179SOPE   O3120388  -0.497   6.680   6.928  0.4753 -0.0947  0.1000
  179SOPE   C3120389  -0.484   6.552   6.900  0.5247 -0.4562  0.7372
  179SOPE   O3220390  -0.433   6.504   6.799  0.2516  0.1408  0.0526
  179SOPE   C3220391  -0.572   6.467   7.001 -0.2907  0.1303  0.1471
  179SOPE   H2X20392  -0.672   6.489   6.960 -0.4915 -0.4873  0.2801
  179SOPE   H2Y20393  -0.550   6.510   7.101  2.7629 -1.1314  0.1549
  179SOPE   C2320394  -0.386   7.149   7.307  0.0860 -0.3617  0.3034
  179SOPE   H3R20395  -0.491   7.119   7.324 -0.3202  1.5342  1.5003
  179SOPE   H3S20396  -0.377   7.251   7.264  0.8683 -0.8417 -0.7072
  179SOPE   C2420397  -0.306   7.172   7.437 -0.5197  0.0184 -0.3510
  179SOPE   H4R20398  -0.200   7.196   7.411 -0.2757  1.0189  1.4231
  179SOPE   H4S20399  -0.349   7.263   7.484 -0.8800  0.2750 -1.1692
  179SOPE   C2520400  -0.319   7.063   7.543  0.0408  0.2251 -0.4574
  179SOPE   H5R20401  -0.424   7.061   7.578 -0.4531  1.9343 -1.7393
  179SOPE   H5S20402  -0.290   6.965   7.498  2.0038 -0.2445  1.6346
  179SOPE   C2620403  -0.232   7.102   7.663 -0.0379 -0.3554 -0.4734
  179SOPE   H6R20404  -0.127   7.113   7.629 -0.7690  1.6017 -2.3172
  179SOPE   H6S20405  -0.254   7.208   7.687  0.5341 -0.4667  0.6080
  179SOPE   C2720406  -0.246   7.007   7.783  0.2928 -0.1523 -0.0372
  179SOPE   H7R20407  -0.353   6.996   7.812  1.4543  0.8208  5.8093
  179SOPE   H7S20408  -0.214   6.907   7.747 -0.6383 -0.5117  0.1169
  179SOPE   C2820409  -0.158   7.048   7.912 -0.5140  0.2320 -0.2039
  179SOPE   H8R20410  -0.057   7.058   7.868  0.4960 -1.6555  1.5372
  179SOPE   H8S20411  -0.191   7.152   7.936 -0.2522  0.3720 -0.4455
  179SOPE   C2920412  -0.176   6.956   8.023 -0.4338 -0.2970  0.1322
  179SOPE   H9120413  -0.210   6.857   7.988 -2.0719 -0.0956  1.0497
  179SOPE  C21020414  -0.154   6.978   8.156 -0.1337 -0.2339 -0.0414
  179SOPE  H10120415  -0.157   6.904   8.237  0.4734  1.4418  1.5858
  179SOPE  C21120416  -0.104   7.113   8.201 -0.0752 -0.8834  0.5281
  179SOPE  H11R20417  -0.035   7.161   8.129 -2.2191 -0.0094 -1.0287
  179SOPE  H11S20418  -0.044   7.106   8.294  0.8732 -0.3632 -0.0290
  179SOPE  C21220419  -0.216   7.220   8.231 -0.5727 -0.0788  0.4185
  179SOPE  H12R20420  -0.288   7.235   8.148 -0.8091  0.1293  0.6576
  179SOPE  H12S20421  -0.173   7.322   8.242  0.4434 -0.3329 -0.9664
  179SOPE  C21320422  -0.287   7.180   8.358 -0.0495 -0.3159 -0.4172
  179SOPE  H13R20423  -0.222   7.141   8.440  0.2157 -2.3429 -1.5147
  179SOPE  H13S20424  -0.326   7.080   8.330  2.1631 -0.9018 -1.6880
  179SOPE  C21420425  -0.386   7.292   8.401  0.2592  0.8755 -0.7323
  179SOPE  H14R20426  -0.332   7.379   8.444  1.6232  0.5270 -1.6900
  179SOPE  H14S20427  -0.442   7.238   8.481 -0.8896  3.0332  0.0194
  179SOPE  C21520428  -0.482   7.341   8.298  0.3362 -0.8071  0.2845
  179SOPE  H15R20429  -0.536   7.256   8.250  2.7225 -0.7654 -2.7592
  179SOPE  H15S20430  -0.417   7.396   8.227 -1.0331  1.8162  0.9559
  179SOPE  C21620431  -0.586   7.437   8.356  0.0051  0.5564 -0.5762
  179SOPE  H16R20432  -0.538   7.516   8.418  0.2926  0.2796 -0.4469
  179SOPE  H16S20433  -0.632   7.376   8.436 -2.3963  2.1185 -0.6667
  179SOPE  C21720434  -0.688   7.494   8.269  0.6010  0.0781 -0.2597
  179SOPE  H17R20435  -0.647   7.558   8.188  0.4921  0.8896  0.3156
  179SOPE  H17S20436  -0.752   7.556   8.335  2.0461  1.1936  0.1286
  179SOPE  C21820437  -0.781   7.388   8.208 -0.5784  0.1409  0.1845
  179SOPE  H18R20438  -0.732   7.341   8.120 -1.4784 -1.3215  0.4239
  179SOPE  H18S20439  -0.872   7.442   8.174  0.1177  2.4000  1.6943
  179SOPE  H18T20440  -0.803   7.314   8.288  1.6776 -0.8376 -0.0310
  179SOPE   C3320441  -0.546   6.319   6.994 -1.1160 -0.3792 -0.7034
  179SOPE   H3X20442  -0.443   6.280   6.992 -1.3097 -0.8845 -2.1426
  179SOPE   H3Y20443  -0.583   6.297   6.892  0.2171 -1.0684 -1.0550
  179SOPE   C3420444  -0.624   6.254   7.104  0.6697  0.2833 -0.1069
  179SOPE   H4X20445  -0.633   6.145   7.081  3.7558  0.1514 -1.1643
  179SOPE   H4Y20446  -0.726   6.294   7.120  0.6128 -0.1072  0.5421
  179SOPE   C3520447  -0.544   6.269   7.234 -0.3933 -0.0862  0.2167
  179SOPE   H5X20448  -0.501   6.371   7.241 -0.4177 -0.1296  1.1959
  179SOPE   H5Y20449  -0.448   6.214   7.223 -0.5286 -0.2648 -0.0841
  179SOPE   C3620450  -0.602   6.232   7.370  0.7058 -0.0829  0.3336
  179SOPE   H6X20451  -0.628   6.124   7.371  0.2850  0.0170  0.7915
  179SOPE   H6Y20452  -0.701   6.277   7.393 -0.1638 -0.9911 -1.4204
  179SOPE   C3720453  -0.505   6.259   7.483  0.3166 -0.1861 -0.4316
  179SOPE   H7X20454  -0.481   6.367   7.493 -0.5501  0.0551 -0.8622
  179SOPE   H7Y20455  -0.407   6.211   7.463 -0.0822 -1.8102  1.1958
  179SOPE   C3820456  -0.570   6.211   7.614 -1.0385 -0.6110 -0.2904
  179SOPE   H8X20457  -0.601   6.105   7.605 -0.6812 -0.6136 -1.8355
  179SOPE   H8Y20458  -0.670   6.258   7.624 -0.6394  0.1145  0.4156
  179SOPE   C3920459  -0.490   6.227   7.746  0.0034 -0.1095  0.5301
  179SOPE   H9X20460  -0.445   6.328   7.739  0.4244 -0.3882 -1.6414
  179SOPE   H9Y20461  -0.405   6.155   7.751  0.6658  0.5562 -0.7397
  179SOPE  C31020462  -0.571   6.184   7.874  0.1991  0.2919  0.2277
  179SOPE  H10X20463  -0.608   6.079   7.869  0.2113  0.3128 -3.7733
  179SOPE  H10Y20464  -0.659   6.251   7.886  1.8546  3.0242 -1.8225
  179SOPE  C31120465  -0.478   6.201   7.996  0.8061  0.0378  0.0715
  179SOPE  H11X20466  -0.428   6.301   8.001 -2.2222  1.9136 -2.8446
  179SOPE  H11Y20467  -0.398   6.126   7.979  1.0924  0.7205 -1.8041
  179SOPE  C31220468  -0.544   6.179   8.134  0.5047  0.2332  0.5295
  179SOPE  H12X20469  -0.620   6.260   8.135 -1.4511 -1.4368 -1.6016
  179SOPE  H12Y20470  -0.463   6.202   8.206  1.7070  2.4680 -1.4312
  179SOPE  C31320471  -0.618   6.046   8.171  0.2044  0.7302  0.2116
  179SOPE  H13X20472  -0.705   6.036   8.102 -1.5422  0.8421  2.2858
  179SOPE  H13Y20473  -0.673   6.056   8.267 -1.1876 -2.1963 -0.1641
  179SOPE  C31420474  -0.529   5.920   8.175 -0.2392 -0.1097 -0.0808
  179SOPE  H14X20475  -0.463   5.929   8.086  2.2264 -0.2220  1.6495
  179SOPE  H14Y20476  -0.599   5.835   8.160 -0.2829 -0.4470  1.8173
  179SOPE  C31520477  -0.444   5.900   8.297  0.0388  0.1738 -0.1414
  179SOPE  H15X20478  -0.515   5.890   8.382 -2.3989  3.7566 -1.5208
  179SOPE  H15Y20479  -0.392   5.994   8.326 -0.1844  0.2923 -0.1216
  179SOPE  C31620480  -0.348   5.782   8.301 -0.4168  0.4761  0.1566
  179SOPE  H16X20481  -0.278   5.781   8.214  1.0108  1.7177  1.2452
  179SOPE  H16Y20482  -0.391   5.679   8.307  1.7632 -0.4357  1.0253
  179SOPE  C31720483  -0.250   5.795   8.422 -0.0194 -0.4561 -0.0864
  179SOPE  H17X20484  -0.225   5.689   8.445  0.5264  0.3844  3.7749
  179SOPE  H17Y20485  -0.302   5.843   8.508 -0.9935  0.3665 -1.0956
  179SOPE  C31820486  -0.119   5.866   8.396 -0.0856  0.5687  0.0755
  179SOPE  H18X20487  -0.064   5.807   8.319 -1.6334 -0.1786 -0.4981
  179SOPE  H18Y20488  -0.063   5.876   8.491 -0.0109  0.8869 -0.0022
  179SOPE  H18Z20489  -0.122   5.967   8.350 -2.0252  0.1044 -0.9445
  180SOPE     N20490   4.636   5.576   5.862 -0.2960  0.3929  0.1388
  180SOPE   HN120491   4.564   5.651   5.866 -0.9982 -0.0978 -1.8063
  180SOPE   HN220492   4.636   5.548   5.761  0.2747 -2.3283  0.7907
  180SOPE   HN320493   4.601   5.490   5.910  1.2403 -0.5995 -0.4270
  180SOPE   C1220494   4.777   5.608   5.908 -0.1262  0.1521  0.1728
  180SOPE  H12A20495   4.817   5.695   5.851 -0.5360 -1.2959 -2.5213
  180SOPE  H12B20496   4.844   5.523   5.883  0.2560  1.0192 -2.0354
  180SOPE   C1120497   4.790   5.628   6.057  0.1773 -0.3417 -0.3504
  180SOPE  H11A20498   4.792   5.529   6.107  2.6047 -0.2236 -0.0824
  180SOPE  H11B20499   4.696   5.683   6.082 -0.8235 -1.4225 -1.6004
  180SOPE     P20500   5.048   5.634   6.098 -0.0686 -0.2428 -0.1764
  180SOPE   O1320501   5.159   5.723   6.049  0.2387  0.1773 -0.3426
  180SOPE   O1420502   5.050   5.495   6.058  0.5955 -0.2353  0.5821
  180SOPE   O1220503   4.909   5.705   6.082 -0.0217  0.0599  0.0777
  180SOPE   O1120504   5.065   5.646   6.257  0.0716 -0.1887  0.2056
  180SOPE    C120505   5.042   5.771   6.308  0.1469 -0.3174 -0.3865
  180SOPE    HA20506   4.932   5.788   6.303 -0.8448 -5.1157 -0.0525
  180SOPE    HB20507   5.091   5.847   6.245 -1.2982  0.1747 -0.9712
  180SOPE    C220508   5.104   5.768   6.452 -0.5680 -0.0921  0.7009
  180SOPE    HS20509   5.206   5.728   6.435 -0.1938  1.8127 -2.4213
  180SOPE   O2120510   5.020   5.677   6.523 -0.0868  0.3015 -0.1108
  180SOPE   C2120511   5.079   5.592   6.615 -0.6914 -0.1589  0.2761
  180SOPE   O2220512   5.198   5.592   6.642  0.5231 -0.1135  0.3231
  180SOPE   C2220513   4.967   5.518   6.683  0.2757 -0.3224  0.3547
  180SOPE   H2R20514   4.928   5.442   6.611  1.5094  0.2697 -0.9856
  180SOPE   H2S20515   4.894   5.594   6.716  1.6537  0.7799  0.9963
  180SOPE    C320516   5.093   5.909   6.520 -0.4514 -0.3874  0.2967
  180SOPE    HX20517   4.991   5.947   6.540  0.5530  1.7486  1.7327
  180SOPE    HY20518   5.127   5.973   6.436 -0.3576 -1.2739 -0.3637
  180SOPE   O3120519   5.183   5.913   6.631  0.6001  0.2706 -0.1922
  180SOPE   C3120520   5.123   5.898   6.751 -0.5992 -0.1503 -0.5951
  180SOPE   O3220521   5.008   5.890   6.772  0.5298  0.7627 -0.3392
  180SOPE   C3220522   5.228   5.891   6.858 -0.7232  0.4871  0.0932
  180SOPE   H2X20523   5.300   5.974   6.841  0.0669 -0.1333  0.3376
  180SOPE   H2Y20524   5.286   5.797   6.843 -3.3748 -1.3131  0.4384
  180SOPE   C2320525   5.016   5.439   6.801 -0.3982 -0.1584 -0.2820
  180SOPE   H3R20526   5.111   5.392   6.770 -0.5844 -1.2503  0.7175
  180SOPE   H3S20527   4.946   5.355   6.820  1.7561 -1.6896  1.2616
  180SOPE   C2420528   5.054   5.527   6.927  0.6514 -0.4226  0.9677
  180SOPE   H4R20529   5.149   5.580   6.911  0.7254 -0.3875  1.5128
  180SOPE   H4S20530   4.958   5.583   6.933  1.5765  1.3215  0.1312
  180SOPE   C2520531   5.077   5.438   7.051 -0.7374  0.6260 -0.3762
  180SOPE   H5R20532   5.121   5.345   7.009  1.5974  1.1886  0.6437
  180SOPE   H5S20533   5.147   5.497   7.114 -0.9815 -0.5352  1.0420
  180SOPE   C2620534   4.945   5.403   7.113 -0.4078 -0.1297  0.2179
  180SOPE   H6R20535   4.892   5.489   7.157 -0.2174  1.4855 -2.4699
  180SOPE   H6S20536   4.883   5.350   7.037 -1.7752  0.3729  0.9591
  180SOPE   C2720537   4.973   5.310   7.233  0.4422  0.4415 -0.1136
  180SOPE   H7R20538   4.982   5.205   7.197  0.2612 -0.3594  2.0341
  180SOPE   H7S20539   5.061   5.342   7.294  1.3651  0.8380 -1.6125
  180SOPE   C2820540   4.856   5.311   7.340  0.0289 -0.7771  0.0121
  180SOPE   H8R20541   4.767   5.284   7.279  1.3766 -1.4538 -1.7650
  180SOPE   H8S20542   4.862   5.236   7.422 -0.4653  0.4348  1.1932
  180SOPE   C2920543   4.829   5.442   7.409 -0.0237  0.1529 -0.4700
  180SOPE   H9120544   4.797   5.519   7.337  1.9228  1.0622 -0.4357
  180SOPE  C21020545   4.832   5.467   7.541  0.1349 -0.5817  0.8463
  180SOPE  H10120546   4.800   5.566   7.576 -1.1137  0.6181 -3.1709
  180SOPE  C21120547   4.875   5.362   7.642  0.4497  0.4634 -0.7185
  180SOPE  H11R20548   4.964   5.303   7.612 -0.5212 -1.5887  0.2595
  180SOPE  H11S20549   4.800   5.282   7.659 -0.3864  1.6739  1.8384
  180SOPE  C21220550   4.904   5.419   7.785  0.0558  0.9583 -0.3024
  180SOPE  H12R20551   4.810   5.468   7.817 -0.4674  0.3818 -0.9305
  180SOPE  H12S20552   4.985   5.496   7.782  1.3638 -0.4079 -2.2681
  180SOPE  C21320553   4.968   5.309   7.878 -0.0814  0.3919  0.3536
  180SOPE  H13R20554   5.074   5.288   7.849  0.6796  2.6483  1.2683
  180SOPE  H13S20555   4.921   5.209   7.867  3.0197 -1.1951  0.4808
  180SOPE  C21420556   4.951   5.356   8.024  0.8847  0.2462  0.4377
  180SOPE  H14R20557   4.867   5.291   8.056  0.2976 -0.0972 -1.6312
  180SOPE  H14S20558   4.917   5.462   8.028 -1.4130 -0.4399  0.6952
  180SOPE  C21520559   5.068   5.329   8.119 -0.5457  0.2628 -0.0351
  180SOPE  H15R20560   5.150   5.392   8.079 -1.4020  2.1546  1.0270
  180SOPE  H15S20561   5.106   5.225   8.124  1.6386  0.9572 -1.0248
  180SOPE  C21620562   5.037   5.373   8.259 -0.2298 -0.4598 -0.0475
  180SOPE  H16R20563   4.938   5.343   8.300 -0.2060  0.0247  0.3777
  180SOPE  H16S20564   5.038   5.484   8.252 -0.7331 -0.4291  0.2778
  180SOPE  C21720565   5.141   5.336   8.364 -1.0172  0.4030 -0.2644
  180SOPE  H17R20566   5.234   5.394   8.344 -0.8211  0.0967 -0.2349
  180SOPE  H17S20567   5.173   5.230   8.360  0.8616  0.9770 -2.1874
  180SOPE  C21820568   5.107   5.369   8.510 -0.0944 -1.3409  0.6118
  180SOPE  H18R20569   5.016   5.317   8.549  0.4486 -2.4168  0.4924
  180SOPE  H18S20570   5.114   5.479   8.523  0.6721 -1.2411 -0.5237
  180SOPE  H18T20571   5.182   5.325   8.579 -0.3855  0.7928  2.4163
  180SOPE   C3320572   5.155   5.882   6.996  0.1220 -0.2569  0.3194
  180SOPE   H3X20573   5.080   5.801   6.988  0.3580 -0.4271 -0.2752
  180SOPE   H3Y20574   5.118   5.984   7.018  1.0668  0.0509  0.5594
  180SOPE   C3420575   5.251   5.834   7.110 -0.4457 -0.3990  0.5977
  180SOPE   H4X20576   5.325   5.757   7.080 -0.3291  0.2482 -0.8477
  180SOPE   H4Y20577   5.190   5.769   7.176  1.5635 -2.1489  0.8568
  180SOPE   C3520578   5.305   5.953   7.199 -0.2587  0.7929 -0.2002
  180SOPE   H5X20579   5.221   6.024   7.210  1.2898  2.6870  0.0594
  180SOPE   H5Y20580   5.389   6.008   7.151  0.0885  1.0394  0.6620
  180SOPE   C3620581   5.340   5.907   7.348 -0.2171  0.3925 -0.8530
  180SOPE   H6X20582   5.429   5.842   7.336 -0.3745  0.1139 -0.5285
  180SOPE   H6Y20583   5.251   5.845   7.375 -1.5846  1.6113 -2.3217
  180SOPE   C3720584   5.359   6.027   7.445 -0.0278  0.6986 -0.2968
  180SOPE   H7X20585   5.285   6.104   7.415 -0.4708  0.6840  0.6922
  180SOPE   H7Y20586   5.459   6.071   7.430 -0.4525  1.5553 -0.6793
  180SOPE   C3820587   5.344   5.982   7.589  0.1264  0.6550  0.0216
  180SOPE   H8X20588   5.410   5.895   7.610 -0.4007  0.6611  1.9191
  180SOPE   H8Y20589   5.240   5.947   7.606 -0.5738  1.8605 -1.5426
  180SOPE   C3920590   5.377   6.098   7.690 -0.3160  0.3131 -0.0173
  180SOPE   H9X20591   5.309   6.183   7.668  0.0844  0.8517  0.7687
  180SOPE   H9Y20592   5.476   6.142   7.666 -1.4913  3.2686  0.0632
  180SOPE  C31020593   5.357   6.053   7.842  0.4465  0.1511  0.7332
  180SOPE  H10X20594   5.419   5.965   7.869 -1.6248 -1.5246  0.3177
  180SOPE  H10Y20595   5.248   6.035   7.848  0.3618  0.2042 -0.3839
  180SOPE  C31120596   5.396   6.168   7.931  0.5651 -0.3793  0.5007
  180SOPE  H11X20597   5.505   6.184   7.920  0.8582 -1.6919  1.3329
  180SOPE  H11Y20598   5.381   6.142   8.038  0.6228 -1.2247  0.3085
  180SOPE  C31220599   5.330   6.304   7.905 -0.3981 -0.0963  0.3442
  180SOPE  H12X20600   5.221   6.283   7.906 -0.6189  0.7276  2.8010
  180SOPE  H12Y20601   5.372   6.341   7.810 -0.8651  1.7162  0.7943
  180SOPE  C31320602   5.379   6.407   8.007 -0.0645 -0.7059 -0.4105
  180SOPE  H13X20603   5.388   6.499   7.946 -0.4237  0.5026  1.3086
  180SOPE  H13Y20604   5.479   6.378   8.047 -0.8760 -0.5108  1.8954
  180SOPE  C31420605   5.287   6.445   8.126  0.4079  0.6023 -0.5545
  180SOPE  H14X20606   5.263   6.359   8.192 -4.7223  1.3153 -1.0183
  180SOPE  H14Y20607   5.184   6.476   8.097  0.2260  1.4177  0.8856
  180SOPE  C31520608   5.357   6.548   8.217 -0.2201  0.0303 -0.8216
  180SOPE  H15X20609   5.403   6.634   8.163  1.5996  0.4894  1.3084
  180SOPE  H15Y20610   5.441   6.495   8.268 -2.0959 -0.7797  1.6167
  180SOPE  C31620611   5.269   6.601   8.331 -0.2368 -0.2407 -0.1007
  180SOPE  H16X20612   5.335   6.643   8.410  0.4093 -0.8802 -0.2855
  180SOPE  H16Y20613   5.225   6.508   8.370  1.2378 -0.6504  0.6654
  180SOPE  C31720614   5.158   6.708   8.299 -1.1043 -0.1147  0.2562
  180SOPE  H17X20615   5.098   6.663   8.217  2.9261 -2.7741 -1.5490
  180SOPE  H17Y20616   5.208   6.799   8.260  1.1738 -0.4870  2.1240
  180SOPE  C31820617   5.067   6.737   8.414  0.2904 -0.5391  0.0165
  180SOPE  H18X20618   5.032   6.647   8.468  0.7564 -0.4081  0.5424
  180SOPE  H18Y20619   4.977   6.794   8.380 -0.2213  0.3995  2.6822
  180SOPE  H18Z20620   5.124   6.782   8.498  0.1051 -2.2088  1.0861
  181SOPE     N20621   5.430   3.182   5.950 -0.3494 -0.3765 -0.0941
  181SOPE   HN120622   5.382   3.157   5.861 -0.3345 -3.5797  0.6585
  181SOPE   HN220623   5.467   3.277   5.931 -1.6804  0.1451 -0.1773
  181SOPE   HN320624   5.517   3.126   5.964 -0.9537 -1.3639 -0.2024
  181SOPE   C1220625   5.346   3.171   6.073  0.1314  0.1282  0.5806
  181SOPE  H12A20626   5.392   3.244   6.143  1.5146 -1.0232  0.9393
  181SOPE  H12B20627   5.362   3.066   6.107  0.7478  0.3619  1.0275
  181SOPE   C1120628   5.202   3.213   6.053 -0.3321 -0.3848  0.1287
  181SOPE  H11A20629   5.153   3.177   6.145 -1.2828 -0.8044 -0.5226
  181SOPE  H11B20630   5.155   3.159   5.968  0.5112 -0.9459  0.0068
  181SOPE     P20631   5.123   3.442   6.152  0.2870 -0.0765 -0.1446
  181SOPE   O1320632   5.003   3.376   6.202  1.1067 -0.3110  0.0402
  181SOPE   O1420633   5.111   3.576   6.097  0.2304  0.1663 -0.4967
  181SOPE   O1220634   5.192   3.355   6.042 -0.3174  0.5358  0.7112
  181SOPE   O1120635   5.241   3.439   6.262 -0.3556 -0.1672  0.0831
  181SOPE    C120636   5.350   3.525   6.251  0.1977 -0.5444  0.3235
  181SOPE    HA20637   5.322   3.624   6.207  3.5748  0.6421  0.5226
  181SOPE    HB20638   5.425   3.475   6.186 -0.2682 -1.0625  0.1824
  181SOPE    C220639   5.443   3.551   6.378  0.1616 -0.1556 -0.4123
  181SOPE    HS20640   5.474   3.450   6.412 -0.2624 -0.7328 -1.6701
  181SOPE   O2120641   5.363   3.615   6.477  0.3134 -0.1878 -0.5070
  181SOPE   C2120642   5.303   3.539   6.568 -0.1514 -0.0517  0.7767
  181SOPE   O2220643   5.343   3.430   6.603  0.2090  0.4853 -0.2142
  181SOPE   C2220644   5.175   3.609   6.619  0.3151 -0.2678  0.3486
  181SOPE   H2R20645   5.094   3.603   6.543  0.3152  0.3047  0.2984
  181SOPE   H2S20646   5.196   3.717   6.627 -1.6858  0.2509 -0.8234
  181SOPE    C320647   5.567   3.641   6.356  0.1544  0.5376  0.6951
  181SOPE    HX20648   5.523   3.741   6.338 -1.0269  0.0214  0.5656
  181SOPE    HY20649   5.621   3.611   6.264  0.7975 -0.3579  1.3489
  181SOPE   O3120650   5.651   3.641   6.473 -0.4340 -0.3468 -0.7565
  181SOPE   C3120651   5.729   3.527   6.485  0.4199 -0.0597 -0.3775
  181SOPE   O3220652   5.723   3.429   6.419 -0.2400  0.8757 -0.3876
  181SOPE   C3220653   5.819   3.553   6.602  0.4411  0.3489  0.6173
  181SOPE   H2X20654   5.863   3.654   6.594 -0.6093  1.0161  2.5304
  181SOPE   H2Y20655   5.900   3.478   6.615 -1.0048 -1.0570  2.1939
  181SOPE   C2320656   5.132   3.567   6.754  0.5925 -0.2991  0.2779
  181SOPE   H3R20657   5.161   3.461   6.774  0.0374 -0.5572 -0.2640
  181SOPE   H3S20658   5.021   3.562   6.755  0.3469  2.9996 -0.8379
  181SOPE   C2420659   5.188   3.642   6.874  0.2932  0.0239 -0.1920
  181SOPE   H4R20660   5.293   3.666   6.847 -0.1175  2.0971 -0.1593
  181SOPE   H4S20661   5.144   3.743   6.886 -0.6785 -0.2913 -1.0040
  181SOPE   C2520662   5.190   3.569   7.005 -0.5135 -0.0926  0.6787
  181SOPE   H5R20663   5.235   3.467   7.007  0.6053  0.3905  2.4956
  181SOPE   H5S20664   5.251   3.631   7.073  0.9560 -0.0352 -0.6323
  181SOPE   C2620665   5.055   3.564   7.072  0.5114 -0.0300 -0.5249
  181SOPE   H6R20666   5.014   3.667   7.081 -1.3998 -0.8348  0.6121
  181SOPE   H6S20667   4.977   3.510   7.014 -1.2498 -2.8245  3.9316
  181SOPE   C2720668   5.045   3.499   7.211  0.8619 -0.2732  0.6680
  181SOPE   H7R20669   4.937   3.503   7.239  1.3796  0.7896  2.7228
  181SOPE   H7S20670   5.083   3.395   7.222 -1.1976 -0.9121  2.4909
  181SOPE   C2820671   5.129   3.577   7.315 -0.5031 -0.5193 -0.5783
  181SOPE   H8R20672   5.127   3.521   7.411  0.4764  0.2721 -0.0862
  181SOPE   H8S20673   5.236   3.573   7.287 -0.7823 -1.1247 -1.6656
  181SOPE   C2920674   5.077   3.716   7.337  0.1245  0.2124 -0.4913
  181SOPE   H9120675   5.079   3.771   7.241 -1.6293 -1.3244 -1.4760
  181SOPE  C21020676   5.014   3.763   7.449  0.3648 -0.5013  0.5566
  181SOPE  H10120677   4.970   3.863   7.464 -0.5796 -0.8053 -0.0559
  181SOPE  C21120678   4.982   3.685   7.574 -0.2732 -0.1164  0.2105
  181SOPE  H11R20679   5.059   3.610   7.602  0.3017 -0.1132 -1.2623
  181SOPE  H11S20680   4.898   3.619   7.544  1.4767 -1.8048 -1.2100
  181SOPE  C21220681   4.953   3.773   7.700 -0.3397  0.7463  0.4045
  181SOPE  H12R20682   4.872   3.847   7.683 -0.2904  0.6627 -0.2027
  181SOPE  H12S20683   5.038   3.836   7.731 -0.1121  0.2633  0.7855
  181SOPE  C21320684   4.906   3.683   7.818 -0.4308 -0.2336 -0.4028
  181SOPE  H13R20685   4.969   3.593   7.835  0.5863  0.9037  2.5120
  181SOPE  H13S20686   4.810   3.645   7.776  0.5683 -1.9543 -1.2272
  181SOPE  C21420687   4.878   3.749   7.953  0.1473 -0.0973  0.1488
  181SOPE  H14R20688   4.825   3.845   7.932 -0.1264  0.0540  1.4938
  181SOPE  H14S20689   4.969   3.776   8.011 -0.1054 -0.4020  0.6879
  181SOPE  C21520690   4.788   3.653   8.041  0.1249  0.7657  0.2023
  181SOPE  H15R20691   4.851   3.564   8.063 -0.5545  0.4309  0.8375
  181SOPE  H15S20692   4.696   3.627   7.985  0.2139  1.8674 -0.4869
  181SOPE  C21620693   4.753   3.710   8.177 -0.4537 -0.4964 -0.6052
  181SOPE  H16R20694   4.696   3.802   8.153 -3.2303 -1.7466  0.7942
  181SOPE  H16S20695   4.851   3.735   8.224 -0.4654  0.3838 -1.0224
  181SOPE  C21720696   4.678   3.618   8.269 -0.0767 -0.5836 -0.0220
  181SOPE  H17R20697   4.575   3.594   8.235  0.3850 -3.1224  0.1648
  181SOPE  H17S20698   4.662   3.686   8.355 -0.5644  1.8040 -1.9074
  181SOPE  C21820699   4.748   3.488   8.315  0.5530 -0.7656 -0.0527
  181SOPE  H18R20700   4.722   3.401   8.250 -0.1636 -0.2956 -0.4061
  181SOPE  H18S20701   4.712   3.462   8.417  2.5309 -0.9139  0.6431
  181SOPE  H18T20702   4.857   3.503   8.326  0.7637 -1.2453 -1.2768
  181SOPE   C3320703   5.735   3.566   6.729 -0.0475 -0.1356  0.3798
  181SOPE   H3X20704   5.672   3.476   6.746 -0.3684 -0.3272 -1.6415
  181SOPE   H3Y20705   5.663   3.650   6.738  1.6334  1.5653 -1.1327
  181SOPE   C3420706   5.823   3.556   6.848  0.8097 -0.2671 -0.7205
  181SOPE   H4X20707   5.906   3.630   6.841  1.3643 -0.8845 -0.8161
  181SOPE   H4Y20708   5.870   3.456   6.860  0.3426 -0.2240  2.1595
  181SOPE   C3520709   5.752   3.589   6.984  0.8752 -0.1224 -0.5281
  181SOPE   H5X20710   5.727   3.697   6.989  3.3388  0.5481 -1.2782
  181SOPE   H5Y20711   5.823   3.564   7.066  1.4699 -0.7600 -1.2275
  181SOPE   C3620712   5.628   3.508   7.001 -0.1244 -0.4869  0.2511
  181SOPE   H6X20713   5.658   3.401   7.013 -1.8622 -1.0025  0.2881
  181SOPE   H6Y20714   5.568   3.503   6.907 -0.4622 -0.7772  0.4781
  181SOPE   C3720715   5.535   3.546   7.118  0.1704  0.6644 -0.2787
  181SOPE   H7X20716   5.455   3.469   7.118 -0.2591  1.0239 -2.7117
  181SOPE   H7Y20717   5.497   3.650   7.108 -1.0453  0.2349 -0.3367
  181SOPE   C3820718   5.608   3.553   7.255  0.2955  0.8713 -0.1482
  181SOPE   H8X20719   5.696   3.621   7.249  2.4713 -1.5410  2.0254
  181SOPE   H8Y20720   5.649   3.451   7.277 -1.6512  0.0954  0.0241
  181SOPE   C3920721   5.523   3.600   7.371 -0.1450 -0.6949 -0.9573
  181SOPE   H9X20722   5.437   3.530   7.379  0.2722 -1.0540  0.7263
  181SOPE   H9Y20723   5.483   3.701   7.345  0.0538 -0.5358 -0.6439
  181SOPE  C31020724   5.587   3.602   7.507 -0.5093  0.2434 -0.4432
  181SOPE  H10X20725   5.667   3.679   7.520 -0.9720  0.4240  1.6023
  181SOPE  H10Y20726   5.638   3.506   7.530 -0.7447 -0.2894 -2.0051
  181SOPE  C31120727   5.481   3.633   7.613 -0.1233  0.1964  0.0467
  181SOPE  H11X20728   5.419   3.541   7.617  0.3893 -0.3454 -2.7025
  181SOPE  H11Y20729   5.420   3.721   7.581  0.1223  0.0266 -0.9050
  181SOPE  C31220730   5.547   3.654   7.748  0.0914  0.1148 -0.9318
  181SOPE  H12X20731   5.625   3.733   7.747  1.2393 -0.9037  1.2024
  181SOPE  H12Y20732   5.602   3.567   7.790  0.2699  1.5733  2.1925
  181SOPE  C31320733   5.445   3.688   7.850 -0.3418 -0.3595 -0.7306
  181SOPE  H13X20734   5.369   3.610   7.873 -2.6065  2.1710  1.1164
  181SOPE  H13Y20735   5.387   3.775   7.813  0.6413  1.4816  1.8249
  181SOPE  C31420736   5.509   3.733   7.984 -0.7576 -0.3106  0.1479
  181SOPE  H14X20737   5.591   3.805   7.966 -0.0631 -0.9461  0.6584
  181SOPE  H14Y20738   5.561   3.653   8.041 -0.6033 -0.0526  0.3690
  181SOPE  C31520739   5.410   3.782   8.092  0.0134  0.3102  0.3268
  181SOPE  H15X20740   5.341   3.854   8.043 -1.2863 -0.3009  1.2054
  181SOPE  H15Y20741   5.465   3.822   8.181  0.1785 -1.5166  1.1028
  181SOPE  C31620742   5.313   3.677   8.146 -0.2196 -0.6271 -0.1881
  181SOPE  H16X20743   5.375   3.591   8.178 -0.0753 -0.4994 -0.1216
  181SOPE  H16Y20744   5.238   3.646   8.071 -0.5444 -0.2823 -0.0111
  181SOPE  C31720745   5.232   3.726   8.269 -0.6247 -0.3036  0.0626
  181SOPE  H17X20746   5.158   3.804   8.239  1.4007  2.8639  2.5609
  181SOPE  H17Y20747   5.302   3.769   8.345 -0.0345  0.3042 -0.8036
  181SOPE  C31820748   5.158   3.609   8.338  0.8482  0.8790 -0.2986
  181SOPE  H18X20749   5.094   3.562   8.260  2.6199  0.3375 -1.4749
  181SOPE  H18Y20750   5.091   3.643   8.420  1.2661  1.5638 -0.2383
  181SOPE  H18Z20751   5.232   3.533   8.370 -0.5622  0.0350  1.1606
  182SOPE     N20752   5.834   6.541   6.246  0.4588 -0.0737  0.1374
  182SOPE   HN120753   5.899   6.517   6.169  1.7160  3.2303  0.0011
  182SOPE   HN220754   5.798   6.457   6.296  0.8682 -1.0936 -1.2473
  182SOPE   HN320755   5.754   6.582   6.194 -0.5765  0.3549  1.9827
  182SOPE   C1220756   5.891   6.654   6.315 -0.5329 -0.3338 -0.5018
  182SOPE  H12A20757   5.947   6.713   6.239  0.4807 -0.0627  0.4431
  182SOPE  H12B20758   5.964   6.612   6.387 -1.1917 -1.9909 -0.7551
  182SOPE   C1120759   5.777   6.729   6.394 -0.1887  0.3856  0.3935
  182SOPE  H11A20760   5.841   6.803   6.447  2.2164 -0.3768 -1.2827
  182SOPE  H11B20761   5.737   6.658   6.469  0.1543 -0.3384 -0.1042
  182SOPE     P20762   5.541   6.736   6.268  0.5321 -0.2333  0.0239
  182SOPE   O1320763   5.574   6.627   6.175 -0.1316 -0.0927 -0.2568
  182SOPE   O1420764   5.463   6.840   6.209  0.2513 -0.4591  0.1438
  182SOPE   O1220765   5.680   6.795   6.310  0.5076 -0.1405  0.5902
  182SOPE   O1120766   5.477   6.687   6.397  0.0905  0.4783  0.0431
  182SOPE    C120767   5.479   6.758   6.518  0.2894 -0.6165 -0.2283
  182SOPE    HA20768   5.382   6.811   6.534  0.5530 -0.2340  0.1144
  182SOPE    HB20769   5.558   6.833   6.539 -0.6859  0.1887  0.6960
  182SOPE    C220770   5.488   6.659   6.641 -0.4060 -0.0229  0.3336
  182SOPE    HS20771   5.581   6.603   6.617  0.5928  2.4176 -1.8760
  182SOPE   O2120772   5.363   6.580   6.641 -0.1180 -0.3976  0.2002
  182SOPE   C2120773   5.376   6.449   6.679  0.0839 -0.2927  0.2458
  182SOPE   O2220774   5.480   6.398   6.715 -0.2988  0.1575  0.9245
  182SOPE   C2220775   5.237   6.380   6.672  1.1850  0.5356 -0.2238
  182SOPE   H2R20776   5.246   6.288   6.610  1.2865  1.7859 -2.1395
  182SOPE   H2S20777   5.154   6.433   6.620  0.0664  0.1317  1.0803
  182SOPE    C320778   5.497   6.736   6.783 -0.2883  1.4399  0.3813
  182SOPE    HX20779   5.414   6.808   6.795 -0.8764  0.6603  1.1265
  182SOPE    HY20780   5.595   6.789   6.779  1.6917 -1.9460 -0.6454
  182SOPE   O3120781   5.484   6.633   6.893 -0.1389 -0.4141 -0.0234
  182SOPE   C3120782   5.597   6.579   6.931 -0.4988  0.0683 -0.5709
  182SOPE   O3220783   5.704   6.593   6.876 -0.4069  0.0458 -0.3208
  182SOPE   C3220784   5.567   6.501   7.052  0.8163 -0.1842 -0.4105
  182SOPE   H2X20785   5.554   6.398   7.013 -2.0476 -0.2274  0.4261
  182SOPE   H2Y20786   5.471   6.524   7.103  1.0203 -1.6298  0.6972
  182SOPE   C2320787   5.188   6.332   6.808 -1.1033  1.0460 -0.5551
  182SOPE   H3R20788   5.258   6.253   6.841 -2.9880 -0.6774 -0.4709
  182SOPE   H3S20789   5.086   6.293   6.785 -0.6299  0.6039 -2.0383
  182SOPE   C2420790   5.172   6.433   6.920  0.1044 -0.0174  0.2927
  182SOPE   H4R20791   5.275   6.458   6.953  1.4087 -1.6679 -2.2356
  182SOPE   H4S20792   5.127   6.530   6.888  0.8210  0.1227 -0.3174
  182SOPE   C2520793   5.095   6.361   7.029 -0.3457 -0.4342 -0.3868
  182SOPE   H5R20794   5.001   6.321   6.985 -0.0259 -1.6148 -0.0365
  182SOPE   H5S20795   5.151   6.276   7.075  1.5646  0.8358 -0.2517
  182SOPE   C2620796   5.056   6.455   7.147 -0.4863  0.0567  0.1815
  182SOPE   H6R20797   5.028   6.558   7.118 -0.7700  0.0207  0.3257
  182SOPE   H6S20798   4.978   6.409   7.211  0.5799 -2.2377 -0.0400
  182SOPE   C2720799   5.174   6.468   7.251  0.6943 -0.4116  0.2807
  182SOPE   H7R20800   5.214   6.371   7.288 -0.9284 -1.0361  0.4698
  182SOPE   H7S20801   5.260   6.509   7.193  1.2510  1.3454  2.2551
  182SOPE   C2820802   5.128   6.557   7.371  1.0834  0.1932  0.0186
  182SOPE   H8R20803   5.088   6.653   7.334 -1.1400 -0.1787  1.2206
  182SOPE   H8S20804   5.036   6.498   7.395  1.2285 -0.1523 -0.2600
  182SOPE   C2920805   5.206   6.577   7.495  0.0631  0.1237 -0.4522
  182SOPE   H9120806   5.297   6.639   7.491  0.5726 -0.2627  2.6201
  182SOPE  C21020807   5.194   6.504   7.611  0.3529  0.4262  0.2113
  182SOPE  H10120808   5.265   6.526   7.692 -0.2484 -2.0043  1.4986
  182SOPE  C21120809   5.091   6.399   7.633  0.1176  1.0350  0.4202
  182SOPE  H11R20810   5.129   6.313   7.693  0.9554 -0.6809 -2.3507
  182SOPE  H11S20811   5.054   6.351   7.540 -1.1368  0.3776  1.2242
  182SOPE  C21220812   4.961   6.447   7.705  0.4607 -0.2290 -0.0577
  182SOPE  H12R20813   4.881   6.373   7.688 -1.8311  1.7152  1.6542
  182SOPE  H12S20814   4.924   6.536   7.650 -2.0910 -0.0227  1.8527
  182SOPE  C21320815   4.970   6.471   7.856  0.0351 -0.6929 -0.3724
  182SOPE  H13R20816   5.049   6.550   7.861 -0.7915  0.3595 -2.5361
  182SOPE  H13S20817   5.015   6.386   7.912 -0.1630 -0.1663  0.6067
  182SOPE  C21420818   4.851   6.527   7.938 -0.5302 -0.2566  0.5042
  182SOPE  H14R20819   4.865   6.510   8.047  0.5459 -3.9679 -0.0668
  182SOPE  H14S20820   4.768   6.458   7.911  0.7873 -1.4212 -0.7629
  182SOPE  C21520821   4.813   6.665   7.894 -0.6626 -0.7912  0.3261
  182SOPE  H15R20822   4.702   6.668   7.893 -0.6831 -1.4708 -0.0869
  182SOPE  H15S20823   4.830   6.689   7.787 -0.5411 -1.2832  0.2341
  182SOPE  C21620824   4.864   6.786   7.983  0.2218  0.1120  0.0575
  182SOPE  H16R20825   4.841   6.887   7.942 -0.8587  0.4588  1.4127
  182SOPE  H16S20826   4.974   6.795   7.989  0.0833  0.8584  3.3847
  182SOPE  C21720827   4.804   6.793   8.124 -0.0611  0.0045 -0.7583
  182SOPE  H17R20828   4.842   6.878   8.184  0.6806 -0.9548  0.1705
  182SOPE  H17S20829   4.840   6.703   8.179  0.4180  1.6252  1.7568
  182SOPE  C21820830   4.644   6.793   8.136 -0.6019 -0.2423 -0.7949
  182SOPE  H18R20831   4.603   6.699   8.095 -1.4980 -0.3724  0.3593
  182SOPE  H18S20832   4.606   6.881   8.079 -0.3882 -0.2401 -0.9382
  182SOPE  H18T20833   4.610   6.811   8.240  0.9200 -0.4216 -0.2435
  182SOPE   C3320834   5.681   6.508   7.158 -0.0213  0.0264  0.9319
  182SOPE   H3X20835   5.683   6.605   7.213 -1.6686  1.2032 -0.9579
  182SOPE   H3Y20836   5.780   6.477   7.117 -1.2606 -1.5460 -1.1122
  182SOPE   C3420837   5.661   6.412   7.271  0.6366 -0.6522 -0.3792
  182SOPE   H4X20838   5.672   6.306   7.241 -1.2709 -0.3742 -2.2849
  182SOPE   H4Y20839   5.555   6.418   7.304  0.6101 -2.4290 -0.0251
  182SOPE   C3520840   5.737   6.439   7.400  0.1600 -0.9048 -0.0421
  182SOPE   H5X20841   5.689   6.527   7.449  1.3335 -0.8095  0.9887
  182SOPE   H5Y20842   5.845   6.461   7.389 -0.3832  1.6722 -0.9765
  182SOPE   C3620843   5.712   6.330   7.503 -0.1148  0.1159  0.8059
  182SOPE   H6X20844   5.728   6.232   7.455  1.1779  0.9340 -0.5047
  182SOPE   H6Y20845   5.604   6.325   7.531  0.2512  1.1883  2.5444
  182SOPE   C3720846   5.794   6.318   7.631 -0.9890 -0.3919 -0.2093
  182SOPE   H7X20847   5.903   6.311   7.608 -0.3123  2.5873  1.4756
  182SOPE   H7Y20848   5.758   6.225   7.680 -1.5394  0.3746  0.8830
  182SOPE   C3820849   5.760   6.423   7.732  0.5083 -0.1395  1.0211
  182SOPE   H8X20850   5.650   6.429   7.744  0.6394  0.6197  1.9369
  182SOPE   H8Y20851   5.793   6.524   7.698  0.8790  0.4946  3.1225
  182SOPE   C3920852   5.815   6.397   7.874 -0.1103 -0.9321 -0.3621
  182SOPE   H9X20853   5.926   6.388   7.873 -0.1156 -1.8539  1.7546
  182SOPE   H9Y20854   5.771   6.299   7.904  2.6333 -2.6067 -1.4807
  182SOPE  C31020855   5.767   6.507   7.976 -0.8546 -0.3621 -0.0939
  182SOPE  H10X20856   5.660   6.513   8.004 -0.6601  2.5745  0.2587
  182SOPE  H10Y20857   5.804   6.604   7.937 -0.9631 -0.4084 -0.3103
  182SOPE  C31120858   5.854   6.503   8.109 -0.3870  0.4233 -0.5280
  182SOPE  H11X20859   5.811   6.566   8.189  1.8808 -2.1732  3.0715
  182SOPE  H11Y20860   5.956   6.532   8.076  0.2965  0.0185  1.1431
  182SOPE  C31220861   5.864   6.365   8.176 -0.0319 -0.1550  0.2389
  182SOPE  H12X20862   5.891   6.368   8.283 -0.6189 -0.5933  0.4014
  182SOPE  H12Y20863   5.939   6.302   8.123  0.2174  0.4681 -0.1726
  182SOPE  C31320864   5.728   6.297   8.195  0.8309  0.5092  0.1140
  182SOPE  H13X20865   5.678   6.283   8.096 -0.6947 -0.2142  0.9463
  182SOPE  H13Y20866   5.663   6.361   8.258 -1.8613 -1.4516 -0.4974
  182SOPE  C31420867   5.741   6.157   8.257  0.3872 -0.3102  0.5634
  182SOPE  H14X20868   5.772   6.157   8.364  0.5707 -3.4458  0.6078
  182SOPE  H14Y20869   5.817   6.095   8.206 -0.0184 -1.5312  1.3788
  182SOPE  C31520870   5.611   6.073   8.269 -0.4834 -0.2266 -0.4152
  182SOPE  H15X20871   5.620   5.994   8.346  0.5556  2.4526  2.3966
  182SOPE  H15Y20872   5.594   6.029   8.168 -1.3972 -0.4770 -0.1606
  182SOPE  C31620873   5.495   6.151   8.317  0.3297  0.2449  1.2860
  182SOPE  H16X20874   5.409   6.080   8.309  0.8884 -0.3459  0.2436
  182SOPE  H16Y20875   5.473   6.235   8.247  0.9667 -0.2001  0.5372
  182SOPE  C31720876   5.518   6.196   8.452 -0.7935  0.3168 -0.4656
  182SOPE  H17X20877   5.613   6.253   8.451 -0.4091 -0.2786 -3.1469
  182SOPE  H17Y20878   5.534   6.103   8.510 -0.1080  0.0243 -1.1134
  182SOPE  C31820879   5.401   6.281   8.509 -0.0529 -0.8262 -0.3254
  182SOPE  H18X20880   5.310   6.219   8.498 -0.8548  0.4497 -1.1607
  182SOPE  H18Y20881   5.388   6.379   8.457  0.4830 -1.1307 -1.0402
  182SOPE  H18Z20882   5.427   6.296   8.616  1.5453 -1.0882 -0.6464
  183SOPE     N20883   2.194   2.650   6.344 -0.1058 -0.0999 -0.3520
  183SOPE   HN120884   2.215   2.593   6.429 -1.9948 -1.3510 -0.6815
  183SOPE   HN220885   2.101   2.617   6.312 -0.0634 -1.1490  0.5604
  183SOPE   HN320886   2.263   2.610   6.277 -0.1826 -0.4758 -0.2081
  183SOPE   C1220887   2.201   2.797   6.354  1.1471 -0.2054 -0.1320
  183SOPE  H12A20888   2.172   2.833   6.253 -1.6191  0.6276  0.8800
  183SOPE  H12B20889   2.302   2.836   6.380  0.6198  1.7949 -0.9073
  183SOPE   C1120890   2.094   2.862   6.450  0.0304  0.3528  0.1393
  183SOPE  H11A20891   2.114   2.971   6.448  0.9176  0.1851 -0.4799
  183SOPE  H11B20892   2.125   2.827   6.551  3.0302  0.2737 -0.7111
  183SOPE     P20893   1.868   2.895   6.317 -0.1471  0.0683 -0.0231
  183SOPE   O1320894   1.775   2.791   6.268 -0.5283 -0.3391  0.3537
  183SOPE   O1420895   1.958   2.957   6.224  0.2112 -0.0096 -0.2742
  183SOPE   O1220896   1.955   2.832   6.424 -0.0635  0.3214  0.3160
  183SOPE   O1120897   1.782   3.006   6.397  0.1825  0.2717 -0.2335
  183SOPE    C120898   1.725   2.966   6.522 -0.3512  0.2780  0.5048
  183SOPE    HA20899   1.743   2.862   6.557 -2.9992  0.1176  1.6412
  183SOPE    HB20900   1.614   2.969   6.508 -0.4955 -2.2372  0.7651
  183SOPE    C220901   1.772   3.065   6.630 -0.4171 -0.1619 -0.0609
  183SOPE    HS20902   1.764   3.168   6.588  0.6252 -0.3437 -0.7339
  183SOPE   O2120903   1.906   3.039   6.672  0.2823 -0.8156  0.3932
  183SOPE   C2120904   1.974   3.142   6.710 -0.2915  0.5162  0.9579
  183SOPE   O2220905   1.939   3.259   6.707 -0.2759 -0.4545  0.2564
  183SOPE   C2220906   2.106   3.084   6.769 -0.2474 -0.1180  0.5850
  183SOPE   H2R20907   2.194   3.110   6.707  0.8829 -0.8401  1.8394
  183SOPE   H2S20908   2.119   2.974   6.759  0.2729  0.1016 -1.5475
  183SOPE    C320909   1.687   3.064   6.765 -0.6017 -0.0024  0.2987
  183SOPE    HX20910   1.726   3.142   6.834 -0.5756  0.3204 -0.0783
  183SOPE    HY20911   1.717   2.966   6.807 -0.7820 -0.9432 -1.6393
  183SOPE   O3120912   1.548   3.077   6.744 -0.1118 -0.0664 -0.0082
  183SOPE   C3120913   1.498   3.194   6.722 -0.7585  0.1771 -0.1289
  183SOPE   O3220914   1.555   3.304   6.723 -0.2758  0.4568 -0.0517
  183SOPE   C3220915   1.346   3.177   6.715  0.3671  0.1074  0.4990
  183SOPE   H2X20916   1.329   3.132   6.615 -0.3101  1.1092  0.1467
  183SOPE   H2Y20917   1.305   3.280   6.718 -0.2629 -0.1598  1.8174
  183SOPE   C2320918   2.127   3.122   6.914  0.6901 -0.1146 -1.2146
  183SOPE   H3R20919   2.140   3.231   6.928  2.0279  0.0374 -3.2995
  183SOPE   H3S20920   2.220   3.081   6.959 -1.6461 -1.3273  3.0631
  183SOPE   C2420921   2.028   3.047   7.008 -0.4551  0.8060 -0.4682
  183SOPE   H4R20922   1.924   3.076   6.982 -1.2275 -0.7888  0.6661
  183SOPE   H4S20923   2.043   2.937   7.000 -2.0466  0.5453 -0.3013
  183SOPE   C2520924   2.029   3.094   7.162 -0.1226 -0.7022  0.3988
  183SOPE   H5R20925   2.029   3.205   7.165 -2.0027 -0.4439 -3.6095
  183SOPE   H5S20926   1.934   3.058   7.207 -0.1065  0.2372  1.2358
  183SOPE   C2620927   2.146   3.045   7.237  0.2131  0.1150  0.2926
  183SOPE   H6R20928   2.141   2.934   7.247  0.8119 -0.0105 -0.6916
  183SOPE   H6S20929   2.246   3.062   7.192 -0.3096 -1.1589 -1.4316
  183SOPE   C2720930   2.155   3.106   7.382  0.4613  0.0652  0.1676
  183SOPE   H7R20931   2.156   3.216   7.371  0.2835  0.0439 -0.0570
  183SOPE   H7S20932   2.066   3.087   7.445  0.1679 -1.9735 -0.7904
  183SOPE   C2820933   2.289   3.085   7.457  0.2011  0.1246 -0.2471
  183SOPE   H8R20934   2.376   3.110   7.393  0.1376 -2.5862 -1.5245
  183SOPE   H8S20935   2.295   3.161   7.538 -0.2660 -0.8778  0.7553
  183SOPE   C2920936   2.298   2.940   7.500 -0.0177 -0.6190 -0.3530
  183SOPE   H9120937   2.358   2.867   7.443  1.3928 -0.4951  0.9300
  183SOPE  C21020938   2.226   2.892   7.611 -0.4359  0.5045  0.1225
  183SOPE  H10120939   2.228   2.785   7.636  2.6048  1.2872  4.4193
  183SOPE  C21120940   2.136   2.971   7.696 -0.9116 -0.2378  0.1828
  183SOPE  H11R20941   2.035   2.927   7.711 -1.9759  0.8595 -2.9715
  183SOPE  H11S20942   2.131   3.077   7.662  3.7823 -0.5002 -2.0529
  183SOPE  C21220943   2.196   2.989   7.836 -0.6089  0.1189  0.1684
  183SOPE  H12R20944   2.291   3.046   7.845 -1.1105  0.6590  3.0789
  183SOPE  H12S20945   2.203   2.892   7.890 -1.5264  0.7010  1.3721
  183SOPE  C21320946   2.091   3.066   7.929  0.0224  0.6447  0.0086
  183SOPE  H13R20947   1.997   3.011   7.950  0.2522  0.8440  1.6897
  183SOPE  H13S20948   2.067   3.169   7.897 -0.0003  0.7781  0.4481
  183SOPE  C21420949   2.150   3.084   8.068 -0.3847  0.2039 -0.1276
  183SOPE  H14R20950   2.252   3.123   8.049 -0.5546  1.8941  1.9989
  183SOPE  H14S20951   2.167   2.984   8.113 -2.8187 -0.6884 -1.0126
  183SOPE  C21520952   2.090   3.191   8.159 -0.1315  0.1407 -0.6285
  183SOPE  H15R20953   1.979   3.186   8.155 -0.1464 -0.7631  0.4329
  183SOPE  H15S20954   2.108   3.298   8.134  0.9842  0.1688  0.2011
  183SOPE  C21620955   2.135   3.153   8.307  0.0568 -0.7348 -0.2996
  183SOPE  H16R20956   2.241   3.178   8.327  1.4418 -2.6708 -4.1548
  183SOPE  H16S20957   2.128   3.044   8.326 -1.2439 -0.4193  1.3330
  183SOPE  C21720958   2.042   3.224   8.408 -0.1106 -0.2573 -0.0510
  183SOPE  H17R20959   2.080   3.201   8.510 -2.2967 -3.6130  0.1811
  183SOPE  H17S20960   1.943   3.173   8.410 -0.2172 -0.0164  0.8316
  183SOPE  C21820961   2.031   3.369   8.385 -0.3691 -0.0692 -0.1761
  183SOPE  H18R20962   1.991   3.385   8.282  0.6907 -1.9589 -0.9402
  183SOPE  H18S20963   2.131   3.414   8.400 -0.0070 -1.2623  1.2442
  183SOPE  H18T20964   1.962   3.415   8.459  0.1780  3.2771 -1.5622
  183SOPE   C3320965   1.281   3.105   6.836  0.3230  0.0982 -0.0309
  183SOPE   H3X20966   1.330   3.005   6.827  1.9365  0.9585 -1.2559
  183SOPE   H3Y20967   1.172   3.099   6.816  0.2381  0.8462  0.1683
  183SOPE   C3420968   1.306   3.171   6.966 -0.8866  0.0949  0.3534
  183SOPE   H4X20969   1.265   3.274   6.975 -1.8474 -0.2364 -0.0253
  183SOPE   H4Y20970   1.416   3.178   6.969 -0.8351 -0.4260 -0.1735
  183SOPE   C3520971   1.248   3.095   7.082 -0.2459 -0.1116  0.2581
  183SOPE   H5X20972   1.293   2.993   7.089  4.2029  1.6949  1.3921
  183SOPE   H5Y20973   1.140   3.085   7.059  0.1478  0.9502 -2.3663
  183SOPE   C3620974   1.268   3.176   7.214  0.7452 -0.4858 -0.4277
  183SOPE   H6X20975   1.215   3.273   7.198  0.3755 -0.6081  0.0400
  183SOPE   H6Y20976   1.373   3.205   7.232  0.1959  2.5373 -1.4849
  183SOPE   C3720977   1.204   3.102   7.331 -0.1726 -0.9762 -0.1579
  183SOPE   H7X20978   1.248   3.000   7.344  0.7296 -1.1340 -3.4636
  183SOPE   H7Y20979   1.096   3.094   7.309 -0.1875  2.4395 -2.0023
  183SOPE   C3820980   1.226   3.181   7.459  0.7367  0.3765  0.7733
  183SOPE   H8X20981   1.181   3.283   7.461 -0.3425 -0.1023  1.5952
  183SOPE   H8Y20982   1.336   3.185   7.474  0.7318 -0.3805  1.0397
  183SOPE   C3920983   1.147   3.106   7.570  0.0244 -0.2652 -0.5454
  183SOPE   H9X20984   1.181   3.003   7.590 -1.1379 -0.4220  0.8252
  183SOPE   H9Y20985   1.043   3.119   7.533  0.6997  3.5180 -1.5900
  183SOPE  C31020986   1.151   3.168   7.712 -0.1730 -0.3125  0.4123
  183SOPE  H10X20987   1.112   3.271   7.706 -0.2129 -0.1987  2.3179
  183SOPE  H10Y20988   1.249   3.172   7.763 -1.8579 -2.5057  4.2331
  183SOPE  C31120989   1.046   3.092   7.805  0.0433 -0.7810  0.4222
  183SOPE  H11X20990   1.087   2.993   7.832  0.7209 -0.7418 -0.4354
  183SOPE  H11Y20991   0.961   3.075   7.736  1.8860 -0.9812 -1.9580
  183SOPE  C31220992   1.012   3.173   7.925  0.5704  0.3052  0.0579
  183SOPE  H12X20993   0.940   3.111   7.983  1.3834 -1.0259 -0.3110
  183SOPE  H12Y20994   0.957   3.266   7.898 -1.5623  0.0310  2.9661
  183SOPE  C31320995   1.122   3.214   8.017 -0.4228  0.6848  0.0530
  183SOPE  H13X20996   1.197   3.268   7.955 -0.3644  1.0177  0.4101
  183SOPE  H13Y20997   1.169   3.118   8.047  2.6860  1.7658 -1.0303
  183SOPE  C31420998   1.074   3.306   8.129  0.3815 -0.6687  0.1787
  183SOPE  H14X20999   0.982   3.262   8.173 -2.4106  3.0250 -1.4575
  183SOPE  H14Y21000   1.060   3.410   8.092 -3.3602 -0.7066  1.1142
  183SOPE  C31521001   1.189   3.328   8.228  0.4334  0.2678  0.1344
  183SOPE  H15X21002   1.266   3.381   8.168 -0.7721 -0.5928 -2.3006
  183SOPE  H15Y21003   1.235   3.234   8.266  1.2653  0.3106 -0.7394
  183SOPE  C31621004   1.142   3.434   8.329  0.1531  0.5181 -0.0324
  183SOPE  H16X21005   1.070   3.512   8.296 -2.3973  0.2593  4.1612
  183SOPE  H16Y21006   1.216   3.496   8.383 -1.8764  1.6874  1.5748
  183SOPE  C31721007   1.069   3.367   8.448  0.2072  0.1135  0.0025
  183SOPE  H17X21008   1.149   3.307   8.496  0.5564  1.4106  1.1063
  183SOPE  H17Y21009   0.992   3.296   8.411  1.7576 -0.4255 -2.4656
  183SOPE  C31821010   1.001   3.451   8.562 -0.6403  0.5645 -0.1231
  183SOPE  H18X21011   1.078   3.497   8.627  2.1476 -1.2786 -1.8777
  183SOPE  H18Y21012   0.947   3.377   8.625 -1.8629  1.4670 -0.0926
  183SOPE  H18Z21013   0.938   3.528   8.514  0.3680  0.2377 -2.1131
  184SOPE     N21014   1.378   2.827   6.290  0.3240 -0.2638 -0.1279
  184SOPE   HN121015   1.456   2.787   6.346  0.8909  0.9257 -0.0350
  184SOPE   HN221016   1.309   2.846   6.367  1.0871  0.5148  0.3787
  184SOPE   HN321017   1.335   2.771   6.214  1.4212  0.3350 -1.2126
  184SOPE   C1221018   1.441   2.948   6.218 -0.2230  0.0538 -0.1879
  184SOPE  H12A21019   1.530   2.922   6.158 -1.5274  0.8528 -2.6163
  184SOPE  H12B21020   1.481   3.007   6.303 -2.0121  1.5403 -0.2990
  184SOPE   C1121021   1.333   3.020   6.135 -0.6761  0.4122  0.0391
  184SOPE  H11A21022   1.309   2.944   6.059  0.2605  1.0549 -0.9293
  184SOPE  H11B21023   1.390   3.103   6.088  0.5554 -0.4014  0.0450
  184SOPE     P21024   1.075   3.020   6.189  0.2732  0.1887  0.5062
  184SOPE   O1321025   1.053   2.881   6.221  0.1562  0.2657  0.4508
  184SOPE   O1421026   1.039   3.056   6.049 -0.1956 -0.3558  0.0236
  184SOPE   O1221027   1.226   3.062   6.218 -0.5311 -0.0424 -0.1343
  184SOPE   O1121028   0.993   3.108   6.295 -1.0260  0.2601 -0.4723
  184SOPE    C121029   1.026   3.239   6.334  0.0721 -0.0907 -0.4189
  184SOPE    HA21030   0.949   3.313   6.304  0.0622  1.0358  2.1863
  184SOPE    HB21031   1.120   3.277   6.287  0.0725 -0.6464 -0.8903
  184SOPE    C221032   1.047   3.251   6.488  0.5515 -0.6070  0.2407
  184SOPE    HS21033   1.138   3.192   6.516  0.9385 -0.4071 -0.5712
  184SOPE   O2121034   0.924   3.214   6.553  0.5271 -0.1954  0.0757
  184SOPE   C2121035   0.932   3.090   6.604 -0.1935 -0.3147 -0.9279
  184SOPE   O2221036   1.030   3.021   6.605  0.0763 -0.0718  0.4264
  184SOPE   C2221037   0.792   3.046   6.636  0.1893  0.0845  0.7562
  184SOPE   H2R21038   0.756   2.983   6.552 -0.2570 -0.6448  1.4737
  184SOPE   H2S21039   0.728   3.134   6.658  0.6961  1.6930 -3.3829
  184SOPE    C321040   1.073   3.398   6.532  0.4389 -0.3638  0.4523
  184SOPE    HX21041   1.003   3.472   6.488  0.5004 -0.1962  0.6301
  184SOPE    HY21042   1.167   3.436   6.486 -1.1837  0.9950 -1.9636
  184SOPE   O3121043   1.080   3.412   6.676 -0.4546  0.1498 -0.0681
  184SOPE   C3121044   0.966   3.436   6.728  0.0758 -0.7213 -0.1838
  184SOPE   O3221045   0.868   3.482   6.670 -0.4518  0.2081 -0.1233
  184SOPE   C3221046   0.967   3.410   6.880  0.4304 -0.6761 -0.7532
  184SOPE   H2X21047   1.044   3.481   6.916 -2.3402  1.9937  0.4526
  184SOPE   H2Y21048   1.001   3.307   6.901 -2.2798 -1.3493  0.9542
  184SOPE   C2321049   0.793   2.947   6.763 -0.2220 -0.9595 -0.2226
  184SOPE   H3R21050   0.883   2.882   6.756 -0.0305 -0.6612 -0.5439
  184SOPE   H3S21051   0.707   2.877   6.753 -1.3856  0.3880  0.1032
  184SOPE   C2421052   0.790   3.016   6.901 -0.6980 -0.2890  0.6190
  184SOPE   H4R21053   0.880   3.080   6.915  0.4053 -0.3320 -4.4066
  184SOPE   H4S21054   0.696   3.074   6.909  0.1231  1.6824 -2.3488
  184SOPE   C2521055   0.797   2.921   7.020  0.0952 -0.9807  0.3997
  184SOPE   H5R21056   0.700   2.867   7.027  0.4131 -1.7331 -0.7884
  184SOPE   H5S21057   0.879   2.847   7.005 -0.1054 -1.0735 -0.2521
  184SOPE   C2621058   0.815   2.999   7.151 -0.0022 -0.5415  0.1349
  184SOPE   H6R21059   0.913   3.048   7.173  0.1323 -1.3758  1.5368
  184SOPE   H6S21060   0.731   3.071   7.159 -0.3394 -0.9803  0.5315
  184SOPE   C2721061   0.801   2.900   7.267 -0.4456 -0.1907  0.1829
  184SOPE   H7R21062   0.716   2.831   7.248 -0.9523  0.6001 -0.4845
  184SOPE   H7S21063   0.890   2.835   7.260  0.7315  1.5279 -1.9517
  184SOPE   C2821064   0.774   2.977   7.398 -1.3516  0.0215  0.6797
  184SOPE   H8R21065   0.831   3.072   7.394  2.4741 -2.0563  0.2292
  184SOPE   H8S21066   0.666   2.988   7.418 -1.1324  1.5755  1.1527
  184SOPE   C2921067   0.835   2.894   7.512  0.3754  0.2348  0.2199
  184SOPE   H9121068   0.943   2.878   7.496 -0.2158 -2.6863 -1.6339
  184SOPE  C21021069   0.779   2.839   7.624  0.4052 -0.2314 -0.0778
  184SOPE  H10121070   0.840   2.773   7.688  0.1496  0.5484  0.9931
  184SOPE  C21121071   0.638   2.853   7.667  0.2443 -0.3289 -0.6182
  184SOPE  H11R21072   0.607   2.754   7.706 -0.7121  0.3367  0.3819
  184SOPE  H11S21073   0.571   2.879   7.581  0.6294 -0.8406 -1.0806
  184SOPE  C21221074   0.618   2.952   7.785  0.1999  0.3288 -0.5420
  184SOPE  H12R21075   0.509   2.975   7.782 -0.2561 -1.6995 -1.4047
  184SOPE  H12S21076   0.683   3.041   7.775  2.2455 -1.0605 -0.1634
  184SOPE  C21321077   0.675   2.880   7.915  0.3991 -0.1636  0.6613
  184SOPE  H13R21078   0.783   2.857   7.899  1.0771  2.6909  0.6063
  184SOPE  H13S21079   0.605   2.797   7.939  1.2423 -0.9671  0.4285
  184SOPE  C21421080   0.666   2.975   8.038 -0.7791  0.7921 -0.3131
  184SOPE  H14R21081   0.563   2.991   8.075  0.4778  0.6759  3.7531
  184SOPE  H14S21082   0.695   3.077   8.002  0.5428  0.6283  0.2456
  184SOPE  C21521083   0.743   2.929   8.168 -0.2508  0.4713  0.1001
  184SOPE  H15R21084   0.845   2.913   8.127 -0.0871  0.4928  0.5009
  184SOPE  H15S21085   0.709   2.834   8.213  0.1442  0.7410  0.9997
  184SOPE  C21621086   0.746   3.029   8.279  0.5643 -0.5674  1.0615
  184SOPE  H16R21087   0.645   3.044   8.323  1.5612  0.6322  3.1026
  184SOPE  H16S21088   0.771   3.132   8.245  3.9654 -1.7271 -0.3863
  184SOPE  C21721089   0.841   2.990   8.388 -0.1545  0.2186 -0.1217
  184SOPE  H17R21090   0.831   2.885   8.422 -0.3495  0.0025 -0.8264
  184SOPE  H17S21091   0.824   3.056   8.476  1.5829 -0.1794  0.5551
  184SOPE  C21821092   0.987   2.986   8.350  0.1702 -0.3569  0.7809
  184SOPE  H18R21093   1.020   2.899   8.289  1.0086 -0.7818  1.8218
  184SOPE  H18S21094   1.052   2.984   8.440 -0.5327 -1.8198  1.2899
  184SOPE  H18T21095   1.003   3.070   8.278  1.1454 -0.8905  0.3643
  184SOPE   C3321096   0.835   3.424   6.963 -0.1368 -0.4963 -0.3766
  184SOPE   H3X21097   0.761   3.350   6.925 -1.3342 -1.0001  2.6506
  184SOPE   H3Y21098   0.790   3.525   6.962  0.6678 -0.1345 -0.6537
  184SOPE   C3421099   0.857   3.392   7.110  0.2033 -0.2733  0.1328
  184SOPE   H4X21100   0.926   3.306   7.129  1.2097  0.9434  2.3694
  184SOPE   H4Y21101   0.754   3.381   7.149 -0.3556  1.1841 -0.8429
  184SOPE   C3521102   0.929   3.510   7.193  0.2332 -0.0192  0.1421
  184SOPE   H5X21103   0.893   3.614   7.174  3.2105  1.0915  0.0467
  184SOPE   H5Y21104   1.035   3.508   7.160  0.2243 -0.3012  0.1288
  184SOPE   C3621105   0.928   3.469   7.336 -0.1314  0.3661 -1.1413
  184SOPE   H6X21106   0.970   3.373   7.371 -1.1766  0.8337  1.7013
  184SOPE   H6Y21107   0.822   3.460   7.369  0.1747 -0.4121 -0.3398
  184SOPE   C3721108   0.974   3.586   7.424 -0.1022  0.1925 -0.1263
  184SOPE   H7X21109   0.903   3.671   7.415 -1.5876 -0.6663  2.4191
  184SOPE   H7Y21110   1.075   3.622   7.394  0.1979 -0.0262  0.6083
  184SOPE   C3821111   0.966   3.554   7.574  0.9079 -0.1900  0.0737
  184SOPE   H8X21112   1.030   3.465   7.595  0.8497 -0.8421 -2.1531
  184SOPE   H8Y21113   0.863   3.520   7.596  0.7106  0.1866 -0.2517
  184SOPE   C3921114   1.010   3.676   7.662 -0.1480 -0.2024  0.2819
  184SOPE   H9X21115   0.966   3.772   7.628  2.7067  0.7904 -0.9619
  184SOPE   H9Y21116   1.118   3.700   7.646 -0.7370  0.9124 -2.6466
  184SOPE  C31021117   0.975   3.645   7.806  0.1442 -0.6182  0.0866
  184SOPE  H10X21118   1.025   3.552   7.840  1.1892 -0.0427  0.1788
  184SOPE  H10Y21119   0.866   3.628   7.821  0.1407  0.9832  2.3702
  184SOPE  C31121120   1.027   3.757   7.905  0.2101  0.0496 -0.1424
  184SOPE  H11X21121   0.982   3.854   7.873 -5.4168 -2.4076 -0.9104
  184SOPE  H11Y21122   1.137   3.757   7.889  0.0620  0.4500 -1.3075
  184SOPE  C31221123   1.014   3.732   8.056 -0.9297  0.0559 -0.4295
  184SOPE  H12X21124   1.069   3.636   8.067  0.3012  0.5774 -1.7131
  184SOPE  H12Y21125   0.905   3.714   8.067 -0.5517 -0.7291  5.2072
  184SOPE  C31321126   1.069   3.843   8.146 -0.3255  0.6653  0.4970
  184SOPE  H13X21127   1.026   3.934   8.100  0.6607  0.8147 -0.1516
  184SOPE  H13Y21128   1.177   3.860   8.166 -0.0108 -1.7308  1.2428
  184SOPE  C31421129   1.020   3.819   8.293 -0.2135  0.3187  0.2414
  184SOPE  H14X21130   1.053   3.720   8.330  0.9045  0.5806  0.0067
  184SOPE  H14Y21131   0.909   3.817   8.294 -0.2242  0.8402  0.8770
  184SOPE  C31521132   1.081   3.919   8.388  0.4541 -0.0107  0.0151
  184SOPE  H15X21133   1.013   3.945   8.472 -1.6897 -1.1570 -1.2680
  184SOPE  H15Y21134   1.103   4.009   8.328  3.4889  0.2878  1.3935
  184SOPE  C31621135   1.213   3.875   8.443 -0.3340 -0.0592 -0.4514
  184SOPE  H16X21136   1.270   3.970   8.444 -0.0385 -0.2098 -1.8434
  184SOPE  H16Y21137   1.268   3.814   8.368 -1.1091 -1.0120 -0.2680
  184SOPE  C31721138   1.216   3.814   8.580 -0.3970 -0.1920 -0.3134
  184SOPE  H17X21139   1.167   3.715   8.572 -0.7666  0.0012 -0.4452
  184SOPE  H17Y21140   1.152   3.875   8.646  1.1662  0.2931  0.8056
  184SOPE  C31821141   1.349   3.797   8.661 -0.4071  0.6308  0.0200
  184SOPE  H18X21142   1.429   3.742   8.608 -2.6891 -0.7794 -2.1787
  184SOPE  H18Y21143   1.318   3.740   8.751 -2.0019  1.0328 -0.2437
  184SOPE  H18Z21144   1.394   3.894   8.691  3.4261 -0.8012 -0.5562
  185SAPI   C1221145   3.262   0.316  11.208  0.0058 -0.2405 -0.2249
  185SAPI    H221146   3.151   0.310  11.200  0.0722 -1.0429 -0.6280
  185SAPI    O221147   3.294   0.387  11.330 -0.2390  0.1999  0.0792
  185SAPI   HO221148   3.229   0.370  11.399  0.2140 -1.8517  0.0867
  185SAPI   C1321149   3.310   0.174  11.200 -0.5505 -0.0113  0.0530
  185SAPI    H321150   3.272   0.134  11.103  0.5980 -0.7850 -0.1056
  185SAPI    O321151   3.258   0.094  11.302  1.1093 -0.4110  0.4086
  185SAPI   HO321152   3.280   0.136  11.385 -0.6839  0.2543  0.5822
  185SAPI   C1421153   3.469   0.169  11.196  0.3980 -0.3330  0.6313
  185SAPI    H421154   3.495   0.195  11.301 -0.8721  1.3927  0.5635
  185SAPI    O421155   3.505   0.029  11.169  0.3215 -0.7838 -0.6212
  185SAPI   HO421156   3.491  -0.029  11.244 -0.7135 -0.1268 -0.2918
  185SAPI   C1521157   3.526   0.263  11.088 -0.1447  0.1277 -0.3467
  185SAPI    H521158   3.507   0.213  10.991  0.5252  0.8913 -0.8854
  185SAPI    O521159   3.668   0.263  11.098  0.5728 -0.1837  0.1038
  185SAPI   HO521160   3.703   0.246  11.011  1.3268 -1.2200  0.5904
  185SAPI   C1621161   3.464   0.405  11.093  0.2047  0.4336  0.2645
  185SAPI    H621162   3.492   0.456  11.187 -0.6748  1.0018  0.2294
  185SAPI    O621163   3.515   0.472  10.981 -0.6484  0.1308  0.0289
  185SAPI   HO621164   3.454   0.495  10.911  0.7699 -1.1635 -1.7353
  185SAPI   C1121165   3.311   0.392  11.088 -1.1270 -0.5848 -0.0456
  185SAPI    H121166   3.292   0.335  10.995  0.3364  2.0259 -2.1004
  185SAPI     P21167   3.111   0.556  11.026  0.4028 -0.2265  0.0667
  185SAPI   O1321168   3.081   0.702  11.027 -0.0758 -0.1336  0.1655
  185SAPI   O1421169   3.008   0.470  11.091  0.0445 -0.5160 -0.4394
  185SAPI   O1221170   3.263   0.530  11.084 -0.0664  0.1660  0.2104
  185SAPI   O1121171   3.121   0.511  10.878  0.8625  0.4663 -0.5497
  185SAPI    C121172   3.011   0.453  10.799 -0.7930  0.6521 -1.0889
  185SAPI    HA21173   2.990   0.352  10.840 -1.9077  0.3474 -2.3300
  185SAPI    HB21174   2.915   0.508  10.811 -1.3675 -0.6664  0.8393
  185SAPI    C221175   3.050   0.430  10.656 -0.6389 -0.0493 -0.5572
  185SAPI    HS21176   3.157   0.401  10.650 -0.6706 -0.7918  1.4308
  185SAPI   O2121177   3.023   0.546  10.575 -0.3666  0.6243 -0.1522
  185SAPI   C2121178   3.104   0.560  10.474  0.3502 -0.7185  0.2066
  185SAPI   O2221179   3.201   0.489  10.447 -0.3414  0.0626 -0.2294
  185SAPI   C2221180   3.070   0.684  10.389 -0.1107  0.0690  0.2302
  185SAPI   H2R21181   2.971   0.725  10.417  0.3272  0.9191  0.5809
  185SAPI   H2S21182   3.147   0.761  10.412  0.9115 -0.7338 -0.3775
  185SAPI    C321183   2.956   0.322  10.591 -0.1997 -0.0118  0.9434
  185SAPI    HX21184   2.854   0.362  10.612  0.7137  3.0842  0.0801
  185SAPI    HY21185   2.976   0.230  10.649  0.6936 -1.8072 -2.0153
  185SAPI   O3121186   2.968   0.303  10.451 -0.1281  0.0715  0.1044
  185SAPI   C3121187   3.047   0.200  10.414  0.0166 -0.5442  0.6360
  185SAPI   O3221188   3.131   0.145  10.478 -0.6210  0.1289  0.1189
  185SAPI   C3221189   3.016   0.152  10.273 -0.1317  0.4427 -0.2538
  185SAPI   H2X21190   2.973   0.239  10.217  0.1390  1.4564  1.0646
  185SAPI   H2Y21191   2.944   0.067  10.279 -0.1414  0.2740 -2.1026
  185SAPI   C2321192   3.071   0.648  10.233 -0.0946 -0.4255 -0.0078
  185SAPI   H3R21193   3.163   0.593  10.205  0.6355 -0.1275  1.6661
  185SAPI   H3S21194   3.059   0.745  10.180 -2.7277 -0.7434 -0.1309
  185SAPI   C2421195   2.943   0.576  10.184  0.2762  0.2799  1.0853
  185SAPI   H4R21196   2.855   0.633  10.221 -1.4868  0.6860 -3.0717
  185SAPI   H4S21197   2.943   0.477  10.234  0.7327 -1.1308 -1.4919
  185SAPI   C2521198   2.941   0.563  10.034 -0.3754  0.5312  0.5302
  185SAPI   H5R21199   2.864   0.620   9.979  3.1257  4.3336 -0.9136
  185SAPI   C2621200   3.016   0.486   9.952  0.2122 -0.2341  0.0363
  185SAPI   H6R21201   3.003   0.480   9.843  0.0719 -1.6605  0.1189
  185SAPI   C2721202   3.132   0.392   9.990  0.7096 -0.2240  0.0931
  185SAPI   H7R21203   3.134   0.290   9.947  0.8108 -0.8553  1.5437
  185SAPI   H7S21204   3.120   0.354  10.093 -0.1926 -3.4500 -1.0856
  185SAPI   C2821205   3.266   0.456   9.977 -0.3121  0.2411  0.0711
  185SAPI   H8R21206   3.303   0.502  10.070 -1.3948  0.0967  0.5808
  185SAPI   C2921207   3.338   0.447   9.863 -0.4443 -0.1216  0.4061
  185SAPI   H9R21208   3.440   0.489   9.858 -1.1309  1.5708  0.0530
  185SAPI  C21021209   3.295   0.385   9.734 -0.1185  0.4171  0.8545
  185SAPI  H10R21210   3.200   0.328   9.733  0.0028  0.2113  0.9147
  185SAPI  H10S21211   3.369   0.312   9.696  0.0107  0.7839  0.3972
  185SAPI  C21121212   3.266   0.496   9.634 -0.2040 -0.3660 -0.9166
  185SAPI  H11R21213   3.192   0.568   9.669  0.4800  1.8247 -3.6088
  185SAPI  C21221214   3.322   0.530   9.515 -0.7736 -0.2781 -0.6094
  185SAPI  H12R21215   3.280   0.619   9.465  0.2732 -0.5181 -1.9747
  185SAPI  C21321216   3.436   0.438   9.454  0.1637  0.0623  0.3537
  185SAPI  H13R21217   3.497   0.393   9.535  0.0149 -0.0942  0.3801
  185SAPI  H13S21218   3.505   0.501   9.394  0.5551 -2.0388 -1.5529
  185SAPI  C21421219   3.373   0.328   9.366 -0.7404 -0.4654 -1.0361
  185SAPI  H14R21220   3.303   0.266   9.424 -0.1489  0.2817  0.5649
  185SAPI  C21521221   3.401   0.287   9.242  0.2927 -0.1476 -0.1399
  185SAPI  H15R21222   3.333   0.219   9.189  0.3110 -0.7860  0.6475
  185SAPI  C21621223   3.500   0.355   9.158  0.4357 -0.5954  0.1236
  185SAPI  H16R21224   3.592   0.376   9.217  2.2316 -0.2493 -2.6232
  185SAPI  H16S21225   3.465   0.446   9.105  2.3868  1.5483  2.2920
  185SAPI  C21721226   3.527   0.265   9.032  0.3340  0.2010  0.4125
  185SAPI  H17R21227   3.432   0.223   8.992  0.0076  1.7163 -0.4918
  185SAPI  H17S21228   3.608   0.193   9.054 -0.7975 -1.1495  0.3442
  185SAPI  C21821229   3.584   0.343   8.915  1.0141 -0.9313 -0.0156
  185SAPI  H18R21230   3.677   0.396   8.944 -1.4496  3.6555  0.4411
  185SAPI  H18S21231   3.509   0.417   8.881  3.8590  1.6006 -1.2571
  185SAPI  C21921232   3.611   0.251   8.796  0.3017 -0.4005  0.3511
  185SAPI  H19R21233   3.507   0.218   8.773 -0.1213  2.6463 -2.8881
  185SAPI  H19S21234   3.669   0.168   8.841  2.1419  0.4038 -0.4535
  185SAPI  C22021235   3.680   0.323   8.677  0.0543 -0.1033  0.0505
  185SAPI  H20R21236   3.629   0.419   8.656  2.7551  1.9370  2.2207
  185SAPI  H20S21237   3.684   0.265   8.582 -0.8366  0.4405 -0.3316
  185SAPI  H20T21238   3.781   0.355   8.710  0.1646  0.1532 -0.5306
  185SAPI   C3321239   3.143   0.111  10.204 -0.3949 -0.1066  0.0707
  185SAPI   H3X21240   3.205   0.044  10.265 -0.3468  1.5680  1.9670
  185SAPI   H3Y21241   3.207   0.201  10.189 -1.0943  0.1671 -1.6291
  185SAPI   C3421242   3.105   0.035  10.073  0.3918 -0.0300 -0.7080
  185SAPI   H4X21243   3.037   0.098  10.013 -3.3993  0.0593  3.1702
  185SAPI   H4Y21244   3.044  -0.052  10.106  1.2276 -0.3990 -0.1028
  185SAPI   C3521245   3.222  -0.008   9.984 -0.1873 -0.5171  0.6646
  185SAPI   H5X21246   3.294  -0.063  10.050 -1.4213 -0.0194  2.5080
  185SAPI   H5Y21247   3.275   0.084   9.951  1.5407 -2.3045 -1.9619
  185SAPI   C3621248   3.187  -0.090   9.862  0.5807 -0.3102  0.3076
  185SAPI   H6X21249   3.133  -0.185   9.884 -0.4822 -0.2358 -1.7549
  185SAPI   H6Y21250   3.283  -0.111   9.810  0.4112  2.0364 -1.1055
  185SAPI   C3721251   3.098  -0.017   9.754 -0.1393 -0.1375  0.2452
  185SAPI   H7X21252   3.153   0.074   9.724  0.6603 -0.7516 -0.2087
  185SAPI   H7Y21253   2.993   0.005   9.784  0.3303  2.7958 -0.0362
  185SAPI   C3821254   3.087  -0.101   9.626 -0.4626 -0.7051  0.0759
  185SAPI   H8X21255   3.004  -0.048   9.576 -2.0234 -1.2495  1.9624
  185SAPI   H8Y21256   3.048  -0.200   9.659  0.7677 -0.1828  3.5782
  185SAPI   C3921257   3.222  -0.103   9.557  0.5779  1.1423 -0.6108
  185SAPI   H9X21258   3.278  -0.187   9.602 -0.8316 -0.0783 -1.0397
  185SAPI   H9Y21259   3.276  -0.007   9.571 -0.9786  2.0533 -0.5312
  185SAPI  C31021260   3.204  -0.124   9.405  0.4865  0.2042 -0.2191
  185SAPI  H10X21261   3.150  -0.036   9.364  1.6884 -0.4703 -3.6392
  185SAPI  H10Y21262   3.139  -0.212   9.391  3.0579 -1.7639 -0.5032
  185SAPI  C31121263   3.338  -0.123   9.337  0.2096  0.3014 -0.4116
  185SAPI  H11X21264   3.410  -0.181   9.398 -1.4904 -1.0303  0.4190
  185SAPI  H11Y21265   3.370  -0.017   9.339 -0.5990  0.5524  2.0046
  185SAPI  C31221266   3.334  -0.187   9.197  0.1742 -0.0080 -0.1970
  185SAPI  H12X21267   3.272  -0.280   9.194  1.2726 -0.7645 -0.1263
  185SAPI  H12Y21268   3.440  -0.208   9.172  0.1807  0.6778 -0.7568
  185SAPI  C31321269   3.282  -0.087   9.089  0.0388  0.5191 -0.3416
  185SAPI  H13X21270   3.346   0.003   9.083 -0.3869  1.1453  2.8159
  185SAPI  H13Y21271   3.172  -0.074   9.098 -0.0694 -0.5558  0.1203
  185SAPI  C31421272   3.297  -0.154   8.950  0.0940  0.3173 -0.3443
  185SAPI  H14X21273   3.252  -0.253   8.929  0.2020  0.7571 -2.9335
  185SAPI  H14Y21274   3.404  -0.182   8.941  0.3394  0.8900  0.5731
  185SAPI  C31521275   3.254  -0.069   8.831 -0.7150 -0.2831 -0.5817
  185SAPI  H15X21276   3.340  -0.000   8.819 -1.0764  0.9549  2.9741
  185SAPI  H15Y21277   3.165  -0.008   8.853 -0.4272  0.5019 -1.5222
  185SAPI  C31621278   3.241  -0.151   8.708  1.0461 -0.3058  1.2793
  185SAPI  H16X21279   3.180  -0.089   8.639  2.1946  0.4460  0.8990
  185SAPI  H16Y21280   3.181  -0.244   8.715 -1.7587  1.2964  0.1454
  185SAPI  C31721281   3.376  -0.180   8.637 -0.3126  0.4942 -0.6455
  185SAPI  H17X21282   3.423  -0.258   8.700  0.9713  0.1085 -2.0212
  185SAPI  H17Y21283   3.445  -0.095   8.619  0.5909  0.6238  2.7584
  185SAPI  C31821284   3.350  -0.250   8.505 -0.1708  0.1329 -0.0802
  185SAPI  H18X21285   3.320  -0.356   8.521  1.7078 -0.2916  0.8578
  185SAPI  H18Y21286   3.447  -0.250   8.451 -0.2023  0.6841 -0.1432
  185SAPI  H18Z21287   3.276  -0.194   8.444  1.9941  1.5155 -1.5819
  186SAPI   C1221288   4.316   6.044  10.627 -0.2490 -0.3310 -0.3482
  186SAPI    H221289   4.284   6.028  10.521  1.0127  0.9976 -0.9633
  186SAPI    O221290   4.297   5.918  10.693  0.0739  0.6503 -0.4034
  186SAPI   HO221291   4.205   5.916  10.718  0.2617 -1.2062  0.2796
  186SAPI   C1321292   4.470   6.082  10.619  0.4474 -0.0952  0.0363
  186SAPI    H321293   4.472   6.175  10.558 -1.8373 -1.2812 -2.0496
  186SAPI    O321294   4.542   5.974  10.553  0.2896 -0.0838 -0.1062
  186SAPI   HO321295   4.546   5.896  10.608  0.6535 -2.4969 -3.2214
  186SAPI   C1421296   4.520   6.109  10.761 -0.4009  0.1716 -0.9911
  186SAPI    H421297   4.501   6.010  10.809 -1.2380 -0.2266 -2.1129
  186SAPI    O421298   4.655   6.138  10.766  0.0152 -1.1648 -0.8294
  186SAPI   HO421299   4.669   6.227  10.735 -1.3497 -0.2324  1.0810
  186SAPI   C1521300   4.441   6.212  10.841  0.1870 -0.0243  0.4034
  186SAPI    H521301   4.450   6.307  10.783 -1.0278 -0.4976 -0.6207
  186SAPI    O521302   4.498   6.238  10.966 -0.0937 -1.0604 -1.4209
  186SAPI   HO521303   4.581   6.284  10.950  2.0354 -3.6502  1.0172
  186SAPI   C1621304   4.287   6.176  10.843 -0.1985 -0.1789  0.2956
  186SAPI    H621305   4.283   6.076  10.891  4.4615 -1.9175 -2.2696
  186SAPI    O621306   4.206   6.274  10.913  0.0058  0.2266  0.1872
  186SAPI   HO621307   4.163   6.331  10.849  4.0725  1.2477 -2.0399
  186SAPI   C1121308   4.249   6.159  10.692  0.1052  0.1469 -0.5135
  186SAPI    H121309   4.279   6.250  10.637  0.4135  0.1690 -0.3094
  186SAPI     P21310   4.012   6.251  10.630 -0.3149  0.0462 -0.0270
  186SAPI   O1321311   4.054   6.373  10.705 -0.0254  0.4990 -0.6202
  186SAPI   O1421312   3.877   6.207  10.646  1.2770 -0.4140 -0.1175
  186SAPI   O1221313   4.108   6.127  10.681  0.6166 -0.0789  0.0016
  186SAPI   O1121314   4.064   6.270  10.482 -0.7549 -0.1197  0.1570
  186SAPI    C121315   4.026   6.175  10.391 -0.0667  0.0253  0.8915
  186SAPI    HA21316   4.037   6.069  10.422 -0.7246 -0.9937 -2.0443
  186SAPI    HB21317   3.924   6.201  10.357 -0.0494  0.0968  0.8942
  186SAPI    C221318   4.123   6.168  10.262 -0.1338  0.1166  0.1749
  186SAPI    HS21319   4.226   6.173  10.303  0.3410  0.0132 -0.9632
  186SAPI   O2121320   4.085   6.274  10.170  0.1608 -0.0544 -0.4296
  186SAPI   C2121321   4.179   6.318  10.101  0.3625 -0.4648 -0.3563
  186SAPI   O2221322   4.291   6.269  10.085 -0.3657 -0.3376  0.1426
  186SAPI   C2221323   4.122   6.445  10.034 -0.0415  0.2946 -0.2014
  186SAPI   H2R21324   4.015   6.454  10.063 -0.4276 -2.3060 -0.5928
  186SAPI   H2S21325   4.174   6.534  10.075 -0.6932 -0.5827  2.7660
  186SAPI    C321326   4.094   6.029  10.193  0.2761 -0.0300  0.1970
  186SAPI    HX21327   3.986   6.016  10.171 -0.0888  1.2023  1.1419
  186SAPI    HY21328   4.120   5.949  10.266  1.5166 -3.1017 -3.3003
  186SAPI   O3121329   4.171   6.004  10.078  0.3131  0.0564  0.6474
  186SAPI   C3121330   4.292   5.980  10.090  0.3897 -0.2338 -0.7193
  186SAPI   O3221331   4.359   5.967  10.195  0.4591  0.0784 -0.1685
  186SAPI   C3221332   4.356   5.971   9.952 -0.0192 -0.3403 -1.3276
  186SAPI   H2X21333   4.375   6.075   9.917  1.0035 -0.0239  0.0670
  186SAPI   H2Y21334   4.282   5.925   9.884  0.0357 -1.6713 -0.5199
  186SAPI   C2321335   4.152   6.438   9.882  0.7850 -0.0935  0.4746
  186SAPI   H3R21336   4.246   6.381   9.862  0.1495 -1.3539  1.0127
  186SAPI   H3S21337   4.167   6.540   9.841 -0.0121  0.1928  0.8866
  186SAPI   C2421338   4.030   6.371   9.808  0.4575  0.1412 -0.0722
  186SAPI   H4R21339   4.038   6.417   9.707  1.6937 -2.3646 -1.1841
  186SAPI   H4S21340   3.925   6.388   9.842  0.1706 -1.2520 -0.2201
  186SAPI   C2521341   4.045   6.229   9.785  0.0310  0.1537 -0.3973
  186SAPI   H5R21342   4.021   6.170   9.875  2.9668 -4.0332 -2.0247
  186SAPI   C2621343   4.052   6.158   9.674  0.4991 -0.0753  0.1519
  186SAPI   H6R21344   4.070   6.050   9.677  1.3719  0.0453 -0.5287
  186SAPI   C2721345   4.046   6.215   9.534 -0.0566  1.0145 -0.5926
  186SAPI   H7R21346   4.050   6.325   9.542  4.7706  0.9547  1.9609
  186SAPI   H7S21347   3.957   6.175   9.482  1.3339 -0.7425 -1.7413
  186SAPI   C2821348   4.169   6.177   9.459  0.8551 -0.1632  0.2149
  186SAPI   H8R21349   4.249   6.128   9.516  0.8600 -0.5874 -0.1570
  186SAPI   C2921350   4.182   6.203   9.328  0.1389 -0.9438 -0.1023
  186SAPI   H9R21351   4.263   6.151   9.276 -0.6062 -2.1176 -0.1424
  186SAPI  C21021352   4.077   6.272   9.244 -0.1572  0.0081  0.4119
  186SAPI  H10R21353   4.070   6.381   9.265  0.3442 -0.2855  2.2715
  186SAPI  H10S21354   3.978   6.238   9.280 -0.0148 -0.5404  0.2946
  186SAPI  C21121355   4.096   6.222   9.100  0.4805  0.0824  0.1010
  186SAPI  H11R21356   4.043   6.128   9.080 -0.9770  0.6128  1.3061
  186SAPI  C21221357   4.161   6.287   9.000 -0.1663 -0.3062 -0.1661
  186SAPI  H12R21358   4.175   6.233   8.906 -2.3494 -0.2715 -0.5734
  186SAPI  C21321359   4.235   6.415   9.020  0.0462  0.3400  0.1750
  186SAPI  H13R21360   4.338   6.394   8.982 -1.0062  0.2924 -2.9433
  186SAPI  H13S21361   4.270   6.426   9.125 -0.2326 -0.4573  0.3559
  186SAPI  C21421362   4.184   6.550   8.974 -0.1605 -0.6822 -0.3666
  186SAPI  H14R21363   4.114   6.595   9.046  0.9227 -2.9282  2.2773
  186SAPI  C21521364   4.193   6.607   8.851  0.5329 -0.5824 -0.2477
  186SAPI  H15R21365   4.153   6.709   8.839 -1.0278 -1.2501 -1.0575
  186SAPI  C21621366   4.258   6.545   8.730  0.2154 -0.2497  0.9629
  186SAPI  H16R21367   4.188   6.554   8.644 -0.2593  0.3349  1.4121
  186SAPI  H16S21368   4.286   6.437   8.728  0.5467 -0.3028 -3.7327
  186SAPI  C21721369   4.378   6.631   8.678 -0.0468  0.0767  0.2426
  186SAPI  H17R21370   4.400   6.598   8.574 -1.1482 -3.5244  0.9889
  186SAPI  H17S21371   4.467   6.618   8.743  1.7246  1.1658 -1.8343
  186SAPI  C21821372   4.361   6.783   8.685  0.3947 -0.2537  0.4366
  186SAPI  H18R21373   4.337   6.814   8.789  0.1949 -0.3697  0.4264
  186SAPI  H18S21374   4.268   6.800   8.626  0.3734 -0.6467  0.3532
  186SAPI  C21921375   4.479   6.862   8.631 -0.2334  0.5549  0.0496
  186SAPI  H19R21376   4.489   6.851   8.521 -1.3266 -2.2089  0.1484
  186SAPI  H19S21377   4.572   6.819   8.673  0.7940 -1.8922 -4.1269
  186SAPI  C22021378   4.469   7.018   8.664  0.7545 -0.1884  0.2507
  186SAPI  H20R21379   4.452   7.037   8.772 -1.9692  1.2466 -0.3484
  186SAPI  H20S21380   4.384   7.065   8.610  0.1249  0.1828  1.5197
  186SAPI  H20T21381   4.556   7.077   8.627  1.2759 -1.3417 -0.4163
  186SAPI   C3321382   4.484   5.892   9.963  0.5603 -0.2271 -0.3674
  186SAPI   H3X21383   4.461   5.787   9.992 -1.1415  0.0223 -0.7017
  186SAPI   H3Y21384   4.540   5.925  10.053  0.2871 -2.9661  0.9040
  186SAPI   C3421385   4.577   5.901   9.836  0.5419  0.4728 -0.0106
  186SAPI   H4X21386   4.659   5.826   9.839  0.1508 -0.1935 -2.8170
  186SAPI   H4Y21387   4.614   6.006   9.836 -2.3072  1.5510 -0.7919
  186SAPI   C3521388   4.508   5.865   9.702  0.7873  0.2899 -0.2923
  186SAPI   H5X21389   4.419   5.931   9.693  1.6117  1.3771 -0.8517
  186SAPI   H5Y21390   4.472   5.761   9.695 -0.8358  0.8043 -0.0655
  186SAPI   C3621391   4.585   5.909   9.578 -0.5679  0.5958 -0.2965
  186SAPI   H6X21392   4.685   5.862   9.580 -0.9850 -0.3012  0.0848
  186SAPI   H6Y21393   4.605   6.018   9.575 -0.4543  0.6129  0.8957
  186SAPI   C3721394   4.524   5.873   9.441 -0.6559 -0.1401  0.2204
  186SAPI   H7X21395   4.414   5.887   9.446 -0.7724 -0.6316 -0.8318
  186SAPI   H7Y21396   4.537   5.765   9.421  2.2773  0.3900 -1.1904
  186SAPI   C3821397   4.568   5.967   9.328  0.0816  0.1392 -0.5467
  186SAPI   H8X21398   4.678   5.959   9.320  0.1227 -1.4912  1.1413
  186SAPI   H8Y21399   4.545   6.070   9.363 -2.8428 -0.0909 -1.4694
  186SAPI   C3921400   4.509   5.938   9.195  0.0138  0.4033 -0.1864
  186SAPI   H9X21401   4.410   5.890   9.200  0.4903 -0.4869  1.2798
  186SAPI   H9Y21402   4.569   5.850   9.164  1.2308  0.0163  2.9489
  186SAPI  C31021403   4.520   6.050   9.091  0.7713  0.0991 -0.2010
  186SAPI  H10X21404   4.625   6.086   9.097  0.8536 -0.3655  1.8151
  186SAPI  H10Y21405   4.451   6.131   9.123  0.2003 -1.1836  2.0062
  186SAPI  C31121406   4.481   6.014   8.950  0.2126  0.2092  1.6496
  186SAPI  H11X21407   4.375   5.982   8.945 -0.4380  2.1112  2.3750
  186SAPI  H11Y21408   4.542   5.930   8.910 -0.0125  1.2539 -1.0687
  186SAPI  C31221409   4.506   6.133   8.855 -0.2837 -0.1524  0.5953
  186SAPI  H12X21410   4.613   6.159   8.845 -0.6011  1.0126  0.0268
  186SAPI  H12Y21411   4.447   6.219   8.894 -1.7946  0.2679 -2.3194
  186SAPI  C31321412   4.457   6.097   8.713 -0.3839 -0.0017  0.1432
  186SAPI  H13X21413   4.346   6.102   8.720 -0.2609  1.7086  1.3520
  186SAPI  H13Y21414   4.485   5.999   8.667  0.3055 -1.0632  2.6446
  186SAPI  C31421415   4.509   6.206   8.614  1.2058 -0.0401  0.7696
  186SAPI  H14X21416   4.620   6.216   8.614  1.0125  3.5002  1.4585
  186SAPI  H14Y21417   4.474   6.299   8.664 -1.3168 -1.0547  1.0455
  186SAPI  C31521418   4.450   6.200   8.470  0.0050  0.0445 -0.0538
  186SAPI  H15X21419   4.341   6.181   8.472  0.2833 -2.0030 -1.0871
  186SAPI  H15Y21420   4.499   6.109   8.428  0.9757  0.0604  0.9918
  186SAPI  C31621421   4.481   6.326   8.387 -0.7334  0.2988  0.5468
  186SAPI  H16X21422   4.416   6.411   8.416  0.0756  1.2629 -0.3569
  186SAPI  H16Y21423   4.456   6.301   8.282 -1.8654  1.8515  0.4139
  186SAPI  C31721424   4.633   6.359   8.395 -0.3007  0.1076  0.0034
  186SAPI  H17X21425   4.691   6.265   8.399 -1.1446 -0.4207  0.1986
  186SAPI  H17Y21426   4.631   6.410   8.494 -0.3523 -1.4720  0.8509
  186SAPI  C31821427   4.686   6.462   8.289 -0.4512  0.0782 -0.6352
  186SAPI  H18X21428   4.670   6.565   8.326 -1.5508  0.6403 -2.5469
  186SAPI  H18Y21429   4.618   6.454   8.202 -1.6614 -0.2558  0.3037
  186SAPI  H18Z21430   4.793   6.447   8.263  0.2797 -1.7908  2.7327
  187SAPI   C1221431   1.007   0.278   6.357  0.0893  0.2526  0.6611
  187SAPI    H221432   1.047   0.338   6.272 -1.2650 -1.8753 -1.5961
  187SAPI    O221433   1.018   0.371   6.454  0.3444  0.4304 -0.2315
  187SAPI   HO221434   1.105   0.366   6.493  0.2372  3.6135  0.7297
  187SAPI   C1321435   0.864   0.228   6.321 -0.7585 -0.1003 -0.2643
  187SAPI    H321436   0.882   0.161   6.234 -0.2003  1.3472 -1.2902
  187SAPI    O321437   0.781   0.337   6.285  0.5941  0.0455 -0.7798
  187SAPI   HO321438   0.796   0.349   6.191 -1.8953 -0.6718 -1.3627
  187SAPI   C1421439   0.801   0.151   6.431  0.1352  0.3880  0.4136
  187SAPI    H421440   0.785   0.217   6.518  0.4725  1.4547 -0.3164
  187SAPI    O421441   0.673   0.104   6.394  0.8373  0.6883  0.1963
  187SAPI   HO421442   0.622   0.122   6.474  0.1474 -1.4547  0.3000
  187SAPI   C1521443   0.879   0.030   6.472 -0.1300  0.2988  0.8183
  187SAPI    H521444   0.890  -0.044   6.389 -0.3892  0.9212  0.2150
  187SAPI    O521445   0.821  -0.035   6.590 -0.1085 -0.5817  0.5614
  187SAPI   HO521446   0.748  -0.089   6.560  2.0629 -2.3745 -1.9600
  187SAPI   C1621447   1.026   0.072   6.498  0.3891 -0.6581  0.1957
  187SAPI    H621448   1.016   0.134   6.590 -0.5958 -2.2054  1.1797
  187SAPI    O621449   1.103  -0.037   6.535 -0.6401  0.0957  0.0837
  187SAPI   HO621450   1.140  -0.035   6.623 -1.1754  2.1879  0.3128
  187SAPI   C1121451   1.087   0.153   6.384  0.7087  0.8257 -0.0733
  187SAPI    H121452   1.083   0.091   6.293 -1.6021 -1.2653  1.3115
  187SAPI     P21453   1.329   0.245   6.320  0.3086 -0.3081 -0.0226
  187SAPI   O1321454   1.281   0.266   6.179 -0.3388 -0.5488 -0.0511
  187SAPI   O1421455   1.456   0.174   6.331 -0.0289 -0.2305  0.0444
  187SAPI   O1221456   1.221   0.185   6.418  0.4560  0.8792  0.3569
  187SAPI   O1121457   1.335   0.385   6.383 -0.4451  0.0042 -0.0021
  187SAPI    C121458   1.444   0.418   6.477  0.3753  0.5401 -0.1577
  187SAPI    HA21459   1.541   0.386   6.433  0.8394  2.0853 -0.3097
  187SAPI    HB21460   1.455   0.528   6.474  0.2364  0.5703  0.3416
  187SAPI    C221461   1.427   0.356   6.613 -0.1134  0.4750 -0.3007
  187SAPI    HS21462   1.430   0.246   6.596  1.6720  0.3006  0.8394
  187SAPI   O2121463   1.296   0.387   6.662 -0.2415 -0.5121  0.5374
  187SAPI   C2121464   1.252   0.306   6.750 -0.0484  0.9054  0.2354
  187SAPI   O2221465   1.301   0.202   6.784 -1.1772 -0.0434 -0.3776
  187SAPI   C2221466   1.122   0.358   6.803  0.5265  0.5478 -0.2533
  187SAPI   H2R21467   1.051   0.379   6.721 -0.4322 -1.0211  0.1508
  187SAPI   H2S21468   1.078   0.275   6.861  0.7795  2.1266  2.3762
  187SAPI    C321469   1.536   0.408   6.707 -0.6014 -0.5314  0.3920
  187SAPI    HX21470   1.522   0.516   6.732  0.9109 -0.4016  0.7806
  187SAPI    HY21471   1.629   0.403   6.645 -0.4355 -1.2192  0.6843
  187SAPI   O3121472   1.548   0.348   6.839 -0.3162 -0.5940  0.6742
  187SAPI   C3121473   1.664   0.294   6.855  0.0823 -0.4967 -0.7285
  187SAPI   O3221474   1.766   0.313   6.799  0.3296  0.1216  0.9903
  187SAPI   C3221475   1.659   0.201   6.983 -0.1187 -0.7274 -0.7914
  187SAPI   H2X21476   1.576   0.129   6.967  0.3874 -1.3944 -0.4350
  187SAPI   H2Y21477   1.636   0.269   7.069  1.5885  1.2283 -1.7901
  187SAPI   C2321478   1.154   0.476   6.899 -0.3964  0.6299 -0.1272
  187SAPI   H3R21479   1.196   0.562   6.842 -1.0953  0.9480 -0.1711
  187SAPI   H3S21480   1.217   0.438   6.982  0.0239  0.1155 -0.6696
  187SAPI   C2421481   1.025   0.525   6.964  0.9255 -0.3376 -0.0590
  187SAPI   H4R21482   0.956   0.569   6.888  0.1155  0.9567  1.3533
  187SAPI   H4S21483   1.047   0.611   7.031  0.6602 -0.4397  0.1607
  187SAPI   C2521484   0.941   0.420   7.032 -0.0691 -0.0480  0.5744
  187SAPI   H5R21485   0.858   0.378   6.973  0.3168  1.4422 -1.1045
  187SAPI   C2621486   0.961   0.381   7.162 -0.0717 -0.0695  0.5049
  187SAPI   H6R21487   0.896   0.299   7.199  1.0006 -1.8376 -1.3345
  187SAPI   C2721488   1.061   0.447   7.249 -0.0431  0.2376  1.1246
  187SAPI   H7R21489   1.021   0.548   7.273  0.4953  0.5804  0.6069
  187SAPI   H7S21490   1.159   0.461   7.197 -0.0402  0.1002  1.0923
  187SAPI   C2821491   1.073   0.372   7.380  0.3187  0.0413 -0.3071
  187SAPI   H8R21492   1.101   0.266   7.367 -1.7611 -0.3934 -1.6045
  187SAPI   C2921493   1.066   0.427   7.507 -0.4363  0.0581 -0.6609
  187SAPI   H9R21494   1.068   0.362   7.596 -1.4386  1.8882  0.7646
  187SAPI  C21021495   1.044   0.574   7.543 -0.4528  0.1025  0.0449
  187SAPI  H10R21496   0.966   0.576   7.623 -0.2687  0.3465  0.2219
  187SAPI  H10S21497   1.030   0.636   7.452  0.2596 -0.8662 -0.7406
  187SAPI  C21121498   1.171   0.623   7.607 -0.5245 -0.8165  0.0206
  187SAPI  H11R21499   1.228   0.694   7.546  1.6268  0.2909  3.0746
  187SAPI  C21221500   1.226   0.600   7.728  0.9057  0.4972 -0.1611
  187SAPI  H12R21501   1.328   0.639   7.740  1.0107  0.1135  0.2237
  187SAPI  C21321502   1.170   0.507   7.840 -1.0168 -0.2590  0.5689
  187SAPI  H13R21503   1.066   0.475   7.817 -0.8858  0.4609 -1.1663
  187SAPI  H13S21504   1.171   0.550   7.942  1.1747  0.4119  0.3121
  187SAPI  C21421505   1.246   0.380   7.848  0.8789  1.2377  0.2301
  187SAPI  H14R21506   1.301   0.354   7.757 -1.6140 -3.1620 -0.3288
  187SAPI  C21521507   1.262   0.300   7.958 -0.2376 -0.1964  0.7838
  187SAPI  H15R21508   1.340   0.223   7.949 -0.7650 -0.6127 -0.4573
  187SAPI  C21621509   1.200   0.328   8.095 -0.1590  0.0077 -0.0797
  187SAPI  H16R21510   1.151   0.235   8.131  0.9919 -1.7729 -2.7737
  187SAPI  H16S21511   1.125   0.409   8.103 -1.1036 -0.9175  0.7948
  187SAPI  C21721512   1.302   0.362   8.210  0.3324  0.0076  1.0329
  187SAPI  H17R21513   1.364   0.437   8.156 -0.2480  0.0770  0.4493
  187SAPI  H17S21514   1.380   0.286   8.231 -0.2728 -1.6689 -2.1643
  187SAPI  C21821515   1.234   0.420   8.336 -0.8081  0.4817 -0.0237
  187SAPI  H18R21516   1.159   0.348   8.376 -0.1606 -0.8860 -1.1785
  187SAPI  H18S21517   1.180   0.513   8.308 -3.0689 -0.9628 -0.7010
  187SAPI  C21921518   1.327   0.449   8.456  0.2488  0.1022  0.1041
  187SAPI  H19R21519   1.370   0.551   8.454 -1.2639  0.7762  0.1099
  187SAPI  H19S21520   1.406   0.372   8.453  0.8635  0.6620  1.3076
  187SAPI  C22021521   1.249   0.437   8.589  0.4455 -0.6790 -0.5101
  187SAPI  H20R21522   1.311   0.454   8.680 -1.3616  1.2746  0.4289
  187SAPI  H20S21523   1.192   0.342   8.598 -0.4612 -0.1272 -0.2024
  187SAPI  H20T21524   1.173   0.518   8.587  0.5791 -0.5211  0.3356
  187SAPI   C3321525   1.793   0.137   6.992 -0.9012  0.9557 -0.4420
  187SAPI   H3X21526   1.872   0.214   7.001 -0.3086  0.1947  1.4858
  187SAPI   H3Y21527   1.816   0.068   6.909 -0.0980  2.0713 -1.1668
  187SAPI   C3421528   1.812   0.056   7.127  0.1564 -1.1032  0.3243
  187SAPI   H4X21529   1.908   0.001   7.119  0.9944  0.4453 -0.8085
  187SAPI   H4Y21530   1.726  -0.007   7.158 -0.4131  0.1825  1.4335
  187SAPI   C3521531   1.832   0.144   7.251  0.4696  0.6535  0.4245
  187SAPI   H5X21532   1.737   0.201   7.252  0.1126  0.0571  1.2041
  187SAPI   H5Y21533   1.924   0.205   7.232  1.2623 -0.2962  1.1460
  187SAPI   C3621534   1.846   0.082   7.386 -0.5056 -0.7172 -0.9487
  187SAPI   H6X21535   1.944   0.032   7.400 -0.8709 -1.1659  0.0909
  187SAPI   H6Y21536   1.765   0.006   7.394 -1.4666  0.1963 -1.7037
  187SAPI   C3721537   1.832   0.188   7.503  0.9888 -0.2190  0.4353
  187SAPI   H7X21538   1.739   0.233   7.463  1.3904 -1.8911 -2.7503
  187SAPI   H7Y21539   1.915   0.261   7.493  0.6951  0.4840  2.6998
  187SAPI   C3821540   1.807   0.132   7.642 -0.4890  0.3006 -0.3325
  187SAPI   H8X21541   1.902   0.083   7.673 -1.3850 -1.0115  0.4131
  187SAPI   H8Y21542   1.740   0.043   7.639  1.1611 -0.9690 -1.5495
  187SAPI   C3921543   1.760   0.236   7.740  0.0982  0.6768 -0.4092
  187SAPI   H9X21544   1.655   0.255   7.710 -0.3353  0.2161  0.7811
  187SAPI   H9Y21545   1.827   0.322   7.723  1.8524  0.1102  2.8507
  187SAPI  C31021546   1.761   0.193   7.884  0.0953  0.2454 -0.4130
  187SAPI  H10X21547   1.869   0.181   7.906 -0.0091  0.2371  0.1062
  187SAPI  H10Y21548   1.720   0.090   7.896  0.4934  0.1636  0.2859
  187SAPI  C31121549   1.702   0.284   7.990 -0.7224 -0.1184 -0.2575
  187SAPI  H11X21550   1.601   0.320   7.960 -0.4522  0.1179 -0.9039
  187SAPI  H11Y21551   1.768   0.374   7.995 -0.4564 -0.3377  0.2532
  187SAPI  C31221552   1.711   0.228   8.136 -0.3200  0.2951 -0.5627
  187SAPI  H12X21553   1.809   0.178   8.155 -0.3090  1.2426  2.3171
  187SAPI  H12Y21554   1.629   0.154   8.137 -1.5020  1.5652 -0.3417
  187SAPI  C31321555   1.700   0.339   8.243 -0.3701  0.0725 -0.6639
  187SAPI  H13X21556   1.599   0.382   8.227 -0.3584  0.5916  0.5356
  187SAPI  H13Y21557   1.773   0.417   8.215 -0.5546  1.4722  2.3683
  187SAPI  C31421558   1.709   0.291   8.389  0.3128  0.1387  0.2582
  187SAPI  H14X21559   1.799   0.226   8.381 -0.7433 -1.2932 -0.4971
  187SAPI  H14Y21560   1.622   0.226   8.413  0.7198  0.2925  2.3584
  187SAPI  C31521561   1.709   0.412   8.484 -0.4840 -0.1460 -0.6734
  187SAPI  H15X21562   1.612   0.466   8.484 -1.0179 -0.9890  1.6489
  187SAPI  H15Y21563   1.780   0.488   8.446 -1.5448  1.4143  0.3550
  187SAPI  C31621564   1.740   0.382   8.629  0.2773 -0.2658  0.2553
  187SAPI  H16X21565   1.848   0.398   8.653  0.6057  0.1972 -1.3795
  187SAPI  H16Y21566   1.731   0.272   8.645 -0.4737 -0.5300 -1.6333
  187SAPI  C31721567   1.655   0.462   8.735  0.0731  0.3818  0.3756
  187SAPI  H17X21568   1.545   0.454   8.720  0.1657 -0.3562  0.0417
  187SAPI  H17Y21569   1.668   0.572   8.719 -0.8765  0.6777  1.5229
  187SAPI  C31821570   1.684   0.423   8.877  0.5785  0.0045 -0.1857
  187SAPI  H18X21571   1.655   0.317   8.897  2.7262 -0.1090  3.3002
  187SAPI  H18Y21572   1.628   0.489   8.947  0.1551 -1.4256  0.8843
  187SAPI  H18Z21573   1.795   0.421   8.891  0.4226  0.9826  1.4754
  188SAPI   C1221574   3.707   2.992   6.081 -0.0138 -0.9605 -0.6830
  188SAPI    H221575   3.743   3.071   6.150 -0.8035 -0.4737 -0.8171
  188SAPI    O221576   3.603   3.052   6.012 -0.0188  0.3077  0.2859
  188SAPI   HO221577   3.614   3.147   6.010 -1.4991  0.4913 -0.7996
  188SAPI   C1321578   3.815   2.935   5.998  0.3845  0.9545  0.5532
  188SAPI    H321579   3.901   2.906   6.062 -1.2922 -2.0515  1.6302
  188SAPI    O321580   3.864   3.036   5.908 -0.2107  0.3668  0.3309
  188SAPI   HO321581   3.821   3.121   5.922 -0.1638  0.6123 -0.8754
  188SAPI   C1421582   3.769   2.807   5.918  0.4833  0.1770  0.2074
  188SAPI    H421583   3.686   2.844   5.854  1.1355  1.3610  0.0101
  188SAPI    O421584   3.866   2.750   5.840  0.4981 -0.1128  0.4106
  188SAPI   HO421585   3.949   2.789   5.869  1.3837 -1.8162  0.2948
  188SAPI   C1521586   3.715   2.707   6.013  0.1969  0.7474 -0.4672
  188SAPI    H521587   3.794   2.672   6.083  0.8669  1.2321 -0.9834
  188SAPI    O521588   3.664   2.588   5.947  0.0810 -0.3290  0.0524
  188SAPI   HO521589   3.650   2.610   5.855 -0.4793  2.7686  0.7613
  188SAPI   C1621590   3.608   2.768   6.101  0.3253  0.4695 -0.2568
  188SAPI    H621591   3.521   2.798   6.039 -0.1788 -1.9401 -0.8343
  188SAPI    O621592   3.564   2.676   6.197  0.4534  0.2041  0.2916
  188SAPI   HO621593   3.499   2.721   6.252 -0.0827 -1.8301  1.3969
  188SAPI   C1121594   3.662   2.882   6.181  0.4596 -0.1671  0.6208
  188SAPI    H121595   3.755   2.845   6.231  1.7558  1.3997 -0.5285
  188SAPI     P21596   3.627   3.013   6.412  0.0901 -0.0827 -0.4159
  188SAPI   O1321597   3.530   3.108   6.464 -0.0871 -0.4918 -0.2812
  188SAPI   O1421598   3.763   3.057   6.393  0.5031  0.1879  0.3867
  188SAPI   O1221599   3.561   2.940   6.277 -0.6579 -0.2340  0.8469
  188SAPI   O1121600   3.626   2.885   6.510 -0.6870 -0.3898 -0.2409
  188SAPI    C121601   3.497   2.829   6.553 -0.3577 -0.0877  0.0307
  188SAPI    HA21602   3.421   2.909   6.549  0.0262  0.4126  2.0121
  188SAPI    HB21603   3.461   2.746   6.488 -1.2082 -1.5797  2.3123
  188SAPI    C221604   3.512   2.754   6.693 -0.3857  0.9165  0.4475
  188SAPI    HS21605   3.424   2.693   6.721  0.7384 -0.7582  0.4570
  188SAPI   O2121606   3.542   2.840   6.807  0.6903  0.1893  0.1474
  188SAPI   C2121607   3.438   2.925   6.832  0.2692 -0.0992 -0.6806
  188SAPI   O2221608   3.324   2.910   6.801 -0.1037 -0.2890  0.4317
  188SAPI   C2221609   3.489   3.035   6.926  0.0653 -0.1911  0.0441
  188SAPI   H2R21610   3.558   2.982   6.996 -0.5034  0.1181  0.8545
  188SAPI   H2S21611   3.550   3.112   6.873  1.7449 -1.0678  0.6118
  188SAPI    C321612   3.633   2.650   6.686 -0.4162  0.4623 -0.6084
  188SAPI    HX21613   3.730   2.703   6.678  0.9570 -1.4120  1.9698
  188SAPI    HY21614   3.623   2.595   6.590  3.4484  1.3697 -1.7266
  188SAPI   O3121615   3.643   2.557   6.802 -0.0736  0.1776  0.2151
  188SAPI   C3121616   3.732   2.467   6.795  0.4405  0.4571  0.6542
  188SAPI   O3221617   3.787   2.424   6.697  0.0582  0.2855 -0.0278
  188SAPI   C3221618   3.760   2.411   6.933 -0.2965  0.1180  0.0897
  188SAPI   H2X21619   3.668   2.353   6.959  0.8661 -2.2651 -0.7933
  188SAPI   H2Y21620   3.778   2.496   7.001 -1.5654  1.2971 -0.9713
  188SAPI   C2321621   3.378   3.100   7.005  0.3076 -0.2704 -0.5328
  188SAPI   H3R21622   3.298   3.139   6.938  0.6238 -1.5433 -1.6977
  188SAPI   H3S21623   3.416   3.186   7.064 -1.1084  0.4463 -0.6209
  188SAPI   C2421624   3.317   3.007   7.110 -0.6046 -0.3385 -0.7512
  188SAPI   H4R21625   3.400   2.971   7.174  0.7199  3.9804  0.2932
  188SAPI   H4S21626   3.274   2.914   7.068  0.0587 -1.3706  0.8058
  188SAPI   C2521627   3.210   3.079   7.186  0.5945  0.1041  0.6362
  188SAPI   H5R21628   3.146   3.144   7.125  1.5866  0.7065  0.2317
  188SAPI   C2621629   3.187   3.085   7.317 -0.2620 -0.3316 -0.6717
  188SAPI   H6R21630   3.098   3.144   7.347 -1.8357 -2.8626 -0.0400
  188SAPI   C2721631   3.259   3.028   7.437  0.8071 -0.1984 -0.0813
  188SAPI   H7R21632   3.355   2.983   7.402 -1.0254 -1.6738 -3.6469
  188SAPI   H7S21633   3.198   2.943   7.474 -0.0434 -1.1837 -3.4530
  188SAPI   C2821634   3.281   3.131   7.542 -0.1640 -0.1585 -0.6714
  188SAPI   H8R21635   3.218   3.221   7.531 -0.0467 -0.2368 -2.2187
  188SAPI   C2921636   3.353   3.130   7.657 -0.8686  0.4627  0.3016
  188SAPI   H9R21637   3.341   3.216   7.723 -4.0046  0.4748 -0.1310
  188SAPI  C21021638   3.439   3.019   7.718 -0.6297  1.5633 -0.1338
  188SAPI  H10R21639   3.531   3.060   7.764 -0.7178 -1.4555  3.0745
  188SAPI  H10S21640   3.461   2.939   7.644  2.2408  1.2762  0.9098
  188SAPI  C21121641   3.364   2.965   7.839  0.0076  0.7666  0.4628
  188SAPI  H11R21642   3.276   2.904   7.817  1.0692 -0.2971 -1.0868
  188SAPI  C21221643   3.402   2.973   7.966 -0.6026 -0.0266 -0.9809
  188SAPI  H12R21644   3.339   2.920   8.037 -0.9997  1.1197 -0.4504
  188SAPI  C21321645   3.524   3.035   8.024  0.0422 -0.6267 -0.4457
  188SAPI  H13R21646   3.606   3.054   7.951 -0.5613 -0.5683 -1.1254
  188SAPI  H13S21647   3.570   2.972   8.103 -0.3982  0.6166  0.8228
  188SAPI  C21421648   3.489   3.169   8.083  0.1113 -0.5473 -0.1899
  188SAPI  H14R21649   3.475   3.249   8.009  1.3186  0.6285  0.7796
  188SAPI  C21521650   3.459   3.196   8.211 -0.0871 -0.3965  0.3355
  188SAPI  H15R21651   3.431   3.299   8.240  1.4852  0.2737 -0.3844
  188SAPI  C21621652   3.461   3.094   8.325 -0.9964 -0.0506 -0.0421
  188SAPI  H16R21653   3.471   2.989   8.289 -0.6496 -0.2254  0.5432
  188SAPI  H16S21654   3.365   3.089   8.380 -0.3162  0.3645  1.2272
  188SAPI  C21721655   3.574   3.133   8.429  0.3281 -0.9605  0.1601
  188SAPI  H17R21656   3.561   3.240   8.453  1.8426 -0.5002 -0.9379
  188SAPI  H17S21657   3.675   3.119   8.384  0.1939 -0.4237 -0.3243
  188SAPI  C21821658   3.574   3.049   8.555  0.1380 -0.0875 -0.8569
  188SAPI  H18R21659   3.591   2.940   8.539  0.5336 -0.0082 -0.9805
  188SAPI  H18S21660   3.472   3.043   8.599  0.4582  0.3535 -0.0346
  188SAPI  C21921661   3.675   3.092   8.661  0.6113  0.0264 -0.7101
  188SAPI  H19R21662   3.641   3.190   8.699  0.8898 -0.8964  2.1250
  188SAPI  H19S21663   3.775   3.096   8.613  1.2584 -0.1325  0.5876
  188SAPI  C22021664   3.669   2.998   8.779  0.3291  0.0641  0.2188
  188SAPI  H20R21665   3.696   2.895   8.746  0.6033 -0.0409  0.7592
  188SAPI  H20S21666   3.565   2.993   8.818  0.0384  0.2722 -0.5088
  188SAPI  H20T21667   3.736   3.018   8.865 -0.5919 -0.8335  1.1685
  188SAPI   C3321668   3.868   2.303   6.945 -0.6591 -0.6285 -0.4329
  188SAPI   H3X21669   3.967   2.351   6.931 -1.3740  1.2342  0.4443
  188SAPI   H3Y21670   3.840   2.219   6.878  0.6923 -1.0706 -0.4679
  188SAPI   C3421671   3.870   2.250   7.092 -0.5798 -0.3263  0.6017
  188SAPI   H4X21672   3.955   2.180   7.094 -1.6010 -1.7468 -1.5754
  188SAPI   H4Y21673   3.773   2.200   7.112 -0.4087 -0.7490  0.3797
  188SAPI   C3521674   3.893   2.362   7.191 -0.2896  0.2699 -0.8334
  188SAPI   H5X21675   3.805   2.428   7.210  0.1684  0.7167 -0.1892
  188SAPI   H5Y21676   3.970   2.433   7.154 -0.2430  0.8612  0.3435
  188SAPI   C3621677   3.941   2.302   7.329  0.1821 -0.5518  0.4138
  188SAPI   H6X21678   4.035   2.245   7.313 -0.2760 -1.3302  0.4598
  188SAPI   H6Y21679   3.861   2.232   7.359 -1.6312  0.6976 -1.2495
  188SAPI   C3721680   3.966   2.407   7.442  0.2199  0.5570 -0.2795
  188SAPI   H7X21681   3.880   2.475   7.460 -0.1445  0.2112 -0.7016
  188SAPI   H7Y21682   4.058   2.468   7.429 -0.8130  2.5835  1.2121
  188SAPI   C3821683   3.976   2.332   7.577 -0.4314  0.6132 -0.0597
  188SAPI   H8X21684   4.065   2.268   7.565 -2.5614 -3.3473  2.9720
  188SAPI   H8Y21685   3.887   2.266   7.587 -0.8440  0.9268 -1.4519
  188SAPI   C3921686   4.006   2.424   7.702 -0.1662 -0.4479 -0.0573
  188SAPI   H9X21687   4.094   2.488   7.682 -0.4397  0.0401  0.2723
  188SAPI   H9Y21688   4.029   2.365   7.793  0.7662  1.6568  1.1452
  188SAPI  C31021689   3.891   2.522   7.738 -1.1321 -0.3836  0.6526
  188SAPI  H10X21690   3.794   2.470   7.718 -1.6165  1.4566 -2.2700
  188SAPI  H10Y21691   3.901   2.598   7.658 -2.4156  0.1700  0.9924
  188SAPI  C31121692   3.902   2.577   7.879 -0.4239 -0.4655 -0.5427
  188SAPI  H11X21693   4.002   2.624   7.896 -0.2799 -0.7529 -0.5800
  188SAPI  H11Y21694   3.890   2.495   7.953  0.7796 -0.7219 -0.5986
  188SAPI  C31221695   3.794   2.683   7.895 -0.2180 -0.3943 -0.3710
  188SAPI  H12X21696   3.693   2.643   7.920 -0.6576  1.5896  1.3342
  188SAPI  H12Y21697   3.786   2.742   7.801  0.3743  0.2231 -0.0390
  188SAPI  C31321698   3.825   2.795   7.997 -0.0112  0.0142 -0.3013
  188SAPI  H13X21699   3.749   2.875   7.995 -1.5770 -1.4363 -0.4889
  188SAPI  H13Y21700   3.911   2.853   7.956 -0.9149  1.4067 -0.2566
  188SAPI  C31421701   3.854   2.736   8.143 -0.1354 -0.2612 -0.3667
  188SAPI  H14X21702   3.950   2.679   8.139 -0.4134 -0.9821  1.9485
  188SAPI  H14Y21703   3.779   2.658   8.170 -0.8306  0.4115 -0.3393
  188SAPI  C31521704   3.844   2.842   8.249  0.3989 -0.1355 -0.1118
  188SAPI  H15X21705   3.738   2.873   8.255  0.7194  0.8156  0.9365
  188SAPI  H15Y21706   3.923   2.913   8.220  1.5353  0.2055  3.3501
  188SAPI  C31621707   3.884   2.783   8.388 -0.1954  0.1590  0.0236
  188SAPI  H16X21708   3.856   2.676   8.389 -0.5190  0.1588 -2.4526
  188SAPI  H16Y21709   3.824   2.837   8.465  0.2932 -0.6698  1.0051
  188SAPI  C31721710   4.033   2.789   8.413  0.5544  0.2423  0.2633
  188SAPI  H17X21711   4.085   2.726   8.337 -0.0162  0.9167 -0.7106
  188SAPI  H17Y21712   4.048   2.751   8.516 -1.8757  1.2058  1.0404
  188SAPI  C31821713   4.114   2.924   8.393  0.8963  0.4262  0.5889
  188SAPI  H18X21714   4.068   3.007   8.451  2.9891  2.1458 -0.0700
  188SAPI  H18Y21715   4.119   2.946   8.285 -1.2555 -0.0256  0.3493
  188SAPI  H18Z21716   4.216   2.908   8.435  1.0220  1.5364  0.7203
  189POPC     N21717   2.195   4.285  10.740 -0.5148  0.6705  0.4483
  189POPC   C1221718   2.329   4.208  10.735  0.3109 -0.1929 -0.6692
  189POPC  H12A21719   2.312   4.118  10.677 -0.2913 -1.1669  0.9291
  189POPC  H12B21720   2.346   4.188  10.840 -1.1017  1.9938  0.0325
  189POPC   C1321721   2.208   4.406  10.829 -0.5875 -0.1442 -0.1130
  189POPC  H13A21722   2.295   4.459  10.794 -1.4516  0.2593 -1.7601
  189POPC  H13B21723   2.124   4.474  10.823 -1.5902 -1.0898  2.1115
  189POPC  H13C21724   2.228   4.372  10.930 -0.0793 -1.0091 -0.4959
  189POPC   C1421725   2.157   4.325  10.600  0.3067  0.2641  0.3488
  189POPC  H14A21726   2.135   4.238  10.540 -1.6493  0.8595  0.1220
  189POPC  H14B21727   2.063   4.378  10.606 -1.0814 -1.8593 -0.9820
  189POPC  H14C21728   2.237   4.387  10.563 -0.6331  2.2986  1.5893
  189POPC   C1521729   2.081   4.198  10.780 -0.2021 -0.1986  0.7007
  189POPC  H15A21730   1.995   4.257  10.755  1.6669  1.3880 -2.7298
  189POPC  H15B21731   2.092   4.175  10.885  0.3289 -0.0326  0.6849
  189POPC  H15C21732   2.056   4.111  10.720 -3.3518  0.8861  0.2312
  189POPC   C1121733   2.452   4.284  10.685 -0.1028 -0.1535 -0.3423
  189POPC  H11A21734   2.436   4.329  10.585 -2.5370 -1.0550 -0.4246
  189POPC  H11B21735   2.539   4.217  10.667 -0.4651 -0.4532 -0.9899
  189POPC     P21736   2.564   4.378  10.911 -0.3797 -0.4534 -0.0936
  189POPC   O1321737   2.539   4.243  10.963  0.3291  0.3272  0.2899
  189POPC   O1421738   2.510   4.493  10.991 -0.4886 -0.5292 -0.8616
  189POPC   O1221739   2.492   4.391  10.771 -0.4862  0.5651  0.3774
  189POPC   O1121740   2.718   4.402  10.883  0.1121  0.4291 -0.2772
  189POPC    C121741   2.809   4.315  10.817 -0.2402  0.1486  0.1199
  189POPC    HA21742   2.764   4.214  10.811 -0.9083  0.5072 -1.2962
  189POPC    HB21743   2.903   4.298  10.874  0.7533  1.6606 -0.9832
  189POPC    C221744   2.851   4.357  10.671  0.2052  0.3471 -0.5758
  189POPC    HS21745   2.877   4.465  10.676  1.6661 -0.0406  1.3221
  189POPC   O2121746   2.761   4.301  10.574  0.4576  0.1094  0.3087
  189POPC   C2121747   2.762   4.368  10.462 -0.1431  0.3135  0.3440
  189POPC   O2221748   2.802   4.481  10.439  0.7071 -0.1167  0.0854
  189POPC   C2221749   2.698   4.273  10.364  0.2369 -0.2789 -0.5111
  189POPC   H2R21750   2.619   4.217  10.417 -1.6034  2.8659  0.2739
  189POPC   H2S21751   2.779   4.206  10.325 -1.3906 -1.3275 -2.2994
  189POPC    C321752   2.992   4.294  10.641 -0.2799 -0.1656 -0.7655
  189POPC    HX21753   2.989   4.183  10.641 -0.1724 -0.1804 -2.3186
  189POPC    HY21754   3.055   4.331  10.725 -1.4393  1.7325 -0.6658
  189POPC   O3121755   3.047   4.332  10.514  0.4441 -0.2945 -0.0903
  189POPC   C3121756   3.110   4.442  10.502 -0.0344 -0.4171 -0.0146
  189POPC   O3221757   3.139   4.515  10.597 -0.5670  0.6074 -0.2716
  189POPC   C3221758   3.139   4.478  10.357 -0.0788 -0.7027  0.2121
  189POPC   H2X21759   3.203   4.568  10.353  3.2000 -2.9193 -1.2556
  189POPC   H2Y21760   3.037   4.503  10.321 -0.6627  1.8088  3.1181
  189POPC   C2321761   2.631   4.342  10.245  0.3297 -0.4931  0.5511
  189POPC   H3R21762   2.696   4.374  10.161  1.3782 -1.1686  1.0994
  189POPC   H3S21763   2.581   4.437  10.274 -0.7368 -1.4216  1.8966
  189POPC   C2421764   2.520   4.257  10.178  0.4891 -0.0758 -0.9567
  189POPC   H4R21765   2.445   4.230  10.255 -0.0020  0.6270 -1.1775
  189POPC   H4S21766   2.558   4.155  10.155  0.9608 -0.5892  1.8264
  189POPC   C2521767   2.446   4.311  10.055 -0.6964  0.1716 -0.0850
  189POPC   H5R21768   2.430   4.421  10.057  0.1410  0.3574 -2.0530
  189POPC   H5S21769   2.355   4.248  10.057  0.4627 -1.7294  3.9090
  189POPC   C2621770   2.525   4.287   9.922  0.4578 -0.4690 -0.0095
  189POPC   H6R21771   2.563   4.183   9.924 -0.2171 -0.7126  0.2938
  189POPC   H6S21772   2.612   4.356   9.911 -1.6400  1.9876 -2.6618
  189POPC   C2721773   2.434   4.310   9.805  0.1487 -0.4023 -0.0329
  189POPC   H7R21774   2.370   4.400   9.820 -0.5510 -0.7462 -0.9089
  189POPC   H7S21775   2.369   4.220   9.800  2.2482 -1.9484 -0.6943
  189POPC   C2821776   2.515   4.320   9.673  0.2200 -0.1557  0.8500
  189POPC   H8R21777   2.607   4.380   9.689  1.9458 -2.8083  1.4182
  189POPC   H8S21778   2.441   4.362   9.601  0.1057  1.2084  1.7336
  189POPC   C2921779   2.582   4.193   9.634  0.2473 -0.4322  0.0896
  189POPC   H9121780   2.624   4.140   9.720  0.7246  0.2823  0.3007
  189POPC  C21021781   2.581   4.141   9.514  0.5568  0.2046  1.0790
  189POPC  H10121782   2.631   4.043   9.504 -0.1715 -0.0573 -0.3714
  189POPC  C21121783   2.515   4.198   9.389  0.3086 -0.0115  0.0005
  189POPC  H11R21784   2.559   4.156   9.296  1.9790  0.2187  0.6573
  189POPC  H11S21785   2.522   4.309   9.392  2.3611 -0.0993 -0.1639
  189POPC  C21221786   2.364   4.176   9.360 -0.3270 -0.2288 -0.1662
  189POPC  H12R21787   2.303   4.208   9.447 -1.7273  0.8102 -1.4731
  189POPC  H12S21788   2.342   4.068   9.352  0.7169 -0.3934 -1.0788
  189POPC  C21321789   2.303   4.253   9.241 -0.1814 -0.1452  0.1493
  189POPC  H13R21790   2.360   4.348   9.244 -0.1277 -0.1288  4.0493
  189POPC  H13S21791   2.194   4.269   9.257 -0.7778 -0.6527 -2.9271
  189POPC  C21421792   2.312   4.187   9.106  0.1548 -1.3015  0.3441
  189POPC  H14R21793   2.259   4.089   9.114  1.0600 -1.7382  1.2402
  189POPC  H14S21794   2.414   4.164   9.069  0.0601  1.4957 -1.9255
  189POPC  C21521795   2.270   4.277   8.990  0.2736  0.0703  0.6526
  189POPC  H15R21796   2.320   4.376   8.993  0.1284  0.2984 -1.9882
  189POPC  H15S21797   2.162   4.299   9.004  0.1847 -0.1747  0.3761
  189POPC  C21621798   2.300   4.213   8.852 -0.5878  0.1892  0.0069
  189POPC  H16R21799   2.279   4.105   8.864  0.7363 -0.6253 -3.6774
  189POPC  H16S21800   2.407   4.221   8.821 -0.3119  1.9142  1.2727
  189POPC  C21721801   2.203   4.264   8.743  0.0366 -0.2970  0.3250
  189POPC  H17R21802   2.102   4.255   8.787 -0.4274  1.6294 -0.2473
  189POPC  H17S21803   2.201   4.195   8.656 -1.9122  1.1548 -0.8497
  189POPC  C21821804   2.222   4.408   8.688 -0.4274  0.0140  0.4602
  189POPC  H18R21805   2.139   4.433   8.618 -0.4927  2.8266  1.4200
  189POPC  H18S21806   2.324   4.418   8.646 -1.0423 -0.9793 -1.3682
  189POPC  H18T21807   2.217   4.479   8.774  0.5155  0.9694 -0.2570
  189POPC   C3321808   3.203   4.360  10.281 -0.0535  0.1972 -0.0357
  189POPC   H3X21809   3.134   4.275  10.299  0.5740 -0.0177  1.4971
  189POPC   H3Y21810   3.307   4.336  10.311 -0.3970  0.8642  1.8407
  189POPC   C3421811   3.212   4.393  10.126  0.0454  0.0510  0.2090
  189POPC   H4X21812   3.252   4.307  10.068  0.0289 -0.4355  0.9042
  189POPC   H4Y21813   3.277   4.481  10.109 -0.5825  0.4386 -0.2136
  189POPC   C3521814   3.076   4.415  10.063  0.1227  0.0713  0.2508
  189POPC   H5X21815   3.030   4.508  10.103 -2.2228 -0.9490  0.1115
  189POPC   H5Y21816   3.004   4.335  10.093  0.2893  0.4982  1.8420
  189POPC   C3621817   3.084   4.418   9.907 -0.7390 -0.4373  0.1481
  189POPC   H6X21818   3.126   4.320   9.873 -4.1440 -2.0090  0.0498
  189POPC   H6Y21819   3.145   4.508   9.886 -2.2772  0.9449  1.3642
  189POPC   C3721820   2.950   4.426   9.838 -0.0659  0.1440 -0.4749
  189POPC   H7X21821   2.903   4.517   9.880 -0.2662 -0.8781  1.6917
  189POPC   H7Y21822   2.884   4.345   9.878  0.8394  0.1339  1.0878
  189POPC   C3821823   2.954   4.443   9.686 -0.2538  0.0145 -0.3043
  189POPC   H8X21824   3.047   4.497   9.656  0.0576 -0.3092  0.0595
  189POPC   H8Y21825   2.868   4.505   9.653  1.0846  1.2905 -1.5642
  189POPC   C3921826   2.941   4.317   9.605 -0.0848 -0.8810 -0.2870
  189POPC   H9X21827   2.853   4.259   9.639 -0.2948 -0.9403 -0.9159
  189POPC   H9Y21828   3.040   4.268   9.616  1.1622  1.8268  1.6547
  189POPC  C31021829   2.910   4.345   9.454 -0.4377  0.3706 -0.1686
  189POPC  H10X21830   2.978   4.429   9.428  0.9729  0.8653  4.3219
  189POPC  H10Y21831   2.803   4.373   9.443 -0.8421 -1.0348 -0.0556
  189POPC  C31121832   2.928   4.210   9.371  0.6676 -0.3650 -0.5036
  189POPC  H11X21833   2.860   4.132   9.410  1.3947 -2.0227 -2.3547
  189POPC  H11Y21834   3.028   4.167   9.392 -0.5243 -3.3414 -0.4843
  189POPC  C31221835   2.905   4.229   9.218 -0.1860  0.5720  0.1685
  189POPC  H12X21836   2.979   4.305   9.185  0.9516  0.4028  2.2278
  189POPC  H12Y21837   2.805   4.268   9.188  0.8822  0.5530 -4.0571
  189POPC  C31321838   2.932   4.103   9.146 -0.6508  0.1368  0.3837
  189POPC  H13X21839   2.864   4.020   9.176 -0.3088 -0.4229 -0.3381
  189POPC  H13Y21840   3.034   4.066   9.170  0.4863  1.9622 -1.3842
  189POPC  C31421841   2.911   4.137   8.988  0.5754  0.2457  0.3234
  189POPC  H14X21842   2.975   4.226   8.967 -0.5808  0.8280 -0.8995
  189POPC  H14Y21843   2.806   4.164   8.962  0.2839 -1.0544  0.0792
  189POPC  C31521844   2.934   4.015   8.897 -0.1734 -0.3694 -0.5617
  189POPC  H15X21845   2.857   3.935   8.908  0.6589 -1.0443  0.5208
  189POPC  H15Y21846   3.033   3.970   8.918  0.7430  0.3430 -2.9951
  189POPC  C31621847   2.939   4.056   8.752  0.0395  0.2793 -0.1217
  189POPC  H16X21848   2.951   3.967   8.686 -1.0342  0.1501 -0.1596
  189POPC  H16Y21849   3.028   4.119   8.730  0.4426 -0.1258  0.3350
  189POPC  H16Z21850   2.851   4.109   8.710  0.2297  0.3230 -0.4703
  190POPC     N21851   4.325   1.206  11.330  0.4569  0.3787 -0.6172
  190POPC   C1221852   4.377   1.170  11.198 -0.2651  0.4795  0.8449
  190POPC  H12A21853   4.299   1.114  11.148 -0.6673  1.6601  0.1063
  190POPC  H12B21854   4.458   1.100  11.205 -1.4523 -0.7660  3.1478
  190POPC   C1321855   4.421   1.284  11.415  0.1179 -0.1404  0.1204
  190POPC  H13A21856   4.373   1.305  11.510 -0.7898 -2.1709  0.1761
  190POPC  H13B21857   4.516   1.235  11.426  1.1367  1.2265 -1.9161
  190POPC  H13C21858   4.444   1.378  11.368  0.0443 -0.5761 -0.8127
  190POPC   C1421859   4.192   1.282  11.314 -1.0127  0.2023 -0.1846
  190POPC  H14A21860   4.123   1.238  11.243  0.2830 -1.2816 -0.5588
  190POPC  H14B21861   4.135   1.276  11.405  0.2349 -1.7048  0.5348
  190POPC  H14C21862   4.215   1.383  11.283  2.6849  0.7737  3.5309
  190POPC   C1521863   4.295   1.076  11.404 -0.6615  0.1103 -0.6154
  190POPC  H15A21864   4.207   1.037  11.354 -0.1747  0.7542 -2.0496
  190POPC  H15B21865   4.277   1.114  11.503  0.4542 -1.0336  0.0620
  190POPC  H15C21866   4.380   1.011  11.387 -0.7597 -0.1429 -0.1398
  190POPC   C1121867   4.413   1.280  11.090  0.0662 -0.0461 -0.6784
  190POPC  H11A21868   4.316   1.333  11.077 -0.2608 -0.6778 -0.8759
  190POPC  H11B21869   4.435   1.229  10.993 -1.1105 -2.9295  0.4599
  190POPC     P21870   4.656   1.388  11.082 -0.4265 -0.4852  0.2693
  190POPC   O1321871   4.739   1.284  11.150  0.2758 -0.1721 -0.5583
  190POPC   O1421872   4.699   1.530  11.098  0.2118 -0.5090  0.3323
  190POPC   O1221873   4.507   1.380  11.128  0.1492  0.2809  0.4887
  190POPC   O1121874   4.646   1.355  10.934 -1.0564 -0.5750  0.1583
  190POPC    C121875   4.644   1.436  10.817 -0.1898 -0.3723 -0.0406
  190POPC    HA21876   4.678   1.372  10.733  0.2441  0.3904 -0.4580
  190POPC    HB21877   4.708   1.527  10.827 -2.5312  1.4810 -0.9724
  190POPC    C221878   4.509   1.488  10.780  0.4243 -0.3414 -0.2954
  190POPC    HS21879   4.466   1.542  10.867 -1.0472  0.8120 -1.7005
  190POPC   O2121880   4.417   1.385  10.746 -0.6396  0.6382 -0.2496
  190POPC   C2121881   4.297   1.416  10.706 -0.4020  0.3907 -0.9335
  190POPC   O2221882   4.245   1.526  10.723 -0.0223 -0.2758 -0.0566
  190POPC   C2221883   4.219   1.304  10.646 -0.0538  0.1420  0.1750
  190POPC   H2R21884   4.203   1.222  10.719  0.0038 -1.4441 -1.5159
  190POPC   H2S21885   4.279   1.265  10.561 -1.7065  0.5311 -1.2503
  190POPC    C321886   4.522   1.593  10.671  0.8603 -0.4575 -0.0406
  190POPC    HX21887   4.584   1.678  10.707  0.4082 -0.4980  0.8466
  190POPC    HY21888   4.424   1.643  10.654  0.4407 -1.3633 -0.3265
  190POPC   O3121889   4.574   1.539  10.549  0.4068  0.3863  0.4153
  190POPC   C3121890   4.628   1.634  10.469  0.3365 -0.0453 -0.2936
  190POPC   O3221891   4.615   1.754  10.491  0.1021 -0.2267 -0.2921
  190POPC   C3221892   4.702   1.565  10.365  0.0541 -0.0521 -0.1709
  190POPC   H2X21893   4.624   1.510  10.308 -0.5954  0.6351  0.0340
  190POPC   H2Y21894   4.771   1.493  10.414 -1.1777 -1.1674  0.0018
  190POPC   C2321895   4.079   1.337  10.593  0.4732 -0.2428  0.4132
  190POPC   H3R21896   4.089   1.431  10.535 -0.1039  0.2778  1.1214
  190POPC   H3S21897   4.004   1.354  10.674 -0.2425  0.0059 -0.2826
  190POPC   C2421898   4.025   1.218  10.515  0.6271  0.1580  0.0420
  190POPC   H4R21899   4.012   1.139  10.592 -1.8265 -0.9290 -1.3377
  190POPC   H4S21900   4.092   1.175  10.438 -1.6232 -1.8238 -0.9406
  190POPC   C2521901   3.884   1.236  10.447  0.0529  0.5074  0.5735
  190POPC   H5R21902   3.817   1.291  10.518  0.8783  0.3531  1.4914
  190POPC   H5S21903   3.839   1.136  10.431  0.1229  0.2163  2.0260
  190POPC   C2621904   3.893   1.315  10.314  0.1131 -0.3800 -0.2538
  190POPC   H6R21905   3.983   1.281  10.259 -0.2292  0.2567 -1.2480
  190POPC   H6S21906   3.890   1.426  10.320  1.1752 -0.3634  0.2110
  190POPC   C2721907   3.781   1.271  10.226  0.0370 -0.0802 -0.1739
  190POPC   H7R21908   3.690   1.313  10.274  0.1031 -1.6644  1.4725
  190POPC   H7S21909   3.765   1.161  10.232 -0.0476 -0.1140 -0.9291
  190POPC   C2821910   3.798   1.325  10.078  0.5048  0.2231  0.0489
  190POPC   H8R21911   3.854   1.421  10.083  0.2146  0.4294 -0.6484
  190POPC   H8S21912   3.697   1.357  10.044 -0.1212  2.3333  3.4159
  190POPC   C2921913   3.873   1.225   9.979  0.6154 -0.3487  0.4133
  190POPC   H9121914   3.944   1.154  10.026 -0.5787 -2.3691 -0.6690
  190POPC  C21021915   3.842   1.201   9.853 -0.7595 -0.0946 -0.1312
  190POPC  H10121916   3.899   1.122   9.802 -2.9826 -1.9238  0.0874
  190POPC  C21121917   3.725   1.267   9.772  0.1793  0.0924 -0.4274
  190POPC  H11R21918   3.691   1.354   9.832  0.4517 -0.0693 -0.0357
  190POPC  H11S21919   3.640   1.196   9.778 -0.2661  0.6929  0.8299
  190POPC  C21221920   3.760   1.314   9.629  0.2035  0.2860  0.1332
  190POPC  H12R21921   3.854   1.373   9.622  1.0723 -1.1583 -0.9014
  190POPC  H12S21922   3.680   1.379   9.588  0.0549 -1.1280 -1.9509
  190POPC  C21321923   3.777   1.192   9.530  0.3452  0.2985  0.0768
  190POPC  H13R21924   3.708   1.108   9.552 -0.8145  1.6239  1.6891
  190POPC  H13S21925   3.882   1.162   9.549  1.6006  4.8159  1.4051
  190POPC  C21421926   3.769   1.216   9.376  0.5683 -0.2601  0.2538
  190POPC  H14R21927   3.664   1.244   9.353  1.1302  2.6490  0.9191
  190POPC  H14S21928   3.797   1.122   9.323  1.8076  1.0182 -1.4699
  190POPC  C21521929   3.854   1.342   9.333  0.5976 -0.1121 -0.5151
  190POPC  H15R21930   3.946   1.341   9.396  0.4698 -0.4918 -0.3297
  190POPC  H15S21931   3.803   1.436   9.361 -1.3006 -0.8806 -1.2332
  190POPC  C21621932   3.894   1.341   9.187  0.3508 -0.7017  0.6491
  190POPC  H16R21933   3.950   1.247   9.165 -0.3009 -0.9000 -0.2202
  190POPC  H16S21934   3.957   1.430   9.167 -0.4807  0.4434  2.8573
  190POPC  C21721935   3.763   1.364   9.107  0.2346  0.1974 -0.4940
  190POPC  H17R21936   3.715   1.463   9.120 -2.3758 -1.2372  2.0709
  190POPC  H17S21937   3.686   1.292   9.142 -0.7468  1.8557  0.9035
  190POPC  C21821938   3.780   1.360   8.953  0.1252 -0.6038  0.0004
  190POPC  H18R21939   3.681   1.383   8.908 -0.0217  1.9548  1.4313
  190POPC  H18S21940   3.816   1.257   8.929  1.0351 -0.2849 -0.0439
  190POPC  H18T21941   3.848   1.438   8.913 -0.3795 -0.2177 -0.1138
  190POPC   C3321942   4.772   1.667  10.265 -0.2595 -0.2397  0.1659
  190POPC   H3X21943   4.849   1.727  10.319  0.7104 -0.8414 -0.5118
  190POPC   H3Y21944   4.700   1.734  10.214 -0.5907 -1.5576 -1.1946
  190POPC   C3421945   4.839   1.590  10.153  0.7284  0.1319 -0.1817
  190POPC   H4X21946   4.758   1.535  10.100 -0.2114  0.1371  1.1994
  190POPC   H4Y21947   4.920   1.526  10.195 -1.0392 -2.6254 -0.6800
  190POPC   C3521948   4.913   1.670  10.046 -0.5064 -0.6800  1.0765
  190POPC   H5X21949   4.999   1.728  10.086 -1.2380 -0.0677  1.7892
  190POPC   H5Y21950   4.839   1.744  10.008  0.5320  0.3509  1.0311
  190POPC   C3621951   4.955   1.585   9.925 -0.0139 -0.3436  0.2387
  190POPC   H6X21952   4.984   1.487   9.970  0.3098  0.8888  2.9343
  190POPC   H6Y21953   5.041   1.631   9.873  1.2175 -3.2009 -0.4295
  190POPC   C3721954   4.836   1.550   9.827 -0.1633 -0.4283 -0.1951
  190POPC   H7X21955   4.751   1.614   9.859 -0.6386 -1.0348 -0.2045
  190POPC   H7Y21956   4.809   1.444   9.846  0.3801 -0.4655  0.4010
  190POPC   C3821957   4.853   1.588   9.683 -0.1498  0.0102  0.7684
  190POPC   H8X21958   4.924   1.514   9.641 -1.4122 -0.8825  0.1453
  190POPC   H8Y21959   4.884   1.695   9.685 -3.3696  1.1302 -0.8860
  190POPC   C3921960   4.718   1.588   9.599 -0.5884 -0.0947 -0.4722
  190POPC   H9X21961   4.651   1.672   9.627 -0.3628 -0.2172  0.4720
  190POPC   H9Y21962   4.673   1.490   9.624  2.1497 -1.2656  0.2887
  190POPC  C31021963   4.754   1.582   9.445  0.1984  0.2545 -0.3947
  190POPC  H10X21964   4.792   1.478   9.432 -1.4140 -0.6123  1.3740
  190POPC  H10Y21965   4.839   1.652   9.427  2.3055 -2.2189 -0.6516
  190POPC  C31121966   4.637   1.595   9.351  0.4507 -0.3703 -0.6488
  190POPC  H11X21967   4.591   1.693   9.375  1.1660 -0.2128  0.1382
  190POPC  H11Y21968   4.563   1.513   9.363  0.2939 -0.4739 -2.0636
  190POPC  C31221969   4.665   1.581   9.198  0.3448 -0.0547  0.3508
  190POPC  H12X21970   4.711   1.480   9.199  0.6457  0.0025 -2.3597
  190POPC  H12Y21971   4.745   1.652   9.168  1.3043 -0.4294  1.8749
  190POPC  C31321972   4.535   1.586   9.108  0.0036  0.3224 -0.6465
  190POPC  H13X21973   4.489   1.686   9.124 -1.8658 -0.6648  0.5203
  190POPC  H13Y21974   4.459   1.510   9.137  0.2023 -0.5330 -2.2473
  190POPC  C31421975   4.556   1.566   8.954  0.6236  0.1348  0.0460
  190POPC  H14X21976   4.579   1.460   8.930  1.7347  0.3435  0.1406
  190POPC  H14Y21977   4.634   1.630   8.906  1.2259 -1.0898 -0.6416
  190POPC  C31521978   4.429   1.612   8.877 -0.5712 -0.4867 -0.0469
  190POPC  H15X21979   4.418   1.720   8.901  1.1769 -0.7580  2.2550
  190POPC  H15Y21980   4.348   1.545   8.912  2.0751 -2.3968  2.9392
  190POPC  C31621981   4.443   1.597   8.720 -0.2750  0.2762 -0.2295
  190POPC  H16X21982   4.535   1.651   8.689 -0.3005  0.9234  0.7671
  190POPC  H16Y21983   4.345   1.623   8.675  0.6463  0.8232 -2.0194
  190POPC  H16Z21984   4.449   1.486   8.721  1.7087  0.2997 -2.1770
  191POPC     N21985   5.134   1.751   6.302 -0.4169  0.0275 -0.0835
  191POPC   C1221986   5.169   1.892   6.354 -0.2922 -0.0218  0.4823
  191POPC  H12A21987   5.168   1.963   6.272 -0.2868  2.1477  2.2792
  191POPC  H12B21988   5.272   1.884   6.384  0.6874  0.2321 -2.5148
  191POPC   C1321989   5.254   1.686   6.233 -0.0381  0.1769  0.4519
  191POPC  H13A21990   5.221   1.588   6.204 -2.1657  0.4186  1.8045
  191POPC  H13B21991   5.292   1.746   6.152  0.2664 -0.1277  0.3678
  191POPC  H13C21992   5.334   1.653   6.298  0.6784  0.1066 -0.4541
  191POPC   C1421993   5.112   1.661   6.413  0.2350 -0.8814 -0.5126
  191POPC  H14A21994   5.073   1.567   6.375 -0.1923 -0.8410 -0.1761
  191POPC  H14B21995   5.205   1.620   6.450  0.8451 -0.5412 -1.6430
  191POPC  H14C21996   5.065   1.715   6.494 -0.5818 -0.7202 -1.0870
  191POPC   C1521997   5.012   1.743   6.215  0.3151 -0.0109 -0.3403
  191POPC  H15A21998   4.926   1.779   6.271  0.7661 -1.1989  1.1924
  191POPC  H15B21999   4.987   1.640   6.196  3.1566 -0.8433  0.0453
  191POPC  H15C22000   5.022   1.797   6.122  1.9981  1.3678  0.5913
  191POPC   C1122001   5.089   1.946   6.470  0.6123  0.3091 -0.2445
  191POPC  H11A22002   5.135   2.045   6.492  0.8293 -0.0403  0.9389
  191POPC  H11B22003   5.103   1.877   6.555  2.1599 -0.9550 -1.4588
  191POPC     P22004   4.903   2.076   6.341 -0.0008  0.4652 -0.3142
  191POPC   O1322005   4.763   2.041   6.307 -0.2350  0.0610 -0.5795
  191POPC   O1422006   5.003   2.101   6.235  0.1872 -0.1325  0.1520
  191POPC   O1222007   4.953   1.958   6.434  0.7480  0.6777 -0.4236
  191POPC   O1122008   4.902   2.195   6.449  0.1326 -0.0987 -0.7947
  191POPC    C122009   4.789   2.217   6.535  0.7033 -0.2201  0.4878
  191POPC    HA22010   4.742   2.121   6.564 -1.9929  0.4872 -1.1077
  191POPC    HB22011   4.721   2.271   6.465  1.7411 -1.1885 -1.3261
  191POPC    C222012   4.825   2.305   6.663  0.2372  0.6510  0.4450
  191POPC    HS22013   4.886   2.392   6.628  1.4776 -0.0653  0.7827
  191POPC   O2122014   4.899   2.215   6.751  0.5390 -0.2968  0.0450
  191POPC   C2122015   5.021   2.195   6.722  0.5688  0.1024  0.3758
  191POPC   O2222016   5.088   2.248   6.635  0.0993  0.0071 -0.0840
  191POPC   C2222017   5.073   2.079   6.804  0.1618 -0.2390  0.1204
  191POPC   H2R22018   5.119   2.002   6.739  0.2224  0.1809 -0.3386
  191POPC   H2S22019   4.985   2.040   6.860 -0.9082  2.7337  0.7008
  191POPC    C322020   4.703   2.369   6.732 -0.1186  0.6696 -0.6150
  191POPC    HX22021   4.639   2.286   6.768 -0.3584  0.6113 -1.1628
  191POPC    HY22022   4.650   2.425   6.652 -0.4086 -0.4962 -1.2652
  191POPC   O3122023   4.752   2.462   6.829  0.8061  1.3594 -0.3238
  191POPC   C3122024   4.761   2.405   6.959 -0.2922 -0.0878  0.3715
  191POPC   O3222025   4.730   2.292   6.990  0.1014 -0.3067  0.0707
  191POPC   C3222026   4.823   2.506   7.051  1.0246  0.5750  0.5670
  191POPC   H2X22027   4.815   2.605   7.002  0.0472  0.6769  0.9133
  191POPC   H2Y22028   4.929   2.479   7.071  0.0042 -1.9690  3.2882
  191POPC   C2322029   5.176   2.129   6.910 -0.0206 -0.1068 -0.1361
  191POPC   H3R22030   5.254   2.190   6.860  0.6684 -1.1780 -0.4056
  191POPC   H3S22031   5.224   2.039   6.956 -1.3784 -0.8970 -0.2038
  191POPC   C2422032   5.116   2.210   7.028 -0.4414  0.1484 -0.3551
  191POPC   H4R22033   5.006   2.194   7.037 -0.7703  2.5495  0.5000
  191POPC   H4S22034   5.127   2.314   6.991 -0.0593 -0.3543 -1.7058
  191POPC   C2522035   5.195   2.216   7.159 -0.0819 -0.4007  0.5108
  191POPC   H5R22036   5.293   2.261   7.132 -0.6205 -0.2386 -1.3586
  191POPC   H5S22037   5.217   2.114   7.197 -1.8941 -0.7192  0.8073
  191POPC   C2622038   5.127   2.288   7.276  0.2494  0.4971  0.0738
  191POPC   H6R22039   5.078   2.380   7.237  0.1737  0.4226 -0.0060
  191POPC   H6S22040   5.207   2.324   7.345  0.3913 -0.6382  0.5131
  191POPC   C2722041   5.015   2.202   7.339 -0.6011 -0.1239 -0.3309
  191POPC   H7R22042   5.036   2.093   7.344 -0.8834 -0.3523 -2.8539
  191POPC   H7S22043   4.922   2.216   7.279 -1.3244 -1.0675  0.5372
  191POPC   C2822044   4.976   2.260   7.476  0.0550  0.9957  0.5417
  191POPC   H8R22045   4.961   2.369   7.461 -1.5714  0.6386 -0.8641
  191POPC   H8S22046   5.060   2.231   7.542 -1.1466 -0.0638  1.6621
  191POPC   C2922047   4.858   2.198   7.543 -0.1948 -0.9190 -0.1888
  191POPC   H9122048   4.756   2.226   7.511 -0.2984  1.0601  1.6132
  191POPC  C21022049   4.866   2.118   7.652  0.4577 -0.1190  0.4511
  191POPC  H10122050   4.772   2.087   7.700  0.6445  0.9445  1.5482
  191POPC  C21122051   4.985   2.069   7.731 -0.3867  0.1621 -0.1017
  191POPC  H11R22052   5.019   2.157   7.790 -2.3016  0.2753  0.9069
  191POPC  H11S22053   5.072   2.029   7.674 -0.6091 -3.0823  1.6066
  191POPC  C21222054   4.938   1.964   7.840 -0.0173 -0.5735  0.2416
  191POPC  H12R22055   4.912   1.867   7.792 -3.3981  0.7899 -1.0382
  191POPC  H12S22056   4.852   2.010   7.895  1.7749  0.2297  2.5455
  191POPC  C21322057   5.044   1.940   7.942  0.4081 -0.3468  0.2437
  191POPC  H13R22058   5.061   2.037   7.994 -0.7745 -0.1066  0.2044
  191POPC  H13S22059   5.138   1.894   7.904  0.5924 -2.2103  2.7004
  191POPC  C21422060   4.993   1.854   8.061 -0.3340 -0.3040 -0.2158
  191POPC  H14R22061   4.938   1.768   8.018 -3.6717  1.8939 -0.6950
  191POPC  H14S22062   4.919   1.911   8.120 -1.4372 -2.5948  0.7170
  191POPC  C21522063   5.100   1.815   8.170  0.0087 -0.4836  0.4335
  191POPC  H15R22064   5.162   1.735   8.123  0.7375  0.1817  0.2449
  191POPC  H15S22065   5.046   1.769   8.256 -1.2672  2.3951  1.2813
  191POPC  C21622066   5.199   1.920   8.209  0.2860 -0.3405 -0.1055
  191POPC  H16R22067   5.141   2.014   8.223 -1.3961 -1.3050 -0.3643
  191POPC  H16S22068   5.281   1.938   8.137 -0.3832  1.6588 -0.4422
  191POPC  C21722069   5.260   1.878   8.347 -0.0119  0.7621  0.1935
  191POPC  H17R22070   5.311   1.782   8.325  2.0030  1.9472 -0.5689
  191POPC  H17S22071   5.177   1.877   8.422 -1.0447 -0.5218 -0.9233
  191POPC  C21822072   5.352   1.991   8.388 -0.0634 -0.1066 -0.1897
  191POPC  H18R22073   5.354   1.985   8.499  0.4706 -1.2858 -0.2402
  191POPC  H18S22074   5.311   2.091   8.363  0.0423  0.3988  1.5074
  191POPC  H18T22075   5.448   1.990   8.332  0.3401  2.7687  0.2986
  191POPC   C3322076   4.745   2.515   7.182 -0.2780 -0.6793  0.4184
  191POPC   H3X22077   4.751   2.415   7.231 -1.3587 -1.4363 -0.9326
  191POPC   H3Y22078   4.639   2.538   7.159 -0.0484 -0.3419 -0.3160
  191POPC   C3422079   4.811   2.618   7.271 -0.1870  0.0399 -0.4787
  191POPC   H4X22080   4.778   2.720   7.242  0.1971  0.3702  0.2154
  191POPC   H4Y22081   4.921   2.599   7.271 -0.1437 -0.0709 -2.9659
  191POPC   C3522082   4.751   2.600   7.412 -1.0944 -0.5259  0.0471
  191POPC   H5X22083   4.738   2.494   7.443 -3.7776  0.2950  2.1089
  191POPC   H5Y22084   4.650   2.647   7.413 -0.7990  0.1028  0.8728
  191POPC   C3622085   4.829   2.660   7.527 -0.2366  0.2989  0.1667
  191POPC   H6X22086   4.857   2.764   7.502 -0.4978  0.0206 -1.3677
  191POPC   H6Y22087   4.931   2.617   7.534 -0.5936 -0.4611  0.8011
  191POPC   C3722088   4.762   2.635   7.660 -0.5011  0.0720  0.5650
  191POPC   H7X22089   4.751   2.527   7.681  0.1360 -0.8866 -3.2843
  191POPC   H7Y22090   4.659   2.669   7.637  0.0821  1.0103 -0.8248
  191POPC   C3822091   4.819   2.711   7.782 -0.3380  0.1193 -0.2980
  191POPC   H8X22092   4.757   2.695   7.873  2.3671  1.1292  1.8389
  191POPC   H8Y22093   4.813   2.820   7.762  0.4969  0.0265 -1.1158
  191POPC   C3922094   4.965   2.675   7.810  0.2169 -0.0809 -0.2175
  191POPC   H9X22095   5.023   2.669   7.715  0.3685  1.0995 -0.2180
  191POPC   H9Y22096   4.961   2.574   7.855 -0.6327  1.2893  3.0657
  191POPC  C31022097   5.044   2.760   7.920  0.5289 -0.2456  0.4086
  191POPC  H10X22098   5.074   2.858   7.877  1.2120  0.5048  2.4812
  191POPC  H10Y22099   5.140   2.706   7.933  1.7768  1.4961 -1.0030
  191POPC  C31122100   4.965   2.779   8.050  0.2903  1.2014 -0.6300
  191POPC  H11X22101   4.920   2.678   8.066 -1.1796  1.9421  0.0913
  191POPC  H11Y22102   4.881   2.849   8.034  0.4774  1.2966 -1.2012
  191POPC  C31222103   5.060   2.820   8.160  0.2536 -0.2221 -0.5786
  191POPC  H12X22104   5.099   2.921   8.138  0.1992 -0.1791 -0.4778
  191POPC  H12Y22105   5.147   2.758   8.192  0.5493  0.7777  0.6356
  191POPC  C31322106   4.985   2.845   8.290  0.4427  0.4755  0.1493
  191POPC  H13X22107   4.914   2.928   8.273  1.2310  1.4461  1.3712
  191POPC  H13Y22108   5.056   2.893   8.361  0.4617  0.4077  0.1757
  191POPC  C31422109   4.913   2.718   8.350  0.5891 -0.1677  0.7999
  191POPC  H14X22110   4.983   2.632   8.346 -0.9433 -1.3953 -1.8204
  191POPC  H14Y22111   4.821   2.699   8.290  1.4085  0.7046 -0.7903
  191POPC  C31522112   4.871   2.743   8.500  0.0427  0.3026  1.0994
  191POPC  H15X22113   4.798   2.669   8.537  0.0509 -1.0272 -1.3538
  191POPC  H15Y22114   4.825   2.844   8.501 -0.8936 -0.1271  1.7166
  191POPC  C31622115   4.991   2.743   8.591  0.1857  0.1188  0.1804
  191POPC  H16X22116   4.970   2.750   8.700  0.9219 -0.2260  0.3461
  191POPC  H16Y22117   5.058   2.825   8.559  0.5559 -0.2150  0.0956
  191POPC  H16Z22118   5.047   2.648   8.583  1.1149  0.5742  1.0430
  192POPC     N22119   2.598   4.493   5.807 -0.0433  0.2263 -0.1953
  192POPC   C1222120   2.720   4.472   5.899  0.2680 -0.1432 -0.4454
  192POPC  H12A22121   2.803   4.524   5.853  0.3409  0.0415 -0.1092
  192POPC  H12B22122   2.751   4.369   5.914  0.6283  0.2177  1.6434
  192POPC   C1322123   2.584   4.635   5.773 -0.5134 -0.0321  0.6075
  192POPC  H13A22124   2.674   4.667   5.722 -0.2381 -0.8807  0.5386
  192POPC  H13B22125   2.496   4.656   5.714 -0.9145  1.0898  1.5790
  192POPC  H13C22126   2.579   4.702   5.857  1.0114  2.2114 -0.9582
  192POPC   C1422127   2.617   4.416   5.685 -0.1715  0.0741 -0.5301
  192POPC  H14A22128   2.632   4.315   5.718 -0.0936  0.9470  2.3741
  192POPC  H14B22129   2.534   4.425   5.616 -0.7018 -0.9761 -0.0611
  192POPC  H14C22130   2.703   4.453   5.631  0.9922 -0.7438  0.7060
  192POPC   C1522131   2.477   4.432   5.872  0.1687  0.2968 -0.1334
  192POPC  H15A22132   2.380   4.475   5.850  1.0253  2.6944  0.3862
  192POPC  H15B22133   2.485   4.437   5.979  0.3689 -0.7898 -0.0873
  192POPC  H15C22134   2.464   4.328   5.849  0.6699 -0.1324  1.4460
  192POPC   C1122135   2.712   4.536   6.040 -0.7210 -0.9375 -0.1875
  192POPC  H11A22136   2.702   4.645   6.023  0.8025 -0.6586  0.5324
  192POPC  H11B22137   2.810   4.523   6.092 -0.9873  0.9034  0.8623
  192POPC     P22138   2.502   4.588   6.187  0.4311 -0.3366 -0.0877
  192POPC   O1322139   2.407   4.494   6.249  0.4833 -0.4826  0.3906
  192POPC   O1422140   2.448   4.692   6.090  0.0934 -0.1996  0.0191
  192POPC   O1222141   2.610   4.482   6.126 -0.0946  0.4909  0.5028
  192POPC   O1122142   2.584   4.661   6.297  0.0284 -0.0263  0.1953
  192POPC    C122143   2.641   4.588   6.405 -0.5472  0.2292 -0.7379
  192POPC    HA22144   2.749   4.614   6.412 -0.3578 -0.4436 -1.0573
  192POPC    HB22145   2.648   4.478   6.388  0.5833  0.4966 -2.1811
  192POPC    C222146   2.570   4.615   6.541 -0.2099  0.2330  0.7669
  192POPC    HS22147   2.629   4.563   6.620  2.3560  2.2917  0.3595
  192POPC   O2122148   2.434   4.564   6.542  0.2416 -0.3637 -0.1754
  192POPC   C2122149   2.419   4.428   6.537  0.7872  0.7554 -0.3256
  192POPC   O2222150   2.511   4.347   6.537  0.0197 -0.1501  0.0021
  192POPC   C2222151   2.272   4.386   6.557  0.2799 -0.3768 -0.2796
  192POPC   H2R22152   2.264   4.282   6.594  0.4132 -0.2896 -0.0047
  192POPC   H2S22153   2.215   4.412   6.465  0.1097 -0.5919 -0.2367
  192POPC    C322154   2.557   4.770   6.562  0.5076  0.3600 -0.2897
  192POPC    HX22155   2.485   4.817   6.491 -0.6321 -2.0277 -0.8139
  192POPC    HY22156   2.660   4.813   6.558  1.0096 -0.7417  0.3369
  192POPC   O3122157   2.512   4.785   6.694  0.3040  0.7185 -0.4720
  192POPC   C3122158   2.603   4.796   6.788 -0.0238  0.4236  0.0448
  192POPC   O3222159   2.725   4.770   6.777  0.7936 -0.7366 -0.3416
  192POPC   C3222160   2.541   4.823   6.924  0.5193 -0.0419 -0.4800
  192POPC   H2X22161   2.460   4.751   6.947  0.8995 -0.3206  0.0095
  192POPC   H2Y22162   2.505   4.928   6.916 -1.1388 -0.5774 -0.2905
  192POPC   C2322163   2.200   4.483   6.667  0.6537 -0.5434  0.7470
  192POPC   H3R22164   2.090   4.464   6.670  0.4871 -0.4569 -1.9997
  192POPC   H3S22165   2.210   4.587   6.629 -2.0525 -0.7544 -0.8280
  192POPC   C2422166   2.260   4.474   6.805 -0.3206  0.2389 -0.1064
  192POPC   H4R22167   2.370   4.468   6.792 -0.6675 -1.3962 -3.4955
  192POPC   H4S22168   2.236   4.375   6.851  1.1232 -0.2860 -0.4246
  192POPC   C2522169   2.215   4.595   6.887 -0.3554 -0.2976  0.3780
  192POPC   H5R22170   2.108   4.613   6.862 -0.7398 -0.8115  1.5552
  192POPC   H5S22171   2.280   4.681   6.862  2.4707 -2.0378  1.2053
  192POPC   C2622172   2.225   4.572   7.039 -0.5644  0.5597 -0.0311
  192POPC   H6R22173   2.332   4.597   7.058  0.0994 -0.8082 -1.6566
  192POPC   H6S22174   2.205   4.466   7.066 -0.8630  0.2101 -1.5484
  192POPC   C2722175   2.134   4.656   7.122  0.6872 -0.8457 -0.0614
  192POPC   H7R22176   2.025   4.645   7.102  0.7082 -2.1177  0.4560
  192POPC   H7S22177   2.157   4.764   7.109  0.0524 -0.7773 -0.7459
  192POPC   C2822178   2.160   4.623   7.273 -0.0565 -0.3787 -0.2017
  192POPC   H8R22179   2.264   4.653   7.296 -0.3662  1.1661 -0.7277
  192POPC   H8S22180   2.151   4.513   7.287  2.0570 -0.4196  1.2843
  192POPC   C2922181   2.065   4.696   7.367 -0.2587  0.4097  0.5801
  192POPC   H9122182   1.961   4.708   7.333 -0.0390 -0.5358 -0.5013
  192POPC  C21022183   2.099   4.771   7.473 -0.1210  0.3941 -0.4833
  192POPC  H10122184   2.024   4.813   7.541 -2.5869 -1.1955 -2.0593
  192POPC  C21122185   2.246   4.782   7.515 -0.2863 -0.2391 -0.2945
  192POPC  H11R22186   2.303   4.830   7.433  2.3378 -0.7128  1.1273
  192POPC  H11S22187   2.296   4.683   7.516  0.5076  0.1398 -1.2196
  192POPC  C21222188   2.276   4.855   7.650 -0.2946 -0.0854  0.0427
  192POPC  H12R22189   2.205   4.941   7.648 -2.4385 -1.7715  0.6700
  192POPC  H12S22190   2.377   4.902   7.640  0.3388 -1.2731  0.6520
  192POPC  C21322191   2.258   4.778   7.778 -0.4408  0.8580 -0.6678
  192POPC  H13R22192   2.327   4.691   7.789 -1.4636  0.2202  1.2062
  192POPC  H13S22193   2.154   4.740   7.782 -0.9068  2.2001  1.6464
  192POPC  C21422194   2.285   4.866   7.903 -0.2157 -0.0448 -0.0977
  192POPC  H14R22195   2.380   4.919   7.881  0.6606 -1.8312 -0.8809
  192POPC  H14S22196   2.309   4.798   7.987  3.0783  0.0815 -0.8195
  192POPC  C21522197   2.188   4.984   7.930 -0.0312 -0.8438 -0.0931
  192POPC  H15R22198   2.084   4.944   7.927 -1.2119  2.0116 -1.3259
  192POPC  H15S22199   2.194   5.063   7.853 -1.1904 -0.0370  0.6079
  192POPC  C21622200   2.209   5.052   8.072  0.6549 -0.1701  0.1606
  192POPC  H16R22201   2.171   4.980   8.147 -1.7641  1.3374  0.4893
  192POPC  H16S22202   2.142   5.141   8.082  3.2564  1.9206  0.0839
  192POPC  C21722203   2.354   5.095   8.087 -0.4270  0.3744 -0.2886
  192POPC  H17R22204   2.376   5.148   7.992 -2.1864  1.1051 -0.3371
  192POPC  H17S22205   2.413   5.002   8.093 -2.2359 -0.9319 -1.7991
  192POPC  C21822206   2.377   5.166   8.220  0.1063  0.0930 -0.0393
  192POPC  H18R22207   2.346   5.103   8.306  0.1353  0.3106  0.1328
  192POPC  H18S22208   2.326   5.265   8.226  0.0356  0.0090  0.9263
  192POPC  H18T22209   2.486   5.187   8.216  0.4832 -1.9223 -2.6654
  192POPC   C3322210   2.645   4.822   7.044 -0.1040 -0.2634 -0.2128
  192POPC   H3X22211   2.726   4.896   7.030 -0.2434 -0.4604 -2.3594
  192POPC   H3Y22212   2.675   4.718   7.066 -1.2260 -0.5633 -0.0330
  192POPC   C3422213   2.570   4.860   7.177 -0.6490  0.3568  0.1037
  192POPC   H4X22214   2.487   4.787   7.191 -0.8267  0.4413 -0.4683
  192POPC   H4Y22215   2.529   4.963   7.182  0.6771  0.9317 -0.3127
  192POPC   C3522216   2.673   4.864   7.298  0.5534 -0.1320  0.5990
  192POPC   H5X22217   2.734   4.954   7.275 -2.8962  2.0957 -0.7387
  192POPC   H5Y22218   2.751   4.786   7.308 -0.3280 -0.9553  1.3436
  192POPC   C3622219   2.615   4.899   7.437  0.3555  0.3226 -0.4894
  192POPC   H6X22220   2.560   4.815   7.485 -1.0388  1.9292  0.8647
  192POPC   H6Y22221   2.542   4.982   7.425  0.3384  0.5509  0.9561
  192POPC   C3722222   2.722   4.928   7.536  0.1210 -0.0650  0.1121
  192POPC   H7X22223   2.788   5.011   7.503  0.4029 -0.1516  0.4544
  192POPC   H7Y22224   2.779   4.834   7.554  1.3715  0.9202  1.5275
  192POPC   C3822225   2.676   4.964   7.680  0.6778  0.8097  0.1910
  192POPC   H8X22226   2.621   4.873   7.711  1.4131  0.5227  0.6757
  192POPC   H8Y22227   2.602   5.047   7.685  1.1172  1.1386  3.1199
  192POPC   C3922228   2.788   4.994   7.778 -0.6511  1.0801  0.4918
  192POPC   H9X22229   2.848   5.074   7.728 -0.5165 -0.4232 -1.9266
  192POPC   H9Y22230   2.849   4.902   7.790  0.3649  1.3894 -1.7413
  192POPC  C31022231   2.742   5.047   7.913  0.1909 -0.0263 -0.5772
  192POPC  H10X22232   2.674   4.967   7.950  0.3267 -1.4536 -3.1839
  192POPC  H10Y22233   2.686   5.143   7.903 -0.0458 -0.3513 -2.6945
  192POPC  C31122234   2.862   5.066   8.014  0.0468 -0.1491  0.0597
  192POPC  H11X22235   2.918   5.155   7.980 -1.1086  0.2646 -0.8492
  192POPC  H11Y22236   2.922   4.972   8.018  0.6441  0.2700  1.1879
  192POPC  C31222237   2.821   5.103   8.160 -0.2925 -0.1214  0.8337
  192POPC  H12X22238   2.778   5.206   8.158  1.9636  0.8785 -0.3114
  192POPC  H12Y22239   2.915   5.113   8.219  0.4098  4.4042 -0.6315
  192POPC  C31322240   2.741   4.986   8.227 -0.0005  0.9701 -0.5382
  192POPC  H13X22241   2.802   4.894   8.223 -2.4346 -0.7260 -1.1754
  192POPC  H13Y22242   2.656   4.949   8.165 -0.3440 -0.7184  0.8515
  192POPC  C31422243   2.694   5.005   8.370  0.0443 -0.0683  0.4943
  192POPC  H14X22244   2.620   5.088   8.371 -2.3764 -2.0535 -0.7118
  192POPC  H14Y22245   2.782   5.031   8.432  0.9911 -0.7066 -0.5460
  192POPC  C31522246   2.630   4.880   8.438  0.1921  0.4993  0.1430
  192POPC  H15X22247   2.686   4.787   8.413 -2.6669 -0.9225 -1.4108
  192POPC  H15Y22248   2.539   4.884   8.375  0.5351 -0.4990 -0.4473
  192POPC  C31622249   2.602   4.893   8.583  0.5654 -0.0190 -0.6044
  192POPC  H16X22250   2.641   4.808   8.642  1.1728 -0.3677 -1.4869
  192POPC  H16Y22251   2.492   4.872   8.582  0.6166 -0.3008 -1.5945
  192POPC  H16Z22252   2.615   4.997   8.618 -0.2575 -0.4574  1.0842
  193SOD    SOD22253   5.140   2.060  16.573  0.4294  0.6679  0.3142
  194SOD    SOD22254   3.116   2.408  15.129 -0.2623 -0.0372  0.3616
  195SOD    SOD22255   0.239   2.160   4.899 -0.0253 -0.2432 -0.1007
  196SOD    SOD22256   6.061   2.859  13.539 -0.0888 -0.3964  0.0026
  197SOD    SOD22257   5.752   4.818   1.715  0.4903  0.5186 -0.5839
  198SOD    SOD22258   2.804   0.152  12.691 -0.6952  0.3198  0.0438
  199SOD    SOD22259   0.462   6.277   3.177  0.1468 -0.1885  0.0321
  200SOD    SOD22260   0.898   3.567  15.633  0.4179  0.3363 -0.4918
  201SOD    SOD22261   5.097   1.113  11.439  0.1169 -0.2430 -0.4180
  202SOD    SOD22262   6.648   3.807   2.532 -0.0094  0.3936 -0.0175
  203SOD    SOD22263   1.229   4.706  14.620  0.1742 -0.6431 -0.2073
  204SOD    SOD22264   6.198   2.336  14.573  0.4528 -0.1097 -0.1000
  205SOD    SOD22265   3.532   1.977   4.190  0.1830  0.1871  0.0760
  206SOD    SOD22266   6.646   2.560   3.164 -0.2285 -0.1315  0.1040
  207SOD    SOD22267   2.462   6.337  14.344  0.0253 -0.0947 -0.1489
  208SOD    SOD22268   1.118   1.808   0.135  0.2310  0.2042  0.0368
  209SOD    SOD22269   5.501   6.212  10.711 -0.0401 -0.4809 -0.5802
  210SOD    SOD22270   2.851   3.562   0.384 -0.0202  0.4758  0.3611
  211SOD    SOD22271   4.966   4.533  13.933  0.2562  0.1497  0.1477
  212SOD    SOD22272   5.998   0.196  14.704 -0.1332  0.1952  0.3590
  213SOD    SOD22273   1.284   1.769  15.251 -0.4121 -0.5186 -0.5824
  214SOD    SOD22274   2.224   1.088   2.601  0.6194  0.2696  0.7280
  215SOD    SOD22275   5.836   6.705  16.338 -0.5315  0.3621 -0.2144
  216SOD    SOD22276   6.269   0.232  11.409  0.3184  0.4625 -0.2982
  217SOD    SOD22277   0.349   6.414   1.019 -0.4522 -0.7082  0.1298
  218SOD    SOD22278   4.237   1.376  11.878  0.2177  0.2523 -0.6262
  219SOD    SOD22279   4.311   5.812  14.774  0.3127  0.1195 -0.1906
  220SOD    SOD22280   5.898   1.245  11.825 -0.3000 -0.3800  0.2071
  221SOD    SOD22281   3.814   1.288   2.680 -0.4294 -0.4258  0.6418
  222SOD    SOD22282   4.188   3.449  10.358 -0.4175  0.2085  0.0212
  223SOD    SOD22283   1.689   0.838  10.496 -0.6871  0.0074  0.6239
  224SOD    SOD22284   2.402   5.715   0.236 -0.4186 -0.0955  0.2384
  225SOD    SOD22285   0.108   6.073  11.560  0.2875 -0.4649 -0.0494
  226SOD    SOD22286   0.738   2.194  14.468 -0.0934  0.3369 -0.1461
  227SOD    SOD22287   2.566   4.202   4.017  0.2359 -0.2398 -0.3963
  228SOD    SOD22288   1.067   1.401  13.332 -0.0655  0.2286 -0.1840
  229SOD    SOD22289   4.434   3.726  13.185 -0.3153  0.2579  0.2693
  230SOD    SOD22290   4.275   4.682   5.967 -0.5258 -0.2951 -0.0445
  231SOD    SOD22291   0.980   6.662   0.370 -0.1428 -0.0668 -0.6737
  232SOD    SOD22292   5.746   0.508   3.791 -0.0480 -0.1021 -0.0666
  233SOD    SOD22293   5.973   4.807  16.830 -0.3436  0.0683  0.3584
  234SOD    SOD22294   6.341   5.866  12.677  0.2075  0.0547  0.1411
  235SOD    SOD22295   3.996   3.372   2.630 -0.0836  0.0994 -0.5477
  236SOD    SOD22296   0.736   3.451   5.456 -0.5059  0.2634 -0.1091
  237SOD    SOD22297   4.285   0.718   6.124 -0.5116  0.2860 -0.0794
  238SOD    SOD22298   3.309   4.749  16.869 -0.2212 -0.7713 -0.5690
  239SOD    SOD22299   3.111   0.799  12.229  0.6731  0.3103 -0.7906
  240SOD    SOD22300   0.889   6.108   3.364 -0.0778 -0.4464 -0.2120
  241SOD    SOD22301   1.634   2.353   5.320  0.3791 -0.0952  0.4484
  242SOD    SOD22302   4.626   4.109  15.337 -0.2157  0.1642 -0.5896
  243SOD    SOD22303   0.614   3.683   2.866 -0.3091 -0.1622 -0.3483
  244SOD    SOD22304   3.845   6.096   2.817  0.2249  0.1945  0.1516
  245SOD    SOD22305   5.745   4.212  10.429 -0.4991  0.1056 -0.4053
  246SOD    SOD22306   2.837   4.156  11.287  0.4351 -0.0444  0.1064
  247SOD    SOD22307   6.464   3.511   6.226  0.0079 -0.4706 -0.8267
  248SOD    SOD22308   2.868   1.363  13.376 -0.0892 -0.0169 -0.7341
  249SOD    SOD22309   3.454   5.980  10.570 -0.4186 -0.0546  0.0632
  250SOD    SOD22310   3.495   0.296   6.731  0.0598  0.4409 -0.0685
  251SOD    SOD22311   4.540   4.714  11.522 -0.1222 -0.3625 -0.2057
  252SOD    SOD22312   3.812   2.756  11.349 -0.3110  0.0412  0.0830
  253SOD    SOD22313   6.689   4.181  13.951  0.2065 -0.1242 -0.0144
  254SOD    SOD22314   6.682   6.534   6.190  0.1757 -0.2104  0.1035
  255SOD    SOD22315   4.912   2.356   5.561  0.1107  0.0367  0.1374
  256SOD    SOD22316   6.075   4.895  15.933 -0.5549  0.1284 -0.0924
  257SOD    SOD22317   5.433   1.564   5.042 -0.3218  0.4289 -0.1195
  258SOD    SOD22318   4.098   4.752  15.248  1.0407  0.5513  0.2580
  259SOD    SOD22319   1.711   6.186   4.404  0.2029 -0.0404  0.1116
  260SOD    SOD22320   6.239   0.423  15.745  0.2548  0.2584  0.5356
  261SOD    SOD22321   2.526   3.585   4.520  0.0834  0.8504 -0.1412
  262SOD    SOD22322   3.192   6.684   5.127 -0.0558  0.2163  0.2119
  263SOD    SOD22323   1.271   4.738   2.479 -0.1296 -0.1225  0.2965
  264SOD    SOD22324   6.185   6.406   1.214  0.1317 -0.0836  0.1158
  265SOD    SOD22325   6.522   1.729   4.885  0.2283 -0.1137 -0.3767
  266SOD    SOD22326   3.543   4.943   0.911  0.0622 -0.6363 -0.0904
  267SOD    SOD22327   5.278   1.336   5.614  0.3150  0.4800  0.3360
  268SOD    SOD22328   3.553   1.865   4.737  0.2127  0.1699  0.5070
  269SOD    SOD22329   1.591   5.303  13.901 -0.0865 -0.3515 -0.3984
  270CLA    CLA22330   2.441   4.122  16.940 -0.1506  0.1572 -0.4699
  271CLA    CLA22331   6.630   1.354  14.169 -0.2893  0.2076  0.5224
  272CLA    CLA22332   0.091   6.025  17.047  0.2441 -0.1462  0.2300
  273CLA    CLA22333   0.439   2.475  11.775  0.1807  0.0674 -0.0709
  274CLA    CLA22334   2.985   6.625  12.326  0.1697 -0.1240 -0.1526
  275CLA    CLA22335   5.285   4.964  15.807 -0.2187 -0.1489  0.3205
  276CLA    CLA22336   2.784   2.137  14.882 -0.0870  0.3611  0.2973
  277CLA    CLA22337   1.971   6.399   4.921  0.1834 -0.0870  0.0130
  278CLA    CLA22338   3.102   5.177  16.385 -0.5816 -0.3364  0.0186
  279CLA    CLA22339   6.574   0.579   1.222  0.1328 -0.0925  0.1436
  280CLA    CLA22340   4.302   6.575   2.435  0.4462  0.1112  0.2269
  281CLA    CLA22341   4.368   3.641   0.458  0.1706  0.0482  0.2892
  282CLA    CLA22342   1.857   5.767  11.965  0.0478 -0.0581  0.2950
  283CLA    CLA22343   5.941   4.974  11.783 -0.2071  0.1929  0.5080
  284CLA    CLA22344   5.546   4.018  16.851 -0.3682 -0.1387 -0.1812
  285CLA    CLA22345   0.318   4.685  16.920  0.2507  0.0088  0.0928
  286CLA    CLA22346   4.692   1.460  14.101 -0.0323 -0.2651 -0.0769
  287CLA    CLA22347   1.956   5.212   3.892 -0.4521  0.3387 -0.1121
  288CLA    CLA22348   5.693   5.240  16.438  0.0815  0.2988 -0.1168
  289CLA    CLA22349   5.792   1.673   4.797  0.0787 -0.0619  0.3728
  290CLA    CLA22350   3.924   0.991   6.020  0.6089 -0.1987  0.1950
  291CLA    CLA22351   6.507   2.130  14.820 -0.2367  0.2898  0.0038
  292CLA    CLA22352   6.157   4.013   2.572  0.0319  1.0283  0.1203
  293CLA    CLA22353   0.591   0.343   2.620  0.2747 -0.1545  0.1854
  294CLA    CLA22354   5.523   6.795  12.278  0.0718  0.0636 -0.3614
  295CLA    CLA22355   0.592   6.148   2.972  0.0215  0.0210  0.3574
  296CLA    CLA22356   5.239   0.383   0.230  0.3915 -0.2595 -0.0455
  297CLA    CLA22357   0.298   3.144   5.212 -0.0553 -0.1619  0.1011
  298CLA    CLA22358   4.055   4.358  15.145  0.2591 -0.2354  0.0941
  299CLA    CLA22359   5.872   0.188   3.374  0.3706  0.0206 -0.8223
  300CLA    CLA22360   5.904   5.662  14.827  0.0644 -0.4530  0.2687
  301CLA    CLA22361   5.877   0.099   4.366  0.1885 -0.0431  0.2232
  302CLA    CLA22362   1.959   2.430  15.660 -0.1116 -0.4470  0.1230
  303CLA    CLA22363   2.396   1.649   3.018 -0.3837 -0.0953  0.2276
  304CLA    CLA22364   3.332   4.530   3.484 -0.4021  0.7083  0.2481
  305CLA    CLA22365   4.636   2.018  16.169 -0.0973  0.3572 -0.2485
  306CLA    CLA22366   0.830   2.549  11.239 -0.0748  0.1183  0.2411
  307CLA    CLA22367   5.094   5.243   2.040 -0.0748 -0.6108  0.3863
  308CLA    CLA22368   2.195   0.990  14.021  0.1574 -0.3850  0.0268
  309CLA    CLA22369   2.161   4.584  14.117 -0.3263  0.1819  0.2242
  310CLA    CLA22370   3.840   4.942  15.898 -0.0340  0.1858 -0.1829
  311CLA    CLA22371   0.247   1.226   2.572  0.5101  0.1027  0.2489
  312CLA    CLA22372   4.826   1.854   4.425 -0.1570  0.1929 -0.1177
  313CLA    CLA22373   1.547   4.006   3.481  0.4973 -0.2726 -0.1293
  314CLA    CLA22374   1.874   3.084   1.168 -0.0206 -0.0310 -0.2755
  315CLA    CLA22375   2.397   1.302  12.490 -0.0682  0.1763 -0.0192
  316CLA    CLA22376   1.535   0.413   1.645  0.1056 -0.2403  0.2001
  317CLA    CLA22377   5.564   1.232  12.207 -0.1028 -0.0020 -0.0192
  318CLA    CLA22378   0.382   1.338   0.592  0.1517 -0.1380  0.1571
  319CLA    CLA22379   4.097   3.222  13.865 -0.2503  0.0643  0.0092
  320CLA    CLA22380   2.839   1.961   0.895  0.2265  0.3807 -0.1396
  321CLA    CLA22381   4.028   1.501   4.558  0.2344 -0.1165 -0.0293
  322CLA    CLA22382   4.803   5.266   5.489 -0.1901  0.2351  0.1844
  323TIP3   OH222383   6.723   0.783  10.771  0.5628  0.0874 -0.3760
  323TIP3    H122384   6.729   0.875  10.746  0.9026  0.3071  0.4822
  323TIP3    H222385   6.797   0.769  10.831 -2.1375  0.5554  3.4027
  324TIP3   OH222386   5.664   5.504   0.997 -0.0673  0.5220 -0.6186
  324TIP3    H122387   5.672   5.600   0.994 -1.1538  0.6603  0.0837
  324TIP3    H222388   5.573   5.487   0.975  0.1278 -0.3689 -0.7859
  325TIP3   OH222389   1.235   3.195  11.276  0.0825  0.2058 -0.1788
  325TIP3    H122390   1.161   3.257  11.281  0.7132  0.8696  3.3218
  325TIP3    H222391   1.304   3.245  11.233 -1.3158 -0.3675 -3.3518
  326TIP3   OH222392   1.221   5.691  14.801 -0.0958  0.4089  0.1597
  326TIP3    H122393   1.262   5.739  14.873 -0.6573  1.9646 -0.5155
  326TIP3    H222394   1.243   5.741  14.722 -0.7112 -0.4397 -0.5756
  327TIP3   OH222395   1.332   2.725   4.723  0.4616 -0.2934  0.3078
  327TIP3    H122396   1.399   2.761   4.665 -0.8064  1.2108 -0.3111
  327TIP3    H222397   1.358   2.753   4.810  1.6285 -1.3585  0.3265
  328TIP3   OH222398   0.864   2.137  15.252  0.1198 -0.0628 -0.2863
  328TIP3    H122399   0.958   2.127  15.267  0.6034  2.2512 -1.2612
  328TIP3    H222400   0.831   2.176  15.333  0.0790 -0.4521 -0.1137
  329TIP3   OH222401   5.323   6.284  10.853 -0.6461  0.2072  0.4935
  329TIP3    H122402   5.264   6.352  10.821 -0.1377 -0.0064 -0.9643
  329TIP3    H222403   5.267   6.208  10.865 -1.0844  0.6581  1.4233
  330TIP3   OH222404   3.394   6.612   1.272  0.0171  0.0135  0.2435
  330TIP3    H122405   3.443   6.638   1.350 -1.1524 -0.2527  1.0864
  330TIP3    H222406   3.348   6.532   1.298 -1.5584  0.7210 -0.2309
  331TIP3   OH222407   5.313   5.257  14.136 -0.0158 -0.0877  0.5744
  331TIP3    H122408   5.344   5.249  14.046 -2.0807  0.2860 -0.2226
  331TIP3    H222409   5.339   5.175  14.178  1.2611 -0.1316 -0.2571
  332TIP3   OH222410   3.206   5.259   4.042  0.2923  0.0647  0.2242
  332TIP3    H122411   3.199   5.336   4.098  1.7839 -0.9141  1.8460
  332TIP3    H222412   3.301   5.243   4.036 -0.0133 -2.3986  1.0400
  333TIP3   OH222413   4.135   5.346  10.571 -0.3775  0.4917  0.1837
  333TIP3    H122414   4.178   5.378  10.492  2.0438 -1.8231  0.4292
  333TIP3    H222415   4.206   5.331  10.633 -1.7504 -1.3645  1.4325
  334TIP3   OH222416   3.195   0.086   4.541 -0.7069  0.2657  0.0072
  334TIP3    H122417   3.288   0.067   4.545 -0.9660 -0.9208  1.1037
  334TIP3    H222418   3.190   0.182   4.546  0.4492  0.3372 -0.0010
  335TIP3   OH222419   2.991   5.170  11.029  0.2383  0.1881  0.2694
  335TIP3    H122420   3.016   5.081  11.051  0.5400  0.2182  0.0530
  335TIP3    H222421   3.008   5.221  11.108  0.2647  0.0913  0.3258
  336TIP3   OH222422   2.511   0.228  12.993  0.6224 -0.4095 -0.1591
  336TIP3    H122423   2.579   0.260  13.053 -0.3640  0.8732  0.3356
  336TIP3    H222424   2.429   0.259  13.031 -0.2344 -1.7483 -0.8549
  337TIP3   OH222425   5.924   6.690  11.077  0.3122 -0.4029  0.0456
  337TIP3    H122426   5.966   6.766  11.037  1.1897  0.2997  2.1049
  337TIP3    H222427   5.872   6.650  11.008 -0.2938  2.1683 -1.0558
  338TIP3   OH222428   1.202   4.299   2.235 -0.1201  0.3462 -0.3720
  338TIP3    H122429   1.185   4.325   2.144  0.5162  0.4446 -0.4676
  338TIP3    H222430   1.117   4.268   2.267 -0.4687  0.8056 -0.8348
  339TIP3   OH222431   3.739   6.295  15.094 -0.3226  0.2386 -0.5948
  339TIP3    H122432   3.780   6.356  15.032 -1.2659  1.0901 -0.4020
  339TIP3    H222433   3.728   6.346  15.174 -0.3144 -0.4576 -0.1456
  340TIP3   OH222434   3.930   1.020  13.443  0.0785 -0.5281  0.3323
  340TIP3    H122435   3.851   0.966  13.451 -0.6081  0.4621  0.5287
  340TIP3    H222436   3.959   1.007  13.353 -0.9541 -0.0799 -0.0841
  341TIP3   OH222437   1.414   3.801   5.143  0.1483 -0.3273 -0.5815
  341TIP3    H122438   1.445   3.887   5.115 -1.7183  0.7492  0.4968
  341TIP3    H222439   1.413   3.805   5.239 -0.4419 -1.3742 -0.5263
  342TIP3   OH222440   3.763   4.887   2.168  0.6040 -0.1769  0.2272
  342TIP3    H122441   3.859   4.890   2.167  0.5846  1.6146  0.7707
  342TIP3    H222442   3.736   4.979   2.166 -1.1020 -0.6248  0.9213
  343TIP3   OH222443   2.244   6.740   2.965  0.2434  0.1350 -0.2969
  343TIP3    H122444   2.150   6.757   2.960  0.1740 -0.0785  0.2598
  343TIP3    H222445   2.252   6.645   2.967  0.4792  0.1498 -0.4563
  344TIP3   OH222446   0.277   1.859  11.791  0.4015  0.0077  0.6538
  344TIP3    H122447   0.226   1.929  11.752 -0.3784 -1.8378 -1.8873
  344TIP3    H222448   0.224   1.827  11.864 -0.1526  0.7174  0.5664
  345TIP3   OH222449   1.591   1.782  13.504 -0.0511  0.2706  0.3548
  345TIP3    H122450   1.575   1.688  13.496 -1.3538  0.5749 -1.1617
  345TIP3    H222451   1.649   1.803  13.431  0.2071  0.6445  0.6651
  346TIP3   OH222452   4.849   3.805  12.110  0.1261  0.0128 -0.3211
  346TIP3    H122453   4.758   3.836  12.110 -0.2000 -0.6823 -3.1978
  346TIP3    H222454   4.861   3.768  12.198 -1.7625  1.6856  0.7459
  347TIP3   OH222455   2.920   5.351   2.054 -0.0342  0.0464 -0.0679
  347TIP3    H122456   2.897   5.399   2.133  0.8902  1.9917 -0.9092
  347TIP3    H222457   3.014   5.368   2.042  0.1583 -1.3676 -0.8383
  348TIP3   OH222458   4.316   1.605   4.466  0.2300  0.7082  0.0321
  348TIP3    H122459   4.244   1.577   4.523 -0.7417  2.0781 -0.4751
  348TIP3    H222460   4.299   1.560   4.383  2.2413 -2.1521  1.0119
  349TIP3   OH222461   2.624   6.516   0.919 -0.3825 -0.0329  0.6385
  349TIP3    H122462   2.589   6.604   0.901  0.0864 -0.0803 -0.5969
  349TIP3    H222463   2.719   6.527   0.916 -0.2797 -0.2648  2.1972
  350TIP3   OH222464   3.090   6.304  14.603  0.5066  0.5380 -0.2984
  350TIP3    H122465   3.077   6.299  14.698  1.0913 -2.2980 -0.2769
  350TIP3    H222466   3.152   6.375  14.591 -0.5681  1.8208  1.2829
  351TIP3   OH222467   5.938   5.797  12.291 -0.0192 -0.1015 -0.5851
  351TIP3    H122468   6.010   5.758  12.242 -1.1419 -1.8010 -0.9591
  351TIP3    H222469   5.980   5.846  12.362  1.5013 -0.7781 -0.9984
  352TIP3   OH222470   0.251   3.565  16.040 -0.6023  0.0581 -0.5361
  352TIP3    H122471   0.230   3.494  16.101 -0.7836  1.5717  1.2451
  352TIP3    H222472   0.293   3.632  16.095  1.0192  0.6941 -2.4476
  353TIP3   OH222473   2.452   1.979   1.738 -0.7933  0.1508  0.1924
  353TIP3    H122474   2.475   1.901   1.790 -1.6918 -0.0361  0.3305
  353TIP3    H222475   2.476   2.053   1.794 -2.5040 -0.0393  1.2900
  354TIP3   OH222476   5.287   4.068   2.333 -0.0236 -0.0160  0.3423
  354TIP3    H122477   5.308   4.160   2.317 -2.9186  0.5349 -0.9407
  354TIP3    H222478   5.337   4.020   2.267  1.3313  0.6090  0.8783
  355TIP3   OH222479   3.384   6.665  13.861  0.4990  0.0896  0.0629
  355TIP3    H122480   3.453   6.662  13.927 -0.6712 -2.0376  1.3226
  355TIP3    H222481   3.351   6.755  13.865  1.9676  0.6310  0.7408
  356TIP3   OH222482   0.602   1.560   4.016 -0.2265  0.2898  0.1906
  356TIP3    H122483   0.665   1.599   3.954  0.5542 -1.0759  0.0827
  356TIP3    H222484   0.585   1.629   4.079  3.8294 -0.1100  2.0770
  357TIP3   OH222485   1.167   4.636  16.157  0.0766 -0.0563 -0.3405
  357TIP3    H122486   1.144   4.616  16.248  0.7058 -1.6349 -0.4913
  357TIP3    H222487   1.101   4.698  16.128 -0.5442 -0.0738  0.9836
  358TIP3   OH222488   6.529   1.868   6.397  1.0914  0.0999  0.1252
  358TIP3    H122489   6.547   1.953   6.356  0.8672  1.1642  2.1101
  358TIP3    H222490   6.477   1.889   6.474  0.7430 -1.9003  0.4964
  359TIP3   OH222491   5.752   4.983   0.936  0.2597 -0.1624  0.3464
  359TIP3    H122492   5.689   4.912   0.950  1.3453 -1.2119  0.0851
  359TIP3    H222493   5.822   4.966   0.999  0.6992  0.4939  0.0534
  360TIP3   OH222494   2.763   5.692   3.816  0.1947  0.0128  0.3371
  360TIP3    H122495   2.781   5.784   3.833 -1.7163  0.8352 -1.6063
  360TIP3    H222496   2.712   5.663   3.891 -2.6543  1.7564 -0.7537
  361TIP3   OH222497   1.855   1.391   0.878 -0.2635 -0.1172  0.7251
  361TIP3    H122498   1.946   1.401   0.906 -0.2419 -0.2437  0.6991
  361TIP3    H222499   1.804   1.435   0.947 -0.1232  0.9327  0.1910
  362TIP3   OH222500   5.691   6.640  12.080 -0.4011 -0.1580  0.4477
  362TIP3    H122501   5.633   6.691  12.136 -1.5964 -0.8929 -0.0635
  362TIP3    H222502   5.690   6.552  12.119 -0.7742 -0.5250 -0.3602
  363TIP3   OH222503   3.436   6.643  16.468  0.5313  0.0422  0.5095
  363TIP3    H122504   3.389   6.640  16.385 -0.0870 -1.1738  0.8845
  363TIP3    H222505   3.527   6.660  16.443  0.2573  0.2649 -0.3721
  364TIP3   OH222506   3.785   3.099   4.718  0.2194 -0.2315  0.3511
  364TIP3    H122507   3.853   3.033   4.706  0.1985 -0.3163  0.7025
  364TIP3    H222508   3.802   3.135   4.805  0.8439  0.9239 -0.2161
  365TIP3   OH222509   3.511   5.091  15.098 -0.0561  0.3504 -0.1491
  365TIP3    H122510   3.549   5.137  15.024  0.0217  1.2813  0.4553
  365TIP3    H222511   3.585   5.076  15.158 -0.0274 -0.7982 -0.4401
  366TIP3   OH222512   3.777   5.034  16.609 -0.1751  0.2383  0.4715
  366TIP3    H122513   3.856   5.088  16.612 -0.5199  0.8196 -0.2156
  366TIP3    H222514   3.764   5.017  16.515 -0.3927 -0.5698  0.6422
  367TIP3   OH222515   4.042   5.862  13.068 -0.3414  0.2364  0.0602
  367TIP3    H122516   4.121   5.872  13.015 -0.4154 -1.1838 -0.3537
  367TIP3    H222517   3.983   5.812  13.013 -1.8093  1.8108  0.1058
  368TIP3   OH222518   1.323   4.296  14.291  0.2606  0.2462 -0.4723
  368TIP3    H122519   1.415   4.277  14.310 -0.4909 -3.3078  0.3077
  368TIP3    H222520   1.282   4.304  14.377 -0.4039  0.4804 -0.8040
  369TIP3   OH222521   1.611   2.901   1.279  0.3190 -0.0691 -0.2071
  369TIP3    H122522   1.542   2.940   1.333 -0.4180 -1.0671 -0.3892
  369TIP3    H222523   1.679   2.968   1.276 -0.7911  1.1060 -0.3300
  370TIP3   OH222524   1.248   3.266   1.945 -0.0760  0.2887  0.5214
  370TIP3    H122525   1.170   3.266   2.000 -0.0176  3.7815  0.8735
  370TIP3    H222526   1.304   3.334   1.984  2.2725 -0.7255 -0.8869
  371TIP3   OH222527   3.710   4.895  16.355 -0.6374 -0.0454 -0.2491
  371TIP3    H122528   3.764   4.818  16.334  0.9260 -0.1430  3.3958
  371TIP3    H222529   3.737   4.961  16.291  0.2843 -1.5876 -1.5220
  372TIP3   OH222530   1.243   6.543   2.878 -0.5267 -0.0896 -0.0013
  372TIP3    H122531   1.207   6.501   2.956 -1.2466 -1.4542 -1.0394
  372TIP3    H222532   1.180   6.612   2.856  0.0016  0.7331  0.9504
  373TIP3   OH222533   3.554   6.381   1.036  0.0956 -0.1028  0.3475
  373TIP3    H122534   3.597   6.455   0.993 -0.1236  0.1443  0.5506
  373TIP3    H222535   3.461   6.393   1.018 -0.2215  1.0491  2.4507
  374TIP3   OH222536   2.400   2.634  15.363  0.1865  0.2563  0.6271
  374TIP3    H122537   2.344   2.603  15.434 -0.2116 -3.8960 -1.2326
  374TIP3    H222538   2.364   2.719  15.339 -2.2171 -0.0712  2.6646
  375TIP3   OH222539   2.682   4.969  13.952  0.0031  0.2681 -0.1295
  375TIP3    H122540   2.606   4.931  13.995  0.2019 -2.7916 -2.1544
  375TIP3    H222541   2.646   5.023  13.881 -0.3284 -0.4430 -0.5134
  376TIP3   OH222542   3.718   6.619  13.859  0.0892  0.3164 -0.2608
  376TIP3    H122543   3.776   6.655  13.792  0.8821  1.8362  1.1552
  376TIP3    H222544   3.661   6.558  13.812  3.9435 -2.7011 -1.4654
  377TIP3   OH222545   6.189   4.443  11.756  0.3314  1.2626 -0.0497
  377TIP3    H122546   6.280   4.448  11.784  0.5694  0.6335 -0.7064
  377TIP3    H222547   6.142   4.500  11.818  0.8674  0.0827  1.5028
  378TIP3   OH222548   4.824   4.576   2.519  0.6711 -0.0575 -0.6654
  378TIP3    H122549   4.785   4.659   2.547  0.4691 -0.4962  0.4240
  378TIP3    H222550   4.847   4.532   2.601  1.1035 -0.9226 -1.2386
  379TIP3   OH222551   1.001   5.581   5.389  0.0375  0.2113 -0.1670
  379TIP3    H122552   0.951   5.649   5.343 -1.4143 -0.1734  0.7780
  379TIP3    H222553   0.938   5.512   5.406  1.2248 -0.8995 -0.0947
  380TIP3   OH222554   6.712   0.867  14.395  0.4535 -0.5065 -0.1583
  380TIP3    H122555   6.766   0.931  14.443 -0.6199 -0.0617  0.5059
  380TIP3    H222556   6.622   0.887  14.422 -0.0935 -0.9370 -1.5777
  381TIP3   OH222557   3.014   6.253  14.255  0.9741 -0.5654  0.0165
  381TIP3    H122558   3.033   6.344  14.234 -0.3557  0.0494  1.3195
  381TIP3    H222559   3.084   6.227  14.316  1.1804 -0.3256 -0.1154
  382TIP3   OH222560   5.516   1.468  13.470 -0.4730  0.0142 -0.4040
  382TIP3    H122561   5.611   1.482  13.460 -0.4187  1.1274  1.2079
  382TIP3    H222562   5.495   1.511  13.553 -2.7696  1.5598 -1.6878
  383TIP3   OH222563   5.973   4.445   5.755  0.2049  0.3231  0.4155
  383TIP3    H122564   6.038   4.381   5.728 -1.2227 -1.0116  0.0076
  383TIP3    H222565   5.917   4.456   5.678  0.0979  1.6729  0.6574
  384TIP3   OH222566   0.419   5.362  10.373  0.2240 -0.2715 -0.3875
  384TIP3    H122567   0.492   5.417  10.401 -0.4853  1.1729 -1.3182
  384TIP3    H222568   0.457   5.303  10.308  0.4243  0.9383 -1.3870
  385TIP3   OH222569   3.880   1.963   4.100  0.0966 -0.4683 -0.5059
  385TIP3    H122570   3.847   1.947   4.188 -0.4103  0.4446 -0.5195
  385TIP3    H222571   3.811   1.931   4.042 -1.3186  2.3008 -0.5359
  386TIP3   OH222572   3.464   6.365   4.023  0.4011  0.6505  0.0231
  386TIP3    H122573   3.481   6.271   4.018  0.3834  0.7016 -1.2726
  386TIP3    H222574   3.547   6.406   3.998  0.0126  0.9610 -0.7703
  387TIP3   OH222575   0.077   1.529  14.576 -0.4165 -0.1490  0.0925
  387TIP3    H122576   0.008   1.503  14.515 -1.4592 -2.2458  2.0495
  387TIP3    H222577   0.032   1.541  14.660  1.6508 -2.4156  1.6337
  388TIP3   OH222578   2.813   4.035  12.540 -0.0886 -0.0444  0.7993
  388TIP3    H122579   2.825   4.121  12.498 -0.5195 -0.7578 -0.8636
  388TIP3    H222580   2.732   4.043  12.589 -0.4532  0.3314  0.1520
  389TIP3   OH222581   2.810   3.066  15.052 -0.0033  0.1220 -0.0975
  389TIP3    H122582   2.741   3.035  15.110  0.9832  0.6616  1.4403
  389TIP3    H222583   2.847   3.142  15.097  0.3575  1.0192 -1.7918
  390TIP3   OH222584   5.016   1.966   5.289  0.2759 -0.6342  0.3184
  390TIP3    H122585   5.080   1.899   5.313  0.7913 -0.8596 -1.5066
  390TIP3    H222586   5.064   2.025   5.231 -0.6702  0.2816  0.4370
  391TIP3   OH222587   4.860   4.678  14.112 -0.1063 -0.8822  0.1931
  391TIP3    H122588   4.773   4.643  14.133  0.0939 -1.0374  0.7838
  391TIP3    H222589   4.880   4.736  14.185 -1.4922  2.5413 -1.8771
  392TIP3   OH222590   6.316   2.936  11.666 -0.1743  0.3363 -0.2070
  392TIP3    H122591   6.268   2.879  11.605 -0.4342 -0.8700  1.0772
  392TIP3    H222592   6.335   3.015  11.614 -0.7209 -0.4738 -1.7216
  393TIP3   OH222593   1.052   2.269  16.078  0.0526  0.3480  0.4641
  393TIP3    H122594   1.046   2.177  16.105  0.4099  0.3370  0.5199
  393TIP3    H222595   1.045   2.266  15.983 -1.9963  0.4622  0.5845
  394TIP3   OH222596   1.951   6.051  14.006  0.3057  0.5826 -0.3864
  394TIP3    H122597   1.901   6.053  14.088  0.2735  0.0667 -0.3914
  394TIP3    H222598   2.039   6.078  14.032  0.2382  0.6545 -0.2248
  395TIP3   OH222599   6.418   4.934   3.815 -0.3983  0.3051  0.3436
  395TIP3    H122600   6.467   4.857   3.845  2.1136  2.0746  1.1628
  395TIP3    H222601   6.369   4.961   3.892 -0.6379 -0.0080  0.3025
  396TIP3   OH222602   0.642   3.738   0.096  0.0653  0.2516 -0.7611
  396TIP3    H122603   0.723   3.772   0.134 -0.1904  0.9838 -0.8527
  396TIP3    H222604   0.624   3.796   0.022 -1.0219  0.6629 -0.1979
  397TIP3   OH222605   4.603   1.700  16.112 -0.5177  0.0668 -0.0078
  397TIP3    H122606   4.584   1.681  16.020 -2.7123  1.0475  0.1735
  397TIP3    H222607   4.609   1.795  16.116 -0.3502  0.0238  0.8414
  398TIP3   OH222608   3.905   4.000  14.111 -0.6128  0.1037 -0.2294
  398TIP3    H122609   3.928   3.931  14.049 -1.0358 -1.7589  1.5879
  398TIP3    H222610   3.988   4.046  14.127 -0.5108  0.7059 -2.1775
  399TIP3   OH222611   5.660   3.191   1.286 -0.2172  0.5164  0.2401
  399TIP3    H122612   5.568   3.214   1.290 -0.7408 -1.3869  0.2902
  399TIP3    H222613   5.668   3.138   1.206  0.9047  0.9539  0.0440
  400TIP3   OH222614   5.859   6.074  15.992  0.5321 -0.2234 -0.3037
  400TIP3    H122615   5.846   5.983  16.016  2.1864  0.2736  3.1612
  400TIP3    H222616   5.954   6.088  16.002  0.4998  1.5968 -1.9575
  401TIP3   OH222617   2.076   4.947  15.039  0.5705 -0.3539  0.0311
  401TIP3    H122618   2.143   4.970  15.104  2.7527 -4.8192 -0.2926
  401TIP3    H222619   1.998   4.929  15.091  0.8582  0.6887  0.8686
  402TIP3   OH222620   6.393   4.855  16.630 -0.0022  0.2343  0.0018
  402TIP3    H122621   6.474   4.874  16.677  0.5002 -0.1563 -0.6832
  402TIP3    H222622   6.329   4.915  16.667  1.0328  1.8186 -0.6756
  403TIP3   OH222623   4.184   6.188  14.815 -1.0236  0.5368  0.0819
  403TIP3    H122624   4.218   6.268  14.776 -1.4617 -0.5324 -2.7581
  403TIP3    H222625   4.252   6.123  14.798 -1.4659 -0.0887  0.6497
  404TIP3   OH222626   1.131   0.522   3.206  0.0028 -0.0060 -0.4807
  404TIP3    H122627   1.188   0.592   3.172 -0.4958  0.8329  0.3780
  404TIP3    H222628   1.044   0.545   3.174  0.1476 -1.4724 -2.0749
  405TIP3   OH222629   2.941   1.661   6.760 -0.3165  0.0134 -0.1942
  405TIP3    H122630   3.013   1.598   6.752 -0.8166 -0.7003  0.7023
  405TIP3    H222631   2.872   1.626   6.704  0.0214  0.6976 -1.0540
  406TIP3   OH222632   0.509   5.662  14.230  0.0456  0.6814  0.3060
  406TIP3    H122633   0.547   5.724  14.169 -0.4582 -0.7092 -1.4965
  406TIP3    H222634   0.584   5.617  14.269  0.3653 -0.2059 -1.2531
  407TIP3   OH222635   2.985   5.267   5.063  0.0419 -0.5989 -0.1395
  407TIP3    H122636   2.904   5.275   5.012 -1.2338 -1.7874  1.6270
  407TIP3    H222637   2.982   5.341   5.123  1.7522  1.0433 -1.9131
  408TIP3   OH222638   0.942   5.060   0.298  0.0958 -0.3222 -0.1594
  408TIP3    H122639   0.905   5.146   0.276  0.7768  0.4447  1.5305
  408TIP3    H222640   1.034   5.067   0.274  0.1678 -0.5588  0.0430
  409TIP3   OH222641   3.803   6.282   4.869  0.1231 -0.1842  0.0601
  409TIP3    H122642   3.807   6.226   4.947  0.3888 -0.4596 -0.1490
  409TIP3    H222643   3.895   6.302   4.849  0.0740 -0.3916 -0.3826
  410TIP3   OH222644   3.556   2.196  12.321  0.3381 -0.2781 -0.6624
  410TIP3    H122645   3.531   2.157  12.238 -0.9814 -0.1570 -0.3434
  410TIP3    H222646   3.512   2.280  12.323  0.3097 -0.3025  0.1797
  411TIP3   OH222647   0.168   0.982  12.817  0.2689 -0.2952  0.2330
  411TIP3    H122648   0.111   0.920  12.863  1.1329 -0.8035  0.6334
  411TIP3    H222649   0.230   0.927  12.770  2.3959  0.1998  2.2689
  412TIP3   OH222650   1.875   0.724  12.286  0.0616  0.0738 -0.3970
  412TIP3    H122651   1.920   0.804  12.259 -0.8390  0.5845 -0.4250
  412TIP3    H222652   1.788   0.753  12.311  0.6269 -0.4667  2.4971
  413TIP3   OH222653   3.679   0.179  14.593  0.0961  0.6763  0.0369
  413TIP3    H122654   3.744   0.192  14.662 -0.0085  0.8818  0.0989
  413TIP3    H222655   3.719   0.116  14.533 -1.0708 -2.1382  1.9592
  414TIP3   OH222656   6.221   3.766   1.874 -0.1465 -0.1006 -0.2229
  414TIP3    H122657   6.300   3.793   1.828  0.7903 -0.0310  1.3481
  414TIP3    H222658   6.151   3.775   1.809  1.0561  0.2505 -1.5198
  415TIP3   OH222659   2.479   1.326  15.834  0.7459 -0.0488  0.0464
  415TIP3    H122660   2.490   1.267  15.908 -3.4582  0.6730  1.5010
  415TIP3    H222661   2.422   1.279  15.773 -0.8939  1.5490  0.2333
  416TIP3   OH222662   0.594   6.652   5.454  0.5250 -0.5781  0.3843
  416TIP3    H122663   0.576   6.560   5.435  1.6488 -0.8263  0.4389
  416TIP3    H222664   0.689   6.657   5.461  0.4845  0.6056  0.3348
  417TIP3   OH222665   0.332   0.244   1.218  0.2980  0.1491  0.4134
  417TIP3    H122666   0.404   0.302   1.242 -0.7641  1.3969  0.7043
  417TIP3    H222667   0.306   0.273   1.131  0.7797 -0.9705 -0.1259
  418TIP3   OH222668   4.812   6.720   1.101 -0.1234  0.4395  0.2180
  418TIP3    H122669   4.731   6.724   1.152 -1.3075  0.6994 -1.5951
  418TIP3    H222670   4.855   6.639   1.130 -0.2376  1.0749  2.2983
  419TIP3   OH222671   1.276   3.761  13.876 -0.3049 -0.0681  0.5128
  419TIP3    H122672   1.254   3.688  13.934 -0.6728 -0.4308 -0.0706
  419TIP3    H222673   1.239   3.736  13.791  1.1012 -0.0212 -0.1501
  420TIP3   OH222674   1.190   5.714   0.539  0.3668 -0.0201 -0.0363
  420TIP3    H122675   1.196   5.673   0.453 -0.2377 -0.2311  0.0248
  420TIP3    H222676   1.099   5.702   0.566  0.3361  0.8019  0.2539
  421TIP3   OH222677   2.531   5.528  14.467 -0.4226  0.7626 -0.1057
  421TIP3    H122678   2.488   5.590  14.408 -0.9442  0.7345  0.2362
  421TIP3    H222679   2.606   5.495  14.417 -1.4155  0.0001 -1.1319
  422TIP3   OH222680   6.210   1.633  12.923 -0.6985  0.0814  0.4344
  422TIP3    H122681   6.244   1.554  12.964  0.8760  0.8774  0.7264
  422TIP3    H222682   6.275   1.700  12.941 -0.0220  0.5824 -3.0308
  423TIP3   OH222683   0.152   2.622   1.507 -0.2886  0.0546  0.3926
  423TIP3    H122684   0.192   2.701   1.469 -1.7945  0.5666 -0.2047
  423TIP3    H222685   0.101   2.654   1.581  2.8436 -0.9621  3.2712
  424TIP3   OH222686   2.866   1.089  12.390  0.4330  0.0035 -0.2339
  424TIP3    H122687   2.797   1.131  12.338 -0.5286 -0.7870  0.3722
  424TIP3    H222688   2.942   1.086  12.331  0.9631  3.5977  0.0192
  425TIP3   OH222689   0.743   4.600  10.885 -0.1519  0.2317 -0.6287
  425TIP3    H122690   0.780   4.673  10.836  0.0503 -0.8837 -2.1982
  425TIP3    H222691   0.724   4.533  10.819 -0.4729 -1.0885  0.7360
  426TIP3   OH222692   6.203   6.597  15.462  0.2538  0.1492  0.4494
  426TIP3    H122693   6.200   6.504  15.484 -1.8987  0.2906  1.0567
  426TIP3    H222694   6.160   6.604  15.377 -0.5841  0.6699  0.8939
  427TIP3   OH222695   3.252   1.890  13.257  0.2652  0.0813 -0.2757
  427TIP3    H122696   3.217   1.868  13.344 -0.2584  0.0580 -0.4893
  427TIP3    H222697   3.191   1.849  13.196 -0.1394  1.2422 -0.6674
  428TIP3   OH222698   6.084   4.425  13.093  0.4457  0.0832 -0.3206
  428TIP3    H122699   6.156   4.383  13.045 -0.5044 -0.7226 -1.0725
  428TIP3    H222700   6.113   4.426  13.184  0.9052 -1.3158 -0.4405
  429TIP3   OH222701   6.141   1.179   2.583 -0.2139  0.4065 -0.1856
  429TIP3    H122702   6.066   1.237   2.596 -1.3064 -0.2373 -2.8125
  429TIP3    H222703   6.107   1.091   2.599  0.6287  0.2388  0.8167
  430TIP3   OH222704   2.568   1.805  15.384  0.1964  0.2469  0.0347
  430TIP3    H122705   2.597   1.812  15.293 -3.1637 -0.8532 -1.2663
  430TIP3    H222706   2.562   1.895  15.415 -2.2471  0.9490 -2.2071
  431TIP3   OH222707   2.050   1.351   0.401  0.0300 -0.0085 -0.7923
  431TIP3    H122708   2.127   1.407   0.391  0.1215 -0.4242 -3.0013
  431TIP3    H222709   2.085   1.262   0.400 -0.2286 -0.1743  1.4351
  432TIP3   OH222710   4.255   4.594   3.854 -0.5027  0.0928  0.0365
  432TIP3    H122711   4.337   4.591   3.902  0.1066  1.2840 -0.8615
  432TIP3    H222712   4.189   4.617   3.920  0.0845  0.3010  0.5632
  433TIP3   OH222713   4.505   4.958  16.189 -0.2717  0.3114  0.5356
  433TIP3    H122714   4.504   4.968  16.284  0.7914 -0.5943  0.6690
  433TIP3    H222715   4.414   4.942  16.166 -0.2848 -1.5796  1.6810
  434TIP3   OH222716   4.034   4.180   4.289 -0.0139 -0.6862  0.1511
  434TIP3    H122717   3.979   4.158   4.213 -1.3391 -0.9333  1.1277
  434TIP3    H222718   3.972   4.183   4.362  1.3600 -1.4897  1.4099
  435TIP3   OH222719   1.924   3.624  11.415 -0.3613 -0.5896  0.4934
  435TIP3    H122720   1.829   3.630  11.403 -0.0757 -0.1882 -2.0721
  435TIP3    H222721   1.938   3.537  11.453 -1.6748 -1.0970 -0.1388
  436TIP3   OH222722   0.599   4.382   1.551 -0.4608  0.1814  0.3418
  436TIP3    H122723   0.618   4.289   1.542 -1.2754 -0.0213  0.6052
  436TIP3    H222724   0.533   4.400   1.484 -0.0704  0.6547  0.0685
  437TIP3   OH222725   3.444   1.137   3.024 -0.3921 -0.3348  0.3171
  437TIP3    H122726   3.517   1.184   3.065 -0.1024 -2.3407  2.2855
  437TIP3    H222727   3.371   1.148   3.085 -1.8167  1.5019 -1.5392
  438TIP3   OH222728   4.330   4.151   4.551  0.2603 -0.2619  0.4407
  438TIP3    H122729   4.343   4.065   4.591  0.8628 -0.8515 -0.9444
  438TIP3    H222730   4.318   4.210   4.625  2.4711 -1.1044  1.5763
  439TIP3   OH222731   6.713   6.792  15.113  0.4247  0.5369  0.6404
  439TIP3    H122732   6.722   6.707  15.070 -1.9700  1.7849 -2.7482
  439TIP3    H222733   6.633   6.785  15.165 -1.6987  1.4457 -2.2145
  440TIP3   OH222734   0.290   3.820   1.631  0.1907 -0.2260 -0.0194
  440TIP3    H122735   0.324   3.758   1.566 -0.7959 -0.4780 -0.3027
  440TIP3    H222736   0.278   3.768   1.710  1.5430  0.1140  0.4458
  441TIP3   OH222737   6.599   2.423  15.681  0.3376 -0.5200 -0.5915
  441TIP3    H122738   6.576   2.376  15.602  0.1276 -0.7349 -0.4021
  441TIP3    H222739   6.681   2.382  15.710 -0.7277 -1.9376  0.5209
  442TIP3   OH222740   5.398   6.579   0.908 -0.0965 -0.0162  1.0778
  442TIP3    H122741   5.446   6.642   0.853  2.2628 -2.4180  0.1387
  442TIP3    H222742   5.360   6.632   0.978  1.0573  2.5338 -0.0917
  443TIP3   OH222743   0.962   6.289   2.576 -0.1201 -0.3274  0.7554
  443TIP3    H122744   1.007   6.351   2.633 -1.0402  0.2439  0.8815
  443TIP3    H222745   0.889   6.339   2.539 -0.2183 -1.0202 -0.0183
  444TIP3   OH222746   0.580   2.143  16.600  0.1572 -1.1349 -0.4474
  444TIP3    H122747   0.578   2.083  16.675  1.7435 -0.1002  0.4663
  444TIP3    H222748   0.642   2.211  16.625 -1.8522  1.1486 -1.2989
  445TIP3   OH222749   5.142   2.160  11.914 -1.2309  0.1086  0.2729
  445TIP3    H122750   5.173   2.122  11.832 -3.8411  1.2583 -1.3432
  445TIP3    H222751   5.187   2.244  11.920  1.7012 -1.3936  1.9843
  446TIP3   OH222752   3.628   1.832  15.120 -0.1565 -0.8595 -0.3156
  446TIP3    H122753   3.601   1.906  15.175  0.3162 -0.2432 -0.9033
  446TIP3    H222754   3.711   1.803  15.158 -0.6325 -1.4874  0.2801
  447TIP3   OH222755   5.485   3.233  13.801 -0.4971 -0.2047 -0.4401
  447TIP3    H122756   5.499   3.278  13.884  0.7055 -0.7066 -0.3453
  447TIP3    H222757   5.467   3.304  13.739  2.4177  0.6256 -0.5229
  448TIP3   OH222758   0.733   3.377  13.932 -0.1995  0.2892  0.2926
  448TIP3    H122759   0.811   3.399  13.983 -1.0088  1.1364  1.2056
  448TIP3    H222760   0.734   3.440  13.860 -1.1005  1.6890  1.4446
  449TIP3   OH222761   3.085   2.960   2.041  0.1231  0.3571 -0.3625
  449TIP3    H122762   3.170   2.999   2.023  0.8141 -0.6276  0.6504
  449TIP3    H222763   3.092   2.927   2.130 -1.4399  0.5573 -0.1416
  450TIP3   OH222764   3.822   5.579   6.523 -0.3762  0.5859  0.0869
  450TIP3    H122765   3.878   5.656   6.509 -0.8587  0.8791 -0.2554
  450TIP3    H222766   3.833   5.526   6.444 -0.9938  0.9086 -0.2198
  451TIP3   OH222767   1.992   2.283   0.714 -0.2623 -0.1964 -0.3547
  451TIP3    H122768   1.936   2.359   0.694 -2.2890 -0.7945  2.3861
  451TIP3    H222769   2.031   2.305   0.798  0.5781 -1.4596 -0.4029
  452TIP3   OH222770   6.266   0.812  15.630 -0.1257  0.0001 -0.2480
  452TIP3    H122771   6.358   0.825  15.651 -0.2302  0.7992 -0.2440
  452TIP3    H222772   6.267   0.755  15.553  0.2871 -1.8059  1.0478
  453TIP3   OH222773   4.151   5.383  14.760 -0.0126 -0.0557  0.2888
  453TIP3    H122774   4.151   5.353  14.851 -0.6474  1.7113  0.9199
  453TIP3    H222775   4.182   5.473  14.765  1.2807 -0.3623 -1.4416
  454TIP3   OH222776   5.114   6.329   3.113 -0.3955 -0.2257  0.3878
  454TIP3    H122777   5.106   6.424   3.125  0.3420 -0.4046  2.7451
  454TIP3    H222778   5.026   6.300   3.090 -0.4884  1.0834 -1.1158
  455TIP3   OH222779   5.946   2.609   0.140  0.0487  0.1689 -0.4961
  455TIP3    H122780   6.040   2.626   0.144  0.0913 -0.2675  1.7312
  455TIP3    H222781   5.921   2.635   0.051  2.0511  1.3416 -0.7887
  456TIP3   OH222782   6.569   3.289   4.130  0.3854  0.4372 -0.4398
  456TIP3    H122783   6.497   3.246   4.083  1.5372 -1.1196 -0.8676
  456TIP3    H222784   6.576   3.375   4.090 -1.8715  1.0386  0.2886
  457TIP3   OH222785   2.504   4.734  14.950 -0.7300 -0.0130 -0.3865
  457TIP3    H122786   2.413   4.710  14.966 -0.5515 -0.4208  0.0563
  457TIP3    H222787   2.554   4.655  14.970 -0.4662 -0.6008 -3.0118
  458TIP3   OH222788   4.364   4.262   5.612  0.1494  0.2122 -0.0512
  458TIP3    H122789   4.278   4.224   5.598 -1.1346  2.5915  0.7313
  458TIP3    H222790   4.386   4.239   5.702  0.7998 -1.1743 -0.5410
  459TIP3   OH222791   6.602   2.091   3.127  0.0475  0.1230 -0.0564
  459TIP3    H122792   6.597   1.996   3.141  0.6021 -0.0561 -0.9922
  459TIP3    H222793   6.690   2.115   3.158 -0.2562  0.4144  0.5961
  460TIP3   OH222794   4.209   5.276   5.042 -0.1699  0.0660  0.3485
  460TIP3    H122795   4.190   5.327   5.121 -0.4786 -1.4469  1.2877
  460TIP3    H222796   4.305   5.280   5.034 -0.2129  1.1541  0.1206
  461TIP3   OH222797   4.685   5.790   3.445  0.1022  0.6472  0.0439
  461TIP3    H122798   4.681   5.819   3.355  1.9421 -0.2414 -0.3612
  461TIP3    H222799   4.696   5.870   3.497  0.0712  1.0657 -0.5926
  462TIP3   OH222800   4.377   0.167   0.951  0.2289 -0.4073  0.0742
  462TIP3    H122801   4.421   0.085   0.971 -1.0229 -1.1926 -0.2739
  462TIP3    H222802   4.429   0.206   0.881 -0.0202 -1.6668 -0.8502
  463TIP3   OH222803   1.559   2.068   6.391  0.6948  0.7761  0.0117
  463TIP3    H122804   1.563   2.155   6.351 -0.8286  0.2915 -1.2971
  463TIP3    H222805   1.624   2.071   6.461  1.0816  2.7743 -0.3696
  464TIP3   OH222806   1.938   6.354   5.667  0.3224  0.1927 -0.3098
  464TIP3    H122807   2.001   6.359   5.739 -0.2767  1.0739  0.1782
  464TIP3    H222808   1.953   6.268   5.628  0.4796 -0.4356  1.0430
  465TIP3   OH222809   2.914   3.770  14.034  0.5109 -0.3551 -0.4219
  465TIP3    H122810   2.822   3.746  14.041  0.5872 -0.4983  0.1013
  465TIP3    H222811   2.944   3.778  14.124  1.4150 -1.8860 -0.5613
  466TIP3   OH222812   4.018   5.060  13.653  0.1156  0.2515  0.2230
  466TIP3    H122813   4.010   5.155  13.667  1.2613  0.8503 -2.5766
  466TIP3    H222814   4.109   5.040  13.678  0.2909  0.1612 -0.4834
  467TIP3   OH222815   5.891   4.529  15.120 -0.8956 -0.1930 -0.8754
  467TIP3    H122816   5.897   4.582  15.040 -1.2609  0.5744 -0.4055
  467TIP3    H222817   5.937   4.581  15.187 -2.2166  0.0783 -0.1415
  468TIP3   OH222818   2.838   5.400   4.575 -0.0529 -0.4874  0.2406
  468TIP3    H122819   2.832   5.433   4.665  1.5624  0.5810 -0.0011
  468TIP3    H222820   2.756   5.428   4.534  1.1629  3.4036  0.0760
  469TIP3   OH222821   6.212   4.916   3.181 -0.0290  0.0918  0.3141
  469TIP3    H122822   6.238   4.934   3.272  0.5675 -0.7920  0.3262
  469TIP3    H222823   6.293   4.923   3.132 -0.6483  2.6937 -0.5357
  470TIP3   OH222824   1.185   3.603  11.550 -0.2239  0.3008  0.7043
  470TIP3    H122825   1.253   3.565  11.605  0.1554  0.9949  0.7325
  470TIP3    H222826   1.201   3.566  11.463 -0.6612 -0.5934  0.9986
  471TIP3   OH222827   2.554   3.232  11.484  0.3202  0.5311 -0.8375
  471TIP3    H122828   2.634   3.193  11.449  0.8092  0.5669  0.2177
  471TIP3    H222829   2.483   3.188  11.437  0.9350  0.1567 -1.4346
  472TIP3   OH222830   0.175   1.769   3.370 -0.1439 -0.0124  0.0390
  472TIP3    H122831   0.189   1.675   3.372 -2.0317 -0.3427 -0.3929
  472TIP3    H222832   0.213   1.798   3.287  0.9188 -0.2897  0.4191
  473TIP3   OH222833   1.191   0.718   5.897 -0.0992 -0.2550 -0.1765
  473TIP3    H122834   1.126   0.647   5.901  0.8193 -1.2732 -2.0083
  473TIP3    H222835   1.275   0.673   5.906  0.4557  0.7764 -0.0600
  474TIP3   OH222836   0.209   6.696  12.556 -0.7041  0.3322 -0.0361
  474TIP3    H122837   0.254   6.629  12.505 -1.9077  0.2472 -1.0349
  474TIP3    H222838   0.257   6.699  12.639  0.5848 -0.3539 -0.7153
  475TIP3   OH222839   4.325   3.371  16.921 -0.0606  0.5366 -0.1241
  475TIP3    H122840   4.240   3.359  16.877 -0.1593  0.1287  0.1729
  475TIP3    H222841   4.309   3.440  16.985  0.3190  1.7984 -1.3363
  476TIP3   OH222842   6.504   5.452   5.327 -0.5979  0.0042  0.2797
  476TIP3    H122843   6.529   5.501   5.406 -0.7420  1.8445 -0.7626
  476TIP3    H222844   6.573   5.386   5.317  2.1829  2.8239 -0.6957
  477TIP3   OH222845   5.575   2.034   2.203 -0.1112  0.4479  0.4075
  477TIP3    H122846   5.594   2.100   2.137 -1.0538  1.7239  1.3471
  477TIP3    H222847   5.635   1.962   2.184  0.2657  1.1627 -1.2469
  478TIP3   OH222848   5.602   0.331  13.063 -0.2905 -0.2393  0.3952
  478TIP3    H122849   5.619   0.419  13.096  1.1460 -0.7303  1.0096
  478TIP3    H222850   5.551   0.289  13.133  0.3292 -0.3668  0.7823
  479TIP3   OH222851   6.236   3.336  16.349  0.7767 -0.2750  0.0006
  479TIP3    H122852   6.171   3.403  16.328  1.4929  0.7412  0.9002
  479TIP3    H222853   6.291   3.331  16.271  0.5686  0.0169 -0.1679
  480TIP3   OH222854   4.300   3.606   3.801 -0.2674  0.2293 -0.0100
  480TIP3    H122855   4.218   3.574   3.838 -1.3056 -0.2447 -2.5039
  480TIP3    H222856   4.311   3.556   3.720  0.4465  2.9297 -1.7207
  481TIP3   OH222857   3.393   0.848  14.300 -0.1091  0.3400  0.3290
  481TIP3    H122858   3.476   0.801  14.294  0.2382  0.9367  0.3905
  481TIP3    H222859   3.349   0.810  14.376 -0.4564 -0.8528 -0.4542
  482TIP3   OH222860   0.652   1.686   1.564  0.3946 -0.3614  0.0911
  482TIP3    H122861   0.587   1.666   1.631  1.3823  0.8368  1.4752
  482TIP3    H222862   0.688   1.601   1.538 -0.8595 -0.9332  0.1701
  483TIP3   OH222863   6.744   6.541  13.379  0.0528 -0.2858 -0.2710
  483TIP3    H122864   6.742   6.604  13.451 -1.5669 -0.2271 -0.3086
  483TIP3    H222865   6.654   6.543  13.344 -0.1083 -2.7655 -0.1318
  484TIP3   OH222866   0.882   2.749   5.124  0.0734 -0.3868 -0.7535
  484TIP3    H122867   0.900   2.663   5.086 -0.3192  0.2365 -2.4361
  484TIP3    H222868   0.855   2.803   5.050  0.2543  1.1826  0.2699
  485TIP3   OH222869   4.347   0.395   5.861  0.1851 -0.1466 -0.3264
  485TIP3    H122870   4.287   0.350   5.921 -1.9160  0.8754 -1.5720
  485TIP3    H222871   4.371   0.328   5.797 -0.9179 -0.1906 -0.7196
  486TIP3   OH222872   0.433   0.029   6.278  0.3160  0.1868 -0.3352
  486TIP3    H122873   0.358  -0.004   6.327  0.1359 -0.5200 -1.0599
  486TIP3    H222874   0.493   0.063   6.344  0.3988 -1.3785  0.4368
  487TIP3   OH222875   4.893   0.370   0.733  0.0458 -0.0924 -0.2346
  487TIP3    H122876   4.871   0.453   0.776  1.6095  0.4352 -0.3964
  487TIP3    H222877   4.922   0.395   0.645 -0.2367 -0.8870 -0.5597
  488TIP3   OH222878   2.525   0.290  16.014  0.6038  0.0915 -0.3598
  488TIP3    H122879   2.519   0.258  16.104 -1.7453  2.1764  0.3680
  488TIP3    H222880   2.488   0.220  15.961 -1.5165  0.2338  0.8095
  489TIP3   OH222881   6.630   0.111  12.538 -0.1487  0.6808  0.4190
  489TIP3    H122882   6.615   0.173  12.610  2.5280 -0.8028  2.4394
  489TIP3    H222883   6.590   0.030  12.568  3.0239 -0.6390  1.5437
  490TIP3   OH222884   2.167   3.521   1.422 -0.0021 -0.5705 -0.0719
  490TIP3    H122885   2.136   3.581   1.353 -1.5282  0.5390  1.4918
  490TIP3    H222886   2.121   3.439   1.404 -1.7353  0.2118  0.5315
  491TIP3   OH222887   2.713   1.837   1.663  0.5185 -0.1591  0.4856
  491TIP3    H122888   2.795   1.854   1.710 -0.4714  0.2359  2.1749
  491TIP3    H222889   2.662   1.783   1.724 -0.4655 -0.4473 -0.5633
  492TIP3   OH222890   5.924   4.859  12.439 -0.0864  0.2005 -0.2008
  492TIP3    H122891   5.838   4.827  12.466 -0.0481 -0.1460 -0.4845
  492TIP3    H222892   5.968   4.783  12.402  0.6387  0.1881  0.6554
  493TIP3   OH222893   0.660   1.569  11.924  0.1450 -0.1796 -0.5392
  493TIP3    H122894   0.591   1.512  11.958  0.1839 -0.7920 -1.4352
  493TIP3    H222895   0.715   1.511  11.871  0.5815  0.5622 -0.9151
  494TIP3   OH222896   0.125   6.150  13.986 -0.2742  0.2353 -0.4739
  494TIP3    H122897   0.116   6.058  14.010 -2.1294 -0.0657 -2.0421
  494TIP3    H222898   0.171   6.190  14.059  0.7703 -1.9622  0.1541
  495TIP3   OH222899   5.245   1.745  12.932  0.1831 -0.0609 -0.1731
  495TIP3    H122900   5.296   1.706  12.861 -0.7605 -1.0870 -0.3228
  495TIP3    H222901   5.309   1.794  12.984  1.2456 -0.9520 -0.5959
  496TIP3   OH222902   6.766   3.728  17.088  0.0738 -0.0822 -0.4507
  496TIP3    H122903   6.707   3.735  17.163 -0.7123 -2.2839 -0.7847
  496TIP3    H222904   6.729   3.788  17.023 -0.1470  0.6693  0.3619
  497TIP3   OH222905   4.154   3.009  13.657 -0.4275 -0.3633 -0.0859
  497TIP3    H122906   4.099   3.052  13.722 -0.1671  0.1477 -0.1974
  497TIP3    H222907   4.195   3.081  13.609 -0.5241 -0.7332 -0.7351
  498TIP3   OH222908   2.173   0.887   5.918  0.1380 -0.1623  0.2426
  498TIP3    H122909   2.182   0.824   5.989 -2.4474  0.3523  1.1518
  498TIP3    H222910   2.088   0.867   5.878  0.0882  1.5692 -0.6350
  499TIP3   OH222911   0.803   0.210   2.799 -0.2942  0.1129  0.1972
  499TIP3    H122912   0.889   0.229   2.761 -0.4127  0.6510  0.1859
  499TIP3    H222913   0.742   0.263   2.747 -0.4562  0.9088  1.1652
  500TIP3   OH222914   0.414   1.339   4.760 -0.2519 -0.4142 -0.0753
  500TIP3    H122915   0.322   1.316   4.769  0.2869 -2.6835  0.4851
  500TIP3    H222916   0.424   1.421   4.809 -1.7229 -0.8284  0.9881
  501TIP3   OH222917   1.921   4.635  15.046 -0.1546 -0.1804 -0.4955
  501TIP3    H122918   1.854   4.704  15.046  0.8926  0.8543 -0.2053
  501TIP3    H222919   1.908   4.590  15.129 -0.3592  0.1601 -0.3372
  502TIP3   OH222920   0.419   1.947   0.994  0.2373 -0.1070 -0.5473
  502TIP3    H122921   0.464   2.031   0.980  0.2684 -0.3077 -1.8391
  502TIP3    H222922   0.467   1.885   0.940  1.6819 -1.5415  2.1920
  503TIP3   OH222923   3.688   1.273  12.326 -0.4639  0.0732  0.6262
  503TIP3    H122924   3.683   1.220  12.406 -1.8312 -1.0268 -0.1573
  503TIP3    H222925   3.699   1.210  12.256  0.6517  1.0305 -0.1062
  504TIP3   OH222926   0.024   3.226   3.103 -0.7612 -0.0750  0.6677
  504TIP3    H122927  -0.016   3.140   3.116 -0.1831 -0.3893  0.4035
  504TIP3    H222928   0.109   3.219   3.146 -1.2207  0.7948  1.8055
  505TIP3   OH222929   5.638   2.481  14.219  0.0980  0.0348  0.2169
  505TIP3    H122930   5.685   2.491  14.301  0.0030 -0.1142  0.2917
  505TIP3    H222931   5.560   2.430  14.243 -0.4157  0.8124  0.2111
  506TIP3   OH222932   0.220   6.634  16.267  0.4098  0.6402  0.2615
  506TIP3    H122933   0.232   6.542  16.244  0.3073  0.0769  2.2050
  506TIP3    H222934   0.129   6.653  16.247  0.1590 -0.0011  0.7655
  507TIP3   OH222935   6.063   3.725   2.134 -0.1999 -0.2544  0.1321
  507TIP3    H122936   5.997   3.793   2.119 -0.2436 -0.3006  0.1140
  507TIP3    H222937   6.143   3.760   2.096  0.2751  0.6594  1.8562
  508TIP3   OH222938   4.460   4.330   0.518  0.0100 -0.1900 -0.1122
  508TIP3    H122939   4.408   4.253   0.496  0.7386 -1.3249  1.8600
  508TIP3    H222940   4.406   4.379   0.580 -0.6228  1.1819 -1.6545
  509TIP3   OH222941   3.505   2.961   2.563 -0.6389  0.3774 -0.0134
  509TIP3    H122942   3.472   2.951   2.653  0.6714  0.2408  0.4724
  509TIP3    H222943   3.489   2.875   2.522  1.9730 -0.8020  1.2230
  510TIP3   OH222944   1.861   3.178   3.012  0.0124  0.2512 -0.2288
  510TIP3    H122945   1.806   3.240   2.964  0.0077 -0.2276 -0.8589
  510TIP3    H222946   1.879   3.221   3.095  0.8979  1.5738 -1.0590
  511TIP3   OH222947   1.581   4.315   1.175 -0.1238 -0.4431  0.1548
  511TIP3    H122948   1.576   4.249   1.244  4.0264 -1.1579  0.0143
  511TIP3    H222949   1.675   4.334   1.166 -0.7773  2.2771 -2.8377
  512TIP3   OH222950   3.170   6.392  13.708  0.1891  0.1341  0.7165
  512TIP3    H122951   3.229   6.412  13.780  1.2301 -0.6803  0.1136
  512TIP3    H222952   3.138   6.477  13.679  0.7801  0.5569  1.2783
  513TIP3   OH222953   5.528   5.815   1.694 -0.2030 -0.2874 -0.0469
  513TIP3    H122954   5.563   5.746   1.637 -1.0566 -1.3731  0.6927
  513TIP3    H222955   5.442   5.835   1.657 -1.0835 -1.5294  1.2309
  514TIP3   OH222956   2.301   1.738   3.754 -0.0260 -0.2131  0.3553
  514TIP3    H122957   2.233   1.672   3.742 -0.2654 -0.3867  2.2606
  514TIP3    H222958   2.317   1.773   3.667 -2.5848 -0.1525 -0.1904
  515TIP3   OH222959   0.966   3.087   5.556  0.5529  0.4291 -0.2907
  515TIP3    H122960   0.891   3.029   5.573 -0.5565  1.8168 -0.2181
  515TIP3    H222961   1.009   3.096   5.641  0.1636  0.4631 -0.0923
  516TIP3   OH222962   5.865   5.601  14.030 -0.0187  0.3593 -0.1149
  516TIP3    H122963   5.774   5.575  14.044  0.1790 -0.6540 -0.6244
  516TIP3    H222964   5.880   5.672  14.092 -0.8056 -0.2462  0.7829
  517TIP3   OH222965   0.004   2.688   1.716  0.4942 -0.3526 -0.3400
  517TIP3    H122966  -0.034   2.603   1.738 -0.7142  0.4549  0.8803
  517TIP3    H222967  -0.068   2.750   1.726  0.8347  0.6231 -3.0744
  518TIP3   OH222968   5.611   1.994   5.091  0.7491 -0.3830  0.3743
  518TIP3    H122969   5.549   1.938   5.044 -0.2661  1.0581 -0.0568
  518TIP3    H222970   5.586   1.985   5.183 -1.0648  1.2430  0.0971
  519TIP3   OH222971   4.459   3.329   1.716 -0.6049  0.1355 -0.1913
  519TIP3    H122972   4.437   3.383   1.640  0.0935  1.1930  0.3343
  519TIP3    H222973   4.381   3.333   1.772 -0.0951  1.7340  0.4617
  520TIP3   OH222974   5.526   0.132   1.103  0.1855 -0.2943  0.2455
  520TIP3    H122975   5.603   0.082   1.074 -0.3614  0.4977 -3.0096
  520TIP3    H222976   5.562   0.215   1.134  0.7577 -0.6493  0.5551
  521TIP3   OH222977   5.282   6.755   1.080 -0.1021  0.2230 -0.5519
  521TIP3    H122978   5.341   6.830   1.089 -0.3685  0.3920 -0.2312
  521TIP3    H222979   5.245   6.742   1.167 -2.1398  1.4155 -1.1725
  522TIP3   OH222980   1.791   0.839   0.178 -0.2234  0.0537  0.4948
  522TIP3    H122981   1.853   0.908   0.156  3.0344 -2.8354 -0.3308
  522TIP3    H222982   1.779   0.846   0.273  1.8531  0.4356  0.7811
  523TIP3   OH222983   6.505   4.197  13.829 -0.1050  0.3716 -0.1189
  523TIP3    H122984   6.436   4.135  13.807  0.7655 -0.9349  0.6916
  523TIP3    H222985   6.459   4.275  13.860 -1.2279 -0.4538  0.3526
  524TIP3   OH222986   3.569   2.576   0.920 -0.4758 -0.1556  0.1109
  524TIP3    H122987   3.553   2.482   0.922  1.4339 -0.5223  0.9384
  524TIP3    H222988   3.649   2.586   0.868 -0.9227  1.0646 -0.3790
  525TIP3   OH222989   0.206   6.412   2.154 -0.0474 -0.2413 -0.2599
  525TIP3    H122990   0.240   6.463   2.080 -0.3027  0.0931 -0.1514
  525TIP3    H222991   0.279   6.357   2.181  0.4155  0.4723 -0.0192
  526TIP3   OH222992   3.690   5.118  11.800 -0.1221  0.0909 -0.2570
  526TIP3    H122993   3.684   5.184  11.732 -1.3550  0.2345 -0.0391
  526TIP3    H222994   3.696   5.035  11.753  0.9136  0.2995 -0.5260
  527TIP3   OH222995   4.067   6.163  15.053 -0.0865  0.3247  0.3869
  527TIP3    H122996   3.986   6.116  15.034  0.4607 -0.2111 -0.6937
  527TIP3    H222997   4.108   6.176  14.968  0.8831  0.7596  0.8986
  528TIP3   OH222998   4.106   4.793  11.662  0.1109  0.1907  0.0265
  528TIP3    H122999   4.070   4.704  11.662  0.0170  0.2273 -0.1671
  528TIP3    H223000   4.095   4.823  11.752 -3.1384  1.3095 -0.6077
  529TIP3   OH223001   6.550   2.137   0.239 -0.5260  0.3957  0.3077
  529TIP3    H123002   6.467   2.182   0.224 -1.2879 -0.9279  0.3915
  529TIP3    H223003   6.531   2.077   0.311  0.6485  0.4221  0.6508
  530TIP3   OH223004   3.181   6.270  11.783  0.2424  0.6180 -0.0233
  530TIP3    H123005   3.090   6.261  11.810  0.6784  1.6607  1.9543
  530TIP3    H223006   3.232   6.237  11.857  1.5032  2.0590 -0.1981
  531TIP3   OH223007   0.115   2.159   5.116 -0.3120  0.1059  0.4265
  531TIP3    H123008   0.058   2.124   5.185 -1.6730 -0.6811 -1.0151
  531TIP3    H223009   0.160   2.233   5.156 -1.1345 -0.2708  2.1126
  532TIP3   OH223010   6.038   6.030   1.811 -0.4828 -0.8824 -0.6106
  532TIP3    H123011   6.008   5.962   1.871 -0.7555 -1.4426 -1.3716
  532TIP3    H223012   6.088   5.983   1.744  1.2635 -0.0966  0.0542
  533TIP3   OH223013   0.169   1.758   1.501  0.1494  0.0611 -0.1182
  533TIP3    H123014   0.081   1.754   1.464  0.3769  1.2626 -0.8390
  533TIP3    H223015   0.227   1.759   1.425  1.0228 -3.4303  0.2954
  534TIP3   OH223016   1.538   0.967   4.875 -0.7447 -0.5841 -0.0396
  534TIP3    H123017   1.530   1.057   4.907 -0.7297 -0.6465  0.1439
  534TIP3    H223018   1.591   0.922   4.942  1.6576 -0.0563 -1.4459
  535TIP3   OH223019   1.447   4.190   5.553  0.1986  0.3340  0.6057
  535TIP3    H123020   1.482   4.225   5.635  1.3902 -1.8926  1.1268
  535TIP3    H223021   1.484   4.102   5.547  1.5089  0.9725 -3.1609
  536TIP3   OH223022   0.959   0.155   1.996  0.0834 -0.1919  0.3344
  536TIP3    H123023   0.866   0.180   1.993  0.2993  0.5913 -1.2936
  536TIP3    H223024   0.959   0.062   1.975 -0.3301 -0.1510  0.1272
  537TIP3   OH223025   5.511   3.666   5.495  0.0676 -0.1066  0.2871
  537TIP3    H123026   5.432   3.656   5.549  0.0811  1.7927  0.7345
  537TIP3    H223027   5.490   3.621   5.414 -0.6974 -1.3683  1.1423
  538TIP3   OH223028   5.735   5.368   6.263  0.0536 -0.0572 -0.1055
  538TIP3    H123029   5.668   5.388   6.328  0.3526  0.7679 -0.0377
  538TIP3    H223030   5.711   5.421   6.187  1.1344  0.9619  0.2452
  539TIP3   OH223031   3.282   3.930  16.739 -0.3764 -0.0356 -0.3435
  539TIP3    H123032   3.217   3.869  16.775 -0.0244  0.4487  1.1777
  539TIP3    H223033   3.243   4.016  16.752 -0.0246  0.1730 -0.6885
  540TIP3   OH223034   5.421   3.743  11.368 -0.4611  0.4281  0.5561
  540TIP3    H123035   5.378   3.828  11.367 -2.3781 -0.5077 -0.2738
  540TIP3    H223036   5.352   3.680  11.388  0.8233 -0.9976  0.7577
  541TIP3   OH223037   4.147   4.757   1.794 -0.2602 -0.0321 -0.2842
  541TIP3    H123038   4.202   4.833   1.774 -1.4778  0.4784 -1.8990
  541TIP3    H223039   4.198   4.681   1.765  0.9748  0.1130  1.3616
  542TIP3   OH223040   0.816   6.451   4.458  0.2736  0.5672  0.1151
  542TIP3    H123041   0.818   6.389   4.385  0.0184  0.1322  0.4721
  542TIP3    H223042   0.907   6.475   4.472  0.3879  0.1706  0.0587
  543TIP3   OH223043   6.606   2.853   3.931 -0.0916 -0.2976  0.0485
  543TIP3    H123044   6.635   2.922   3.991 -0.1305 -1.3751  1.3522
  543TIP3    H223045   6.609   2.773   3.983 -0.9465 -1.1512 -1.1534
  544TIP3   OH223046   4.880   5.121  11.868  0.2915 -0.5764 -0.2719
  544TIP3    H123047   4.887   5.026  11.870 -1.3456 -0.7392 -0.6534
  544TIP3    H223048   4.797   5.140  11.913  0.6866  0.6788 -0.0280
  545TIP3   OH223049   6.679   3.840   6.388 -0.1648 -0.3058  0.0680
  545TIP3    H123050   6.719   3.866   6.305 -0.0022 -0.7451  0.0075
  545TIP3    H223051   6.727   3.889   6.454  0.9734 -1.3679  0.0651
  546TIP3   OH223052   3.616   0.896  13.370 -0.6028  0.4507 -0.0566
  546TIP3    H123053   3.657   0.880  13.285  1.0763 -0.2386  0.8269
  546TIP3    H223054   3.593   0.808  13.402  0.2089  0.5578  0.8587
  547TIP3   OH223055   3.863   3.796  13.461  0.1305  0.1117 -0.3607
  547TIP3    H123056   3.777   3.780  13.422  0.9487  1.1866 -2.8212
  547TIP3    H223057   3.846   3.855  13.535 -1.3356 -0.6834 -0.0231
  548TIP3   OH223058   1.302   1.441  14.852 -0.6327  0.1957 -0.2954
  548TIP3    H123059   1.246   1.453  14.929 -2.4992  0.1004 -1.5801
  548TIP3    H223060   1.302   1.347  14.837 -0.5528  0.2450 -0.6026
  549TIP3   OH223061   1.032   5.596  15.701  0.5658  0.0204 -0.7097
  549TIP3    H123062   1.033   5.546  15.783  1.3462 -2.3243 -2.0296
  549TIP3    H223063   0.940   5.618  15.688  0.5183  1.0852  1.1053
  550TIP3   OH223064   5.542   5.821  16.559  0.2163  0.6606  0.5213
  550TIP3    H123065   5.601   5.892  16.585  2.0014 -0.6498  0.1822
  550TIP3    H223066   5.485   5.860  16.493  1.5940  1.6337 -0.1356
  551TIP3   OH223067   4.438   1.346  13.737 -0.2134 -0.3543 -0.0140
  551TIP3    H123068   4.386   1.268  13.716 -0.0942 -0.6056  0.6204
  551TIP3    H223069   4.421   1.362  13.829  3.6129 -2.5889  1.2800
  552TIP3   OH223070   0.644   2.652  12.643  0.2618 -0.2846 -0.3365
  552TIP3    H123071   0.708   2.651  12.715  2.6016  1.0257 -2.2257
  552TIP3    H223072   0.641   2.561  12.613 -0.4552 -0.7693  1.1435
  553TIP3   OH223073   6.148   4.076   3.757  0.1436  0.2724  0.7765
  553TIP3    H123074   6.155   4.009   3.688  0.7468  0.7653  0.3429
  553TIP3    H223075   6.055   4.095   3.763  0.1297  0.6026 -0.2873
  554TIP3   OH223076   6.612   0.583  12.884 -0.0800  0.1485  0.1956
  554TIP3    H123077   6.661   0.533  12.818 -0.9345 -3.0166  1.7777
  554TIP3    H223078   6.528   0.602  12.843 -0.7714 -2.1775  0.4110
  555TIP3   OH223079   5.688   6.219   1.331 -0.2619  0.1835  0.4347
  555TIP3    H123080   5.604   6.243   1.371 -0.9671 -0.8313 -0.3685
  555TIP3    H223081   5.736   6.302   1.322 -1.5520  0.9187  0.0768
  556TIP3   OH223082   3.291   2.630   1.127 -0.5618  0.2734  0.2741
  556TIP3    H123083   3.260   2.716   1.102  0.4195  1.2862  2.2793
  556TIP3    H223084   3.345   2.601   1.054 -0.9805  1.3253 -0.4664
  557TIP3   OH223085   4.593   3.836   5.027 -0.9439  0.2157  0.5259
  557TIP3    H123086   4.593   3.932   5.035 -1.0193  0.5914 -2.5594
  557TIP3    H223087   4.502   3.814   5.008 -0.9406 -0.4888  1.3145
  558TIP3   OH223088   2.980   5.511   5.187 -0.4069 -0.6834  0.1921
  558TIP3    H123089   2.960   5.581   5.125 -1.5598  0.0964  1.3898
  558TIP3    H223090   2.907   5.512   5.249 -0.2158 -2.6440  0.5215
  559TIP3   OH223091   0.531   4.389   0.661 -0.0962  0.3827  0.1378
  559TIP3    H123092   0.461   4.426   0.607 -1.1980 -0.3247  1.0187
  559TIP3    H223093   0.512   4.295   0.664  1.9424 -0.1249 -1.0657
  560TIP3   OH223094   6.789   2.530   2.667 -0.4315 -0.6627 -0.2669
  560TIP3    H123095   6.694   2.543   2.659 -0.3544  0.3230  0.1818
  560TIP3    H223096   6.814   2.485   2.587 -0.9747  0.9148 -1.3727
  561TIP3   OH223097   3.331   2.024   6.315 -0.1472 -0.2266 -0.1414
  561TIP3    H123098   3.332   1.958   6.247 -1.4246  0.9262 -1.3359
  561TIP3    H223099   3.243   2.062   6.312  0.8872  2.3942 -0.3989
  562TIP3   OH223100   1.192   2.515   5.116  0.0938 -0.2488 -0.6255
  562TIP3    H123101   1.100   2.517   5.089  0.3462  1.4012 -1.4968
  562TIP3    H223102   1.239   2.485   5.038  0.4179  0.1754 -0.5946
  563TIP3   OH223103   5.698   1.828   2.935  0.0832  0.0491  0.2761
  563TIP3    H123104   5.696   1.760   2.867 -1.0032 -2.0932  2.3226
  563TIP3    H223105   5.791   1.844   2.950  0.3611  1.0719 -2.1166
  564TIP3   OH223106   0.658   3.602  11.576  0.0600 -0.5515  0.1053
  564TIP3    H123107   0.571   3.563  11.579 -0.8865  1.4526  1.8548
  564TIP3    H223108   0.644   3.691  11.543  1.3977 -0.1485  0.5296
  565TIP3   OH223109   1.589   5.710   4.555  0.1995  1.2144 -0.4394
  565TIP3    H123110   1.679   5.712   4.521 -0.2218  1.1949 -1.6297
  565TIP3    H223111   1.547   5.641   4.504  0.1011 -0.4017  1.7158
  566TIP3   OH223112   3.704   4.742  16.961  0.1956  0.2606  0.4719
  566TIP3    H123113   3.674   4.806  16.896  0.6796 -0.2961 -0.3058
  566TIP3    H223114   3.719   4.662  16.911  0.7632 -0.1252  1.2443
  567TIP3   OH223115   1.313   5.681  12.446  0.2383  0.1747  0.5821
  567TIP3    H123116   1.378   5.619  12.479 -0.0659 -0.0025  0.8540
  567TIP3    H223117   1.275   5.638  12.370 -1.4981 -0.9584  1.9894
  568TIP3   OH223118   6.168   0.682  11.241  0.2377  0.2466 -0.9527
  568TIP3    H123119   6.247   0.697  11.190  0.1400  0.3722 -1.0664
  568TIP3    H223120   6.101   0.660  11.176  0.1734  0.1656 -0.8590
  569TIP3   OH223121   6.267   6.744   2.256 -0.4619 -0.9207  0.2402
  569TIP3    H123122   6.332   6.728   2.325 -0.3941 -1.2409  0.1025
  569TIP3    H223123   6.187   6.765   2.304  0.2105  1.4957  0.4174
  570TIP3   OH223124   6.236   5.927  12.364 -0.3018  0.5792  0.4617
  570TIP3    H123125   6.235   5.884  12.278 -1.8757  0.0636  0.7071
  570TIP3    H223126   6.266   6.016  12.345  0.3064  0.1925 -0.4718
  571TIP3   OH223127   1.101   0.835  13.811 -0.3890 -0.5423  0.0039
  571TIP3    H123128   1.141   0.915  13.776 -0.8287  0.4786  1.7238
  571TIP3    H223129   1.115   0.841  13.905  0.4710 -3.0322  0.1000
  572TIP3   OH223130   4.883   5.906   3.195  0.0250 -0.2732  0.6223
  572TIP3    H123131   4.863   5.813   3.199 -1.3440  0.0232  1.1240
  572TIP3    H223132   4.817   5.942   3.136  1.0788  0.2537 -0.2566
  573TIP3   OH223133   1.237   4.216  11.816  0.1362 -0.4938 -0.3251
  573TIP3    H123134   1.193   4.158  11.879  1.1488 -0.0770  0.7933
  573TIP3    H223135   1.165   4.265  11.775 -0.4851  0.3437  1.6290
  574TIP3   OH223136   2.931   0.854   4.601  0.1961  0.3315 -0.6863
  574TIP3    H123137   2.885   0.812   4.673  1.9421 -1.3778 -0.5059
  574TIP3    H223138   2.872   0.845   4.526 -1.1721  1.1927  0.2396
  575TIP3   OH223139   3.958   3.637  15.004  0.2122 -0.4952  0.1532
  575TIP3    H123140   3.938   3.657  14.913 -0.6693  0.4297  0.5317
  575TIP3    H223141   3.882   3.587  15.035  0.1296 -0.1068  0.5928
  576TIP3   OH223142   4.484   0.847  16.865 -0.2327  0.0018  0.4243
  576TIP3    H123143   4.573   0.849  16.901  0.5216  2.7196 -1.2901
  576TIP3    H223144   4.452   0.937  16.875 -1.5784 -0.1585 -1.7676
  577TIP3   OH223145   3.839   1.623  10.959 -0.1430 -0.2702  0.9519
  577TIP3    H123146   3.813   1.545  11.007  0.0273 -0.1140  1.3011
  577TIP3    H223147   3.795   1.615  10.874  0.1549 -0.9089  0.8594
  578TIP3   OH223148   1.009   1.804   4.524  0.0114  0.0901 -0.2769
  578TIP3    H123149   1.021   1.710   4.510  0.3635  0.2092 -0.8210
  578TIP3    H223150   1.055   1.822   4.606  1.0214  0.0032 -0.8133
  579TIP3   OH223151   5.322   0.295   1.444  0.0125  0.1603 -0.1057
  579TIP3    H123152   5.382   0.369   1.432 -0.1799  0.1746 -1.1129
  579TIP3    H223153   5.374   0.228   1.487  1.0455 -0.1592 -1.7626
  580TIP3   OH223154   3.430   2.633  11.674 -0.5813  0.4569 -0.5002
  580TIP3    H123155   3.375   2.585  11.611 -0.3553 -0.5092  0.0118
  580TIP3    H223156   3.381   2.629  11.756  0.1540 -0.2547 -0.0841
  581TIP3   OH223157   0.097   3.229  16.590 -0.1880  0.1009 -0.2601
  581TIP3    H123158   0.126   3.319  16.578 -0.0348  0.1299  0.3108
  581TIP3    H223159   0.060   3.226  16.679  0.0960 -0.4700 -0.1534
  582TIP3   OH223160   2.446   0.781   4.463 -0.1759  0.0482 -0.4870
  582TIP3    H123161   2.449   0.728   4.384  0.0501 -0.1992 -0.3149
  582TIP3    H223162   2.453   0.717   4.535 -2.0635  0.0782 -0.2058
  583TIP3   OH223163   3.097   6.249  10.698 -0.3111  0.5276 -0.2168
  583TIP3    H123164   3.117   6.298  10.618  1.2450 -0.2353 -0.3307
  583TIP3    H223165   3.060   6.314  10.757  0.2646  1.5166 -0.9038
  584TIP3   OH223166   3.649   4.111   4.119 -0.0497  0.9495  0.5293
  584TIP3    H123167   3.638   4.191   4.171  2.2421  0.6950  1.5387
  584TIP3    H223168   3.740   4.113   4.091 -0.4656 -0.3705 -1.1131
  585TIP3   OH223169   2.908   3.528  12.791 -0.5170  0.1892  0.9546
  585TIP3    H123170   2.834   3.511  12.849  0.8313 -0.7585  2.4642
  585TIP3    H223171   2.875   3.507  12.703 -2.5081  1.3841  1.3501
  586TIP3   OH223172   3.881   4.698   4.425  0.0845 -0.2711  0.6036
  586TIP3    H123173   3.874   4.639   4.500 -0.5160 -1.1794 -0.1409
  586TIP3    H223174   3.790   4.714   4.399  0.2345  1.0339  0.8106
  587TIP3   OH223175   4.918   0.967   0.711 -0.1150  0.2598 -0.2198
  587TIP3    H123176   4.892   0.991   0.622  0.7239  3.5695  0.3133
  587TIP3    H223177   4.839   0.981   0.763 -0.7844 -2.2552 -0.4228
  588TIP3   OH223178   3.659   1.177  12.602 -0.0316  0.1422  0.4765
  588TIP3    H123179   3.566   1.200  12.611  0.3089  2.1214 -0.4477
  588TIP3    H223180   3.697   1.195  12.688 -0.6659 -1.6884  1.1740
  589TIP3   OH223181   1.797   0.664  16.630 -0.1281  0.1526  0.6220
  589TIP3    H123182   1.861   0.629  16.569 -1.4189  1.9169 -1.9234
  589TIP3    H223183   1.797   0.758  16.613 -3.4892  0.2098  0.2953
  590TIP3   OH223184   1.090   1.943   4.264 -0.0524  0.4246 -0.0703
  590TIP3    H123185   1.070   2.037   4.261  1.7002  0.8147 -0.5720
  590TIP3    H223186   1.080   1.920   4.357 -0.1289  1.2015  0.1242
  591TIP3   OH223187   5.612   4.885  14.177  0.5567  0.4026 -0.0094
  591TIP3    H123188   5.689   4.941  14.183  0.2110  1.3504 -2.7253
  591TIP3    H223189   5.609   4.860  14.085 -1.3724 -1.1035  0.4102
  592TIP3   OH223190   5.060   5.608  11.212  0.0694 -0.1914 -0.2228
  592TIP3    H123191   5.079   5.628  11.304  1.7859 -1.2088 -0.3358
  592TIP3    H223192   5.055   5.513  11.208 -3.2616 -0.1208 -0.6173
  593TIP3   OH223193   4.172   3.419  14.970 -0.2035 -0.2159  0.0277
  593TIP3    H123194   4.164   3.513  14.988 -1.3979 -0.2122 -0.4466
  593TIP3    H223195   4.097   3.379  15.015  0.9670 -1.1123  1.2507
  594TIP3   OH223196   0.961   5.877  12.077 -0.5547 -0.3244  0.1435
  594TIP3    H123197   0.931   5.956  12.031  0.3828  1.0156  1.7298
  594TIP3    H223198   0.881   5.835  12.107 -1.0829 -0.1610 -0.9762
  595TIP3   OH223199   1.584   2.262   5.118  0.3119 -0.4265  0.9889
  595TIP3    H123200   1.592   2.167   5.125 -0.6590 -0.8344 -2.0800
  595TIP3    H223201   1.638   2.286   5.043 -0.0561  1.3517  1.2383
  596TIP3   OH223202   6.177   2.845   0.962 -0.4153  0.0703 -0.0234
  596TIP3    H123203   6.228   2.895   0.898 -0.1218  0.8922  0.8388
  596TIP3    H223204   6.095   2.825   0.917  0.0650  0.0219 -0.9012
  597TIP3   OH223205   1.409   4.873  15.000 -0.3197 -0.2587  0.1248
  597TIP3    H123206   1.354   4.917  15.065  0.9151 -0.3360  1.2700
  597TIP3    H223207   1.460   4.944  14.960 -1.4652 -0.1375 -1.2073
  598TIP3   OH223208   2.966   2.659   4.979 -0.3226 -0.3192  0.1918
  598TIP3    H123209   3.047   2.621   5.013  0.1241  0.8517  0.4817
  598TIP3    H223210   2.935   2.717   5.049 -0.6638  0.3126 -0.4623
  599TIP3   OH223211   4.468   0.440   0.089 -0.2535  0.7639  0.3065
  599TIP3    H123212   4.542   0.501   0.093 -0.2624  0.8659 -0.8611
  599TIP3    H223213   4.423   0.452   0.173  1.0041  0.7414  1.0127
  600TIP3   OH223214   2.777   0.659  14.229 -0.3660 -0.2113 -0.7229
  600TIP3    H123215   2.691   0.631  14.261  0.1584 -0.7934  0.1865
  600TIP3    H223216   2.838   0.593  14.262  0.6535  1.0629  0.0014
  601TIP3   OH223217   5.161   0.758   2.666  0.3095  0.1972 -0.6821
  601TIP3    H123218   5.241   0.801   2.698 -0.2241  1.2831 -0.7565
  601TIP3    H223219   5.182   0.665   2.665  1.2133  0.3727  0.3559
  602TIP3   OH223220   5.255   2.918   3.854  0.0897 -0.3840  0.1783
  602TIP3    H123221   5.185   2.924   3.919  0.5688  1.6604  0.5761
  602TIP3    H223222   5.211   2.890   3.774 -0.4519 -3.4229  1.3895
  603TIP3   OH223223   1.868   2.434   0.535  0.0313 -0.1179 -0.1030
  603TIP3    H123224   1.835   2.390   0.457  1.0791 -2.3531  0.6216
  603TIP3    H223225   1.952   2.473   0.508 -1.2259  2.2098 -0.9321
  604TIP3   OH223226   0.373   3.251   3.882  0.4633 -0.1091 -0.0212
  604TIP3    H123227   0.356   3.341   3.913  0.5390  0.2286 -0.9360
  604TIP3    H223228   0.341   3.251   3.792 -0.5253 -1.3189  0.3132
  605TIP3   OH223229   1.502   4.832  11.535  0.0643 -0.3693 -0.4187
  605TIP3    H123230   1.578   4.891  11.540 -0.5918  0.4830 -0.2476
  605TIP3    H223231   1.426   4.890  11.542 -0.6120 -1.1878 -0.7995
  606TIP3   OH223232   1.204   0.183  16.688 -0.0058 -0.2305  0.0161
  606TIP3    H123233   1.282   0.196  16.634  1.3716 -1.9240  1.4945
  606TIP3    H223234   1.212   0.247  16.758 -0.5811  0.3727 -0.4501
  607TIP3   OH223235   1.358   5.433   4.634 -0.8526 -0.2564 -0.3184
  607TIP3    H123236   1.360   5.514   4.686  1.1783  0.3891 -1.3067
  607TIP3    H223237   1.443   5.392   4.649 -0.7936 -0.8105 -1.9673
  608TIP3   OH223238   2.804   3.335  13.230  0.5998  0.1012  0.7660
  608TIP3    H123239   2.851   3.288  13.299  0.0564  1.1859  1.9248
  608TIP3    H223240   2.712   3.327  13.255  0.1647 -1.3587 -1.0605
  609TIP3   OH223241   6.316   2.262  16.139  0.0475 -0.2033  0.2773
  609TIP3    H123242   6.309   2.167  16.138 -0.5143 -0.2187  2.0065
  609TIP3    H223243   6.397   2.281  16.092  0.2191 -1.5287  0.0011
  610TIP3   OH223244   3.739   2.033   0.933 -0.1125  0.2303  0.0378
  610TIP3    H123245   3.738   2.086   0.853 -2.0655  0.2484  0.0224
  610TIP3    H223246   3.831   2.033   0.961  0.4839  0.8188 -1.7984
  611TIP3   OH223247   6.043   6.759   2.410  0.5200 -0.0840 -0.1020
  611TIP3    H123248   5.985   6.689   2.379  0.2950 -0.1370  0.4329
  611TIP3    H223249   5.991   6.807   2.475  1.1126 -0.2147  0.4834
  612TIP3   OH223250   3.277   2.272  15.243 -0.5557  0.0338 -0.0933
  612TIP3    H123251   3.254   2.207  15.309 -0.4454  0.5165  0.4279
  612TIP3    H223252   3.344   2.230  15.190 -2.5858 -1.4553 -1.6907
  613TIP3   OH223253   5.190   2.467   0.529  0.1412 -0.3003  0.0802
  613TIP3    H123254   5.197   2.527   0.455 -0.8826 -0.6334 -0.2925
  613TIP3    H223255   5.251   2.396   0.508 -0.3055 -0.4978 -0.5402
  614TIP3   OH223256   1.328   2.175   3.445 -0.5544 -0.0398  0.4629
  614TIP3    H123257   1.303   2.261   3.480 -0.7399 -0.1993  0.7306
  614TIP3    H223258   1.395   2.144   3.505 -0.7673 -0.2508  0.5964
  615TIP3   OH223259   3.074   6.190  15.274 -0.4471  0.6638 -0.0139
  615TIP3    H123260   3.169   6.192  15.284 -0.6009  0.2011  1.8751
  615TIP3    H223261   3.046   6.280  15.291 -0.5219  0.2929  2.1470
  616TIP3   OH223262   2.602   6.149   5.796  0.1294  0.3646 -0.0869
  616TIP3    H123263   2.637   6.158   5.707 -1.6737  0.5967 -0.8266
  616TIP3    H223264   2.648   6.216   5.846  2.3751 -0.8391 -0.3943
  617TIP3   OH223265   4.488   2.496   3.729 -0.2363 -0.3453 -0.4793
  617TIP3    H123266   4.434   2.455   3.661 -1.2042 -1.3444  0.8210
  617TIP3    H223267   4.496   2.587   3.702 -2.0358 -0.3225 -1.0884
  618TIP3   OH223268   5.516   4.230   0.478 -0.4053  0.3663 -0.7346
  618TIP3    H123269   5.431   4.243   0.435 -0.4450 -1.5185 -1.3611
  618TIP3    H223270   5.510   4.142   0.516  0.7866  0.7433  0.3922
  619TIP3   OH223271   1.300   2.463  10.411  0.2186 -0.8062  0.1549
  619TIP3    H123272   1.220   2.467  10.359  1.3996  1.1123 -1.6629
  619TIP3    H223273   1.274   2.418  10.491 -2.6281 -0.4173 -0.4440
  620TIP3   OH223274   5.071   1.166   5.331 -0.3543  0.0477  0.0512
  620TIP3    H123275   5.108   1.101   5.391  1.4978  0.2956 -0.7852
  620TIP3    H223276   4.988   1.191   5.373 -0.7208 -2.1727  0.8426
  621TIP3   OH223277   6.246   4.711   1.192  0.4525 -0.4614  0.0464
  621TIP3    H123278   6.191   4.677   1.121 -2.1299  1.2246  1.0981
  621TIP3    H223279   6.260   4.803   1.169 -0.7808  0.2193  1.8875
  622TIP3   OH223280   1.209   3.653  16.441  0.1121 -0.2775 -0.3049
  622TIP3    H123281   1.142   3.719  16.427  0.0029 -0.4742 -0.7238
  622TIP3    H223282   1.255   3.682  16.520  0.2295  0.4347 -0.6249
  623TIP3   OH223283   2.259   6.597  11.220  0.9733 -0.2774  0.2089
  623TIP3    H123284   2.257   6.688  11.250 -0.5996 -0.1254 -0.2610
  623TIP3    H223285   2.318   6.598  11.146 -0.2313  0.7250 -0.7881
  624TIP3   OH223286   6.724   5.204   5.266 -1.0817 -0.0240  0.4742
  624TIP3    H123287   6.772   5.230   5.188 -0.8175  0.2935  0.7404
  624TIP3    H223288   6.792   5.197   5.334 -0.8079 -3.0390  0.0670
  625TIP3   OH223289   5.641   0.583   0.176 -0.4557  0.1870 -0.0965
  625TIP3    H123290   5.720   0.554   0.131 -1.2931  0.2742 -1.6999
  625TIP3    H223291   5.621   0.513   0.238  0.3582 -0.2535 -0.3203
  626TIP3   OH223292   4.121   6.473  11.927  0.0969  0.0666  0.2417
  626TIP3    H123293   4.139   6.559  11.888  1.6225  0.3991  1.5782
  626TIP3    H223294   4.070   6.494  12.006  1.6043 -0.1117  1.2932
  627TIP3   OH223295   5.394   1.942  13.049  0.6551  0.2618  0.4210
  627TIP3    H123296   5.474   1.963  13.097 -0.0878 -1.4741  2.5687
  627TIP3    H223297   5.404   1.988  12.965  2.8097  1.9976  1.5174
  628TIP3   OH223298   1.155   3.477   0.645  0.4267  0.2317  0.4477
  628TIP3    H123299   1.215   3.471   0.571 -0.4304 -1.1924 -0.1639
  628TIP3    H223300   1.082   3.531   0.614  1.4186  2.1734  1.2703
  629TIP3   OH223301   3.575   6.440  14.082 -0.2388 -0.6373  0.3084
  629TIP3    H123302   3.484   6.414  14.072 -0.2389 -0.7030  0.4849
  629TIP3    H223303   3.621   6.389  14.015 -0.3967 -0.2510 -0.0922
  630TIP3   OH223304   3.195   1.947   3.450 -0.0964  0.3473 -0.1329
  630TIP3    H123305   3.235   2.000   3.519  3.4479  1.2133 -2.5364
  630TIP3    H223306   3.153   2.011   3.392  0.8827  0.1876 -1.0536
  631TIP3   OH223307   2.496   2.099  12.688 -0.6358 -0.0561 -1.4993
  631TIP3    H123308   2.570   2.045  12.659  1.0906  1.4689 -0.1699
  631TIP3    H223309   2.511   2.184  12.646 -1.7214  0.2499 -1.2852
  632TIP3   OH223310   4.402   2.719   2.593 -0.0102  0.8717  0.4624
  632TIP3    H123311   4.487   2.680   2.572 -1.1391 -0.5986 -1.5829
  632TIP3    H223312   4.379   2.681   2.678  0.1745 -0.8452 -0.2182
  633TIP3   OH223313   0.592   1.468  14.168 -0.1884 -0.2625  0.6329
  633TIP3    H123314   0.583   1.505  14.255  2.2389  0.1036  0.7859
  633TIP3    H223315   0.686   1.456  14.156 -0.6450 -4.6571 -0.1492
  634TIP3   OH223316   2.954   4.264   0.061 -0.4324  0.3069 -0.0018
  634TIP3    H123317   2.952   4.351   0.101 -1.8419 -0.4453  1.6970
  634TIP3    H223318   3.044   4.254   0.030  0.5136  1.3445  2.1898
  635TIP3   OH223319   5.875   4.027   2.744  0.1923 -0.1416 -0.4764
  635TIP3    H123320   5.892   3.969   2.818  1.5562  0.2977 -0.4134
  635TIP3    H223321   5.962   4.052   2.713 -0.3657  0.6538 -1.4644
  636TIP3   OH223322   3.850   3.924   3.835  0.0482  0.4482 -0.5142
  636TIP3    H123323   3.782   3.991   3.838  0.3533  0.8730 -2.1964
  636TIP3    H223324   3.847   3.890   3.746 -0.1125 -1.8347  0.2847
  637TIP3   OH223325   4.349   6.117   0.400 -0.2466 -0.3180 -0.4355
  637TIP3    H123326   4.257   6.105   0.379 -0.5500 -0.8688  1.0427
  637TIP3    H223327   4.354   6.205   0.437 -0.6389 -1.0639  1.5296
  638TIP3   OH223328   1.104   5.299   0.633 -0.4146  0.1532 -0.2490
  638TIP3    H123329   1.195   5.327   0.622 -0.1273  0.5981  2.6474
  638TIP3    H223330   1.056   5.379   0.654 -0.7807 -0.5206  1.6762
  639TIP3   OH223331   0.838   1.186   1.073  0.4192 -0.2458  0.0412
  639TIP3    H123332   0.921   1.148   1.045 -0.4560 -0.8809 -1.8360
  639TIP3    H223333   0.775   1.159   1.006 -0.9660  1.6332  0.4880
  640TIP3   OH223334   4.958   2.313  12.259 -0.6964 -0.1824 -0.1705
  640TIP3    H123335   5.024   2.382  12.264 -1.1816  0.2174  0.8717
  640TIP3    H223336   5.008   2.234  12.239  0.1727  0.0385  1.0248
  641TIP3   OH223337   1.607   1.821  13.139  0.6774  0.4810 -0.1699
  641TIP3    H123338   1.563   1.839  13.056  2.0590 -2.1539 -1.6343
  641TIP3    H223339   1.618   1.906  13.180 -1.1067  1.7528 -2.1315
  642TIP3   OH223340   3.309   4.659   2.637  0.2469 -0.3863 -0.1184
  642TIP3    H123341   3.382   4.661   2.575  1.7347  1.2223  1.5464
  642TIP3    H223342   3.343   4.609   2.711 -0.5375 -0.0681  0.4594
  643TIP3   OH223343   2.674   5.819   1.484  0.8343 -0.5298 -0.3707
  643TIP3    H123344   2.743   5.865   1.530  0.4129  1.1398 -1.3351
  643TIP3    H223345   2.711   5.797   1.399  1.5285 -3.3846  0.5546
  644TIP3   OH223346   6.281   3.332   4.262 -0.6137  0.2030  0.8534
  644TIP3    H123347   6.334   3.284   4.325 -2.3453 -0.4938  1.8417
  644TIP3    H223348   6.230   3.265   4.217  0.5994  0.6802 -1.3727
  645TIP3   OH223349   4.070   3.374   1.134  0.0809 -0.4584  0.5360
  645TIP3    H123350   3.997   3.329   1.177 -1.1155 -0.5962 -1.5336
  645TIP3    H223351   4.044   3.466   1.132  0.4540 -0.3460  0.7001
  646TIP3   OH223352   0.759   6.585  14.819  0.0453  0.2897 -0.4817
  646TIP3    H123353   0.808   6.667  14.829 -1.8336  1.2288  2.7277
  646TIP3    H223354   0.777   6.538  14.901  0.3513 -2.1590 -1.8748
  647TIP3   OH223355   5.238   3.913  15.918 -1.1130  0.3910 -0.1268
  647TIP3    H123356   5.162   3.970  15.932 -0.7962  0.8203 -0.1385
  647TIP3    H223357   5.308   3.972  15.892 -0.6217  0.0666  0.4398
  648TIP3   OH223358   4.185   6.467   3.528  0.1454  0.3635 -0.2707
  648TIP3    H123359   4.216   6.507   3.447  0.4440  3.0677  1.0836
  648TIP3    H223360   4.261   6.469   3.587 -0.0350 -1.6456  0.1090
  649TIP3   OH223361   4.648   3.418  13.326  0.3713 -0.0595 -0.1421
  649TIP3    H123362   4.631   3.480  13.255 -0.4510 -1.7204 -1.4591
  649TIP3    H223363   4.568   3.419  13.378  0.3030 -0.1048 -0.2458
  650TIP3   OH223364   0.805   1.660   4.260  0.0809  0.3102  0.2481
  650TIP3    H123365   0.790   1.580   4.311 -0.1791 -1.4531 -2.3891
  650TIP3    H223366   0.894   1.686   4.281  0.9331 -1.9144 -0.3327
  651TIP3   OH223367   4.078   2.681  14.765 -0.0768  0.0069 -0.1987
  651TIP3    H123368   3.995   2.695  14.720 -1.1476 -1.7550  1.0968
  651TIP3    H223369   4.106   2.769  14.792 -1.2835  0.6773 -1.0494
  652TIP3   OH223370   4.678   0.107   3.273 -0.3678 -0.3725 -0.7179
  652TIP3    H123371   4.731   0.183   3.248  0.4661 -0.0370  1.8015
  652TIP3    H223372   4.600   0.114   3.218 -0.1399  2.1022 -0.8555
  653TIP3   OH223373   3.029   6.497  10.505  0.0592 -0.1743 -0.2193
  653TIP3    H123374   2.941   6.520  10.474 -0.1156  0.6063  0.8218
  653TIP3    H223375   3.053   6.567  10.565  1.8738  0.2368 -1.3230
  654TIP3   OH223376   6.164   0.078  12.062  0.5328 -0.6531  0.5772
  654TIP3    H123377   6.157  -0.016  12.046  0.1449 -0.9607  2.3221
  654TIP3    H223378   6.141   0.119  11.979  0.0687 -2.1009 -0.0282
  655TIP3   OH223379   0.254   0.784   6.556  0.6533 -0.4851 -0.3153
  655TIP3    H123380   0.257   0.744   6.643 -1.8785  0.2617  0.1985
  655TIP3    H223381   0.167   0.823   6.551  1.5362  1.4027 -2.3604
  656TIP3   OH223382   4.603   6.196   1.094 -0.4819  1.0811  0.0527
  656TIP3    H123383   4.556   6.168   1.015 -0.1059  3.4641 -1.1127
  656TIP3    H223384   4.640   6.281   1.071  1.3823  0.9440  2.1389
  657TIP3   OH223385   0.819   4.757  15.138 -0.2508 -0.4048  0.1024
  657TIP3    H123386   0.811   4.691  15.207 -1.8832 -0.7514 -0.3728
  657TIP3    H223387   0.801   4.840  15.183 -0.1863 -0.5079  0.3185
  658TIP3   OH223388   3.866   4.916  10.741 -0.0347 -0.2667  0.4577
  658TIP3    H123389   3.815   4.854  10.793 -1.6129  2.0405  1.8458
  658TIP3    H223390   3.940   4.938  10.798 -0.3631  0.3127  0.6705
  659TIP3   OH223391   4.183   6.621  11.323 -0.3535  0.3784 -0.0029
  659TIP3    H123392   4.111   6.560  11.305  0.6557 -0.5711 -0.9713
  659TIP3    H223393   4.249   6.601  11.257  0.5620  1.6407  0.4865
  660TIP3   OH223394   2.794   3.255   1.791 -0.4077 -0.3054  0.1652
  660TIP3    H123395   2.873   3.303   1.765 -0.5737 -0.3165 -0.3872
  660TIP3    H223396   2.826   3.180   1.841 -0.0431 -0.4986 -0.3487
  661TIP3   OH223397   6.538   5.042  11.970 -0.1054  0.1618 -0.2911
  661TIP3    H123398   6.586   5.059  12.051 -2.1013 -1.0187  1.2356
  661TIP3    H223399   6.467   5.106  11.970 -0.2230  0.0425 -1.0519
  662TIP3   OH223400   5.758   5.129   3.917  0.2620 -0.2256 -0.0373
  662TIP3    H123401   5.844   5.138   3.876 -0.1915  0.4711 -0.8654
  662TIP3    H223402   5.732   5.219   3.938 -0.0556 -0.4713  0.6783
  663TIP3   OH223403   5.127   3.066   1.273 -0.4485  0.2991  0.0011
  663TIP3    H123404   5.191   3.136   1.268 -0.5751  0.4907  0.8479
  663TIP3    H223405   5.179   2.986   1.270 -0.2552  0.4355 -0.3656
  664TIP3   OH223406   5.601   1.865  11.574 -0.3120 -0.1000 -0.0362
  664TIP3    H123407   5.624   1.953  11.606 -2.4519  0.0361  1.3002
  664TIP3    H223408   5.588   1.814  11.654 -0.6551 -1.2132 -0.7946
  665TIP3   OH223409   5.273   1.472   3.453 -0.0169 -0.2755  0.2605
  665TIP3    H123410   5.249   1.479   3.360  1.0458  1.7326  0.0830
  665TIP3    H223411   5.189   1.473   3.499 -0.5422 -0.8032 -0.6456
  666TIP3   OH223412   3.060   0.122  12.373  0.7347  0.5979 -0.2084
  666TIP3    H123413   3.071   0.029  12.349  0.7305  0.4402  0.3800
  666TIP3    H223414   2.967   0.140  12.357  0.5006  0.2095  0.6283
  667TIP3   OH223415   2.406   0.232  13.375 -0.3431  0.4105 -0.5700
  667TIP3    H123416   2.426   0.282  13.454 -2.3089  1.1273 -0.4471
  667TIP3    H223417   2.396   0.299  13.307 -2.7283  0.2734 -0.4659
  668TIP3   OH223418   5.321   1.279   4.551 -0.5436  0.7237 -1.1003
  668TIP3    H123419   5.355   1.353   4.602 -0.0223  0.7046 -1.4180
  668TIP3    H223420   5.353   1.202   4.598 -0.7741  0.6999 -0.9806
  669TIP3   OH223421   2.763   5.512  15.280  0.8823 -0.5292  0.0520
  669TIP3    H123422   2.670   5.507  15.256  0.7344  1.0451  0.2314
  669TIP3    H223423   2.797   5.586  15.229  1.9427 -0.8088  0.3281
  670TIP3   OH223424   6.797   5.830  12.705  0.1783  0.1070  0.0166
  670TIP3    H123425   6.878   5.795  12.670  0.2781  0.9999 -0.6912
  670TIP3    H223426   6.748   5.753  12.735  0.9692 -0.4976 -0.2240
  671TIP3   OH223427   4.114   4.614   2.842 -0.3157 -0.5301  0.2007
  671TIP3    H123428   4.135   4.651   2.928 -0.0708  0.5468 -0.2964
  671TIP3    H223429   4.198   4.603   2.799 -0.3859 -1.6952  0.3240
  672TIP3   OH223430   4.215   1.091  15.877  0.2093 -0.4626  0.0808
  672TIP3    H123431   4.268   1.151  15.930 -0.2134  0.2288 -0.2574
  672TIP3    H223432   4.224   1.124  15.788 -2.0907  0.7096  0.2123
  673TIP3   OH223433   0.895   0.306   4.828  0.0077  0.1843  0.6627
  673TIP3    H123434   0.828   0.243   4.803  1.5959 -0.7606 -1.5555
  673TIP3    H223435   0.969   0.253   4.856  1.4881  0.9236 -1.5393
  674TIP3   OH223436   1.063   6.645  14.250 -0.0152  0.0624  0.7356
  674TIP3    H123437   1.102   6.690  14.175  0.4744  0.1224  1.0220
  674TIP3    H223438   1.123   6.573  14.269  0.4354  0.6878  1.7391
  675TIP3   OH223439   2.783   3.397  14.442  0.3019  0.0061  0.3679
  675TIP3    H123440   2.706   3.429  14.489  0.2386  1.0624 -0.4214
  675TIP3    H223441   2.763   3.305  14.423 -0.6301  0.1871  0.4364
  676TIP3   OH223442   2.911   6.125  15.057 -0.2498 -0.1505  0.1889
  676TIP3    H123443   2.923   6.031  15.051  0.1109 -0.2424  1.9019
  676TIP3    H223444   2.949   6.149  15.141 -0.1802  1.5547 -0.2914
  677TIP3   OH223445   3.292   2.804  14.028  0.1657  0.0864 -0.1049
  677TIP3    H123446   3.351   2.738  14.065 -0.0730 -1.1563 -1.8470
  677TIP3    H223447   3.267   2.858  14.103  0.9351 -1.3592  1.2480
  678TIP3   OH223448   4.730   1.997   7.002 -0.2267 -0.7529  0.7366
  678TIP3    H123449   4.701   1.971   6.915  1.4815 -0.7753  0.1221
  678TIP3    H223450   4.738   2.092   6.997 -1.1825 -0.6370  1.2355
  679TIP3   OH223451   0.913   1.515   5.562  0.6589  0.1977  0.4386
  679TIP3    H123452   0.923   1.497   5.655 -0.3684  0.8283  0.6892
  679TIP3    H223453   0.901   1.610   5.557 -1.2665 -0.0217 -0.1165
  680TIP3   OH223454   6.589   5.875   1.727 -0.4280  0.1545 -0.2091
  680TIP3    H123455   6.519   5.867   1.792 -0.0958  0.1430  0.1511
  680TIP3    H223456   6.596   5.969   1.712 -0.3994  0.1695 -0.1072
  681TIP3   OH223457   4.957   3.757   2.231  0.3714 -0.7453 -0.0191
  681TIP3    H123458   4.885   3.819   2.249  0.1701 -0.9903  0.0256
  681TIP3    H223459   4.926   3.674   2.267  0.7982 -0.7906  0.2513
  682TIP3   OH223460   1.949   0.041  14.918 -0.2226 -0.3222  0.3727
  682TIP3    H123461   2.030   0.011  14.876 -0.9150 -1.5709 -0.1338
  682TIP3    H223462   1.957   0.136  14.920  1.4983 -0.4313  0.8372
  683TIP3   OH223463   3.322   4.347  12.738 -0.5084 -0.2479  0.4609
  683TIP3    H123464   3.357   4.407  12.803 -1.8659 -0.1839  1.1754
  683TIP3    H223465   3.292   4.403  12.666  0.9390 -0.3151 -0.2377
  684TIP3   OH223466   5.882   6.016  14.814  0.0712  0.0128  1.0327
  684TIP3    H123467   5.922   5.938  14.776 -0.8973 -0.0286  0.0516
  684TIP3    H223468   5.793   5.990  14.838 -0.0168  0.6118  1.3977
  685TIP3   OH223469   1.964   4.156   6.163 -0.2924 -0.2590 -1.0061
  685TIP3    H123470   2.006   4.086   6.213  0.8774 -0.0663 -1.6838
  685TIP3    H223471   1.952   4.227   6.226 -0.8430 -0.8011 -0.4866
  686TIP3   OH223472   5.441   0.255   3.559 -0.0089  0.2986 -0.5060
  686TIP3    H123473   5.424   0.349   3.569 -1.0622  0.1508 -0.7250
  686TIP3    H223474   5.495   0.232   3.635  0.6943  1.1748 -0.7248
  687TIP3   OH223475   4.930   3.175   5.730 -0.1017  0.2572  0.0061
  687TIP3    H123476   4.870   3.176   5.805  0.2500 -1.3756  0.3344
  687TIP3    H223477   4.993   3.245   5.749  0.3288 -0.4974  1.5344
  688TIP3   OH223478   5.594   5.814   3.848  0.1667  0.2712 -0.0027
  688TIP3    H123479   5.512   5.778   3.883  0.2972 -0.7133 -0.6693
  688TIP3    H223480   5.568   5.897   3.808 -0.7619 -0.6300 -1.3436
  689TIP3   OH223481   2.842   4.850   5.275 -0.1490 -0.0091 -0.4558
  689TIP3    H123482   2.875   4.880   5.190 -1.7760  0.5634 -0.9406
  689TIP3    H223483   2.879   4.763   5.287  2.6566  1.1355 -0.2411
  690TIP3   OH223484   3.715   3.050  15.958  0.3958 -0.0593 -0.3270
  690TIP3    H123485   3.703   2.973  15.903  2.1971 -1.3889  0.9984
  690TIP3    H223486   3.638   3.051  16.015 -0.8992  0.6646 -1.9995
  691TIP3   OH223487   1.227   3.613   2.562 -0.7635 -0.0252 -0.2485
  691TIP3    H123488   1.182   3.618   2.646 -2.5126  1.9164 -1.2128
  691TIP3    H223489   1.308   3.661   2.574 -2.4945  3.1997 -0.4533
  692TIP3   OH223490   0.984   4.935  15.980 -0.5435 -0.0393 -0.0932
  692TIP3    H123491   1.002   4.866  15.916 -0.1223  0.1802 -0.2114
  692TIP3    H223492   0.941   4.889  16.052 -2.6215 -0.0205 -1.2525
  693TIP3   OH223493   5.607   1.523  15.597  0.4624 -0.2382 -0.2236
  693TIP3    H123494   5.688   1.519  15.648 -1.0866 -0.2162  2.3693
  693TIP3    H223495   5.572   1.435  15.600 -0.4360  0.1220  0.0736
  694TIP3   OH223496   1.163   2.996   4.493  0.3729 -0.5620  0.1239
  694TIP3    H123497   1.086   2.951   4.527 -0.4258  0.9984  0.4704
  694TIP3    H223498   1.223   2.926   4.468 -0.3480 -1.8026  1.6957
  695TIP3   OH223499   6.203   5.769   0.768 -0.2059  0.1484 -0.2672
  695TIP3    H123500   6.243   5.851   0.736 -1.4010  0.5597 -0.7586
  695TIP3    H223501   6.129   5.754   0.710  0.0349 -1.3461 -0.2266
  696TIP3   OH223502   3.868   4.251  13.262 -0.5238  0.0935  0.8277
  696TIP3    H123503   3.776   4.266  13.284 -1.0510 -1.5118 -0.0791
  696TIP3    H223504   3.865   4.204  13.179  1.1588  0.5570  0.4637
  697TIP3   OH223505   3.297   4.041  16.114 -0.0241  0.1659  0.2094
  697TIP3    H123506   3.333   4.041  16.203  2.5035 -0.5548 -0.7303
  697TIP3    H223507   3.372   4.020  16.058 -1.7841 -0.6027 -2.0033
  698TIP3   OH223508   4.784   0.481  13.085 -0.2355  0.2411  0.3085
  698TIP3    H123509   4.728   0.406  13.108 -1.1805 -0.7822 -4.3185
  698TIP3    H223510   4.740   0.556  13.125 -2.6522 -1.0513  0.3210
  699TIP3   OH223511   6.605   1.160  12.478 -0.0911  0.0993 -0.0470
  699TIP3    H123512   6.571   1.125  12.561  1.7088 -2.6880 -0.3617
  699TIP3    H223513   6.700   1.156  12.487  0.1427  0.7080 -1.8713
  700TIP3   OH223514   6.384   6.087  11.213  0.2647 -0.0192 -0.5035
  700TIP3    H123515   6.414   6.048  11.131 -0.5122 -0.3736 -0.6340
  700TIP3    H223516   6.298   6.048  11.228  0.1609  0.4545  0.1971
  701TIP3   OH223517   4.133   2.157   0.873 -0.0451 -0.4022 -0.0944
  701TIP3    H123518   4.152   2.064   0.862  2.0437 -0.1949  1.1880
  701TIP3    H223519   4.170   2.198   0.795  1.1531 -0.4416  0.4311
  702TIP3   OH223520   0.390   1.361  14.858  0.2752  0.1884 -0.4618
  702TIP3    H123521   0.304   1.379  14.896  0.1171  2.3529 -1.6714
  702TIP3    H223522   0.378   1.279  14.810 -1.3814  0.8623 -1.2892
  703TIP3   OH223523   3.630   3.919  13.352 -0.1746 -0.3055  0.0286
  703TIP3    H123524   3.656   3.970  13.276  1.0495 -0.0182  0.6260
  703TIP3    H223525   3.587   3.982  13.410  0.3658 -0.1799  0.2933
  704TIP3   OH223526   2.568   2.243  11.570  0.0834  0.1636 -0.0930
  704TIP3    H123527   2.558   2.203  11.656 -0.0487  0.0282 -0.1721
  704TIP3    H223528   2.481   2.275  11.547  0.2661  0.8681  0.1497
  705TIP3   OH223529   1.689   2.404   5.552  0.4513 -0.2146  0.1018
  705TIP3    H123530   1.766   2.461   5.553  0.2270  0.1223  1.8046
  705TIP3    H223531   1.641   2.427   5.632  0.2796 -2.6690  0.7956
  706TIP3   OH223532   1.683   3.384   2.856 -0.0563 -0.4190  0.4845
  706TIP3    H123533   1.604   3.336   2.831 -0.0888 -0.4085  0.5683
  706TIP3    H223534   1.663   3.421   2.942 -0.1027 -0.0961  0.3401
  707TIP3   OH223535   6.424   2.317   3.377  0.5081  0.4817  0.3842
  707TIP3    H123536   6.476   2.397   3.388  1.5376  0.0013 -0.7784
  707TIP3    H223537   6.399   2.318   3.284  0.9767 -0.7916  0.2244
  708TIP3   OH223538   3.393   0.244  13.410  0.0634 -0.8340  0.0867
  708TIP3    H123539   3.338   0.200  13.476  0.8904 -3.2692 -0.7330
  708TIP3    H223540   3.478   0.252  13.452 -0.2343  0.6337  0.4498
  709TIP3   OH223541   6.296   6.096  12.697 -0.4054 -0.6185  0.4002
  709TIP3    H123542   6.328   6.186  12.709 -0.3556 -0.7401  1.2780
  709TIP3    H223543   6.201   6.106  12.686 -0.2076 -0.3290 -1.2972
  710TIP3   OH223544   4.089   0.328   3.711 -0.6640  0.2443 -0.1931
  710TIP3    H123545   4.077   0.417   3.677  1.0260  0.7195  0.3670
  710TIP3    H223546   4.102   0.339   3.805 -2.2164 -0.7812  0.1805
  711TIP3   OH223547   0.930   3.612  13.454 -0.2644 -0.4678  0.2232
  711TIP3    H123548   0.909   3.693  13.408 -0.4485 -0.5462  0.1666
  711TIP3    H223549   0.892   3.623  13.541 -0.5170 -0.5959  0.1314
  712TIP3   OH223550   4.608   4.835  14.179 -0.0437 -0.2308  0.4560
  712TIP3    H123551   4.515   4.852  14.192 -0.2073 -0.5595 -0.2380
  712TIP3    H223552   4.647   4.849  14.265 -0.4681  1.5984  0.4098
  713TIP3   OH223553   0.810   5.817   6.284  0.4650  0.1295  0.0361
  713TIP3    H123554   0.879   5.783   6.228  0.0649  0.5462 -0.7351
  713TIP3    H223555   0.795   5.748   6.348  1.3316 -0.1179 -0.0122
  714TIP3   OH223556   6.139   3.348   6.448  0.2012 -0.5750 -0.3662
  714TIP3    H123557   6.074   3.344   6.377 -0.0860 -1.5428 -0.0632
  714TIP3    H223558   6.131   3.436   6.483 -0.8535 -0.6368 -0.4288
  715TIP3   OH223559   6.633   3.770   4.164  0.0532  0.3092  0.1592
  715TIP3    H123560   6.706   3.739   4.110 -0.9568 -0.3411 -0.8855
  715TIP3    H223561   6.668   3.845   4.213  1.7795 -0.7923  0.6798
  716TIP3   OH223562   5.455   1.993  15.438 -0.0973  0.4093  0.2851
  716TIP3    H123563   5.461   1.914  15.492 -0.0362  1.4122  1.8184
  716TIP3    H223564   5.377   1.980  15.385  0.5289 -1.1502 -0.3297
  717TIP3   OH223565   5.975   4.587   2.310 -0.2780 -0.7078 -0.0513
  717TIP3    H123566   6.032   4.511   2.316  0.6807 -0.2155 -2.0522
  717TIP3    H223567   5.922   4.572   2.231 -0.5087  0.3921 -0.1302
  718TIP3   OH223568   3.245   4.542  12.250 -0.3133  0.4130 -0.1398
  718TIP3    H123569   3.170   4.503  12.205 -0.3331 -0.5079  0.6699
  718TIP3    H223570   3.220   4.634  12.261 -1.9879 -0.1641  1.4058
  719TIP3   OH223571   5.492   4.514  16.056 -0.8060  0.2661  0.1882
  719TIP3    H123572   5.406   4.509  16.014 -0.5609 -1.1363 -0.2015
  719TIP3    H223573   5.554   4.505  15.984 -0.3778 -1.6832  0.7482
  720TIP3   OH223574   0.370   5.921   5.347 -0.8942 -0.2868 -0.2287
  720TIP3    H123575   0.465   5.915   5.335 -0.5709  0.3180  1.6360
  720TIP3    H223576   0.334   5.861   5.282  0.8238 -1.3586 -0.2719
  721TIP3   OH223577   5.263   0.416   4.202 -0.3815  0.4223 -0.7552
  721TIP3    H123578   5.193   0.436   4.265 -1.7884 -0.7384 -1.8708
  721TIP3    H223579   5.326   0.365   4.252 -0.1595  1.7046  0.3430
  722TIP3   OH223580   5.335   5.305  13.530  0.5728 -0.7114 -0.3180
  722TIP3    H123581   5.402   5.373  13.536  0.3847 -0.5576  0.0624
  722TIP3    H223582   5.269   5.330  13.594  0.5364 -1.2962 -0.1203
  723TIP3   OH223583   4.447   0.573   4.570  0.2640 -0.1602 -0.0447
  723TIP3    H123584   4.542   0.567   4.579  0.3234  1.8840  1.3441
  723TIP3    H223585   4.434   0.619   4.488  0.4641 -0.5147 -0.2776
  724TIP3   OH223586   0.697   5.586   2.045  0.1101  0.0173  0.4064
  724TIP3    H123587   0.700   5.621   1.956  1.1782  1.6725  1.0452
  724TIP3    H223588   0.783   5.545   2.057 -0.1578 -0.5007  0.5577
  725TIP3   OH223589   4.135   3.985   3.095  0.3646  0.3175 -0.1020
  725TIP3    H123590   4.171   4.064   3.135  0.4005  0.8586 -1.1531
  725TIP3    H223591   4.048   3.976   3.132  1.1537 -0.4064  1.6788
  726TIP3   OH223592   0.938   4.676  12.564  0.2348 -0.1332  0.1731
  726TIP3    H123593   0.975   4.610  12.623 -1.6880  0.6024  2.3383
  726TIP3    H223594   0.970   4.651  12.477  1.7032 -2.3372  1.2543
  727TIP3   OH223595   6.651   3.844  15.642 -0.0779  0.5954  0.1866
  727TIP3    H123596   6.738   3.883  15.636 -0.2592  1.0753  0.6420
  727TIP3    H223597   6.665   3.751  15.624  1.0471  0.0012  3.4718
  728TIP3   OH223598   4.126   4.150   0.208  0.6889  0.3771 -0.0664
  728TIP3    H123599   4.160   4.145   0.297  0.4080 -0.0598  0.0190
  728TIP3    H223600   4.202   4.136   0.152  0.7374 -0.1024  0.1180
  729TIP3   OH223601   4.192   5.328  13.616  0.1196 -0.0497 -0.4033
  729TIP3    H123602   4.184   5.323  13.521 -0.1019  2.2614 -0.5461
  729TIP3    H223603   4.117   5.379  13.644  0.5576 -0.1158  0.9606
  730TIP3   OH223604   0.105   0.908   6.197 -0.6118  0.7644 -0.2917
  730TIP3    H123605   0.119   0.900   6.102  1.0620 -1.2390  0.0376
  730TIP3    H223606   0.187   0.877   6.236 -1.7378  0.2532  1.8325
  731TIP3   OH223607   3.435   5.810   2.874  0.1717  0.2348  0.5165
  731TIP3    H123608   3.530   5.803   2.873  0.0750 -1.6681 -0.1774
  731TIP3    H223609   3.407   5.739   2.931 -0.8981 -1.2173 -1.6938
  732TIP3   OH223610   1.531   4.802   4.827 -0.1615  0.7653 -0.0396
  732TIP3    H123611   1.624   4.781   4.838  0.0503  2.0249  0.7748
  732TIP3    H223612   1.488   4.762   4.903 -0.2853  0.2547 -0.3723
  733TIP3   OH223613   5.918   6.424  13.250  0.4967  0.0641  0.0740
  733TIP3    H123614   5.898   6.444  13.158  1.3502  0.2776 -0.0677
  733TIP3    H223615   5.835   6.391  13.285  0.0670  0.3093 -0.6788
  734TIP3   OH223616   2.120   1.572  12.541  0.4553 -0.1375 -0.0230
  734TIP3    H123617   2.080   1.548  12.625 -1.8140  0.2502 -0.9283
  734TIP3    H223618   2.196   1.514  12.533 -1.1296 -2.4758  0.8364
  735TIP3   OH223619   2.832   1.372   5.812 -0.7025 -0.3235  0.1180
  735TIP3    H123620   2.889   1.316   5.760 -0.0348  0.6787 -0.2523
  735TIP3    H223621   2.775   1.415   5.749 -0.4964  0.2140  0.2915
  736TIP3   OH223622   4.413   6.258   0.776  0.6281  0.2533 -0.2771
  736TIP3    H123623   4.319   6.269   0.763  0.2167 -0.6205  1.6059
  736TIP3    H223624   4.451   6.341   0.747 -0.8943  1.2367  0.4062
  737TIP3   OH223625   4.930   0.817   2.553 -0.4179 -0.0331 -0.2930
  737TIP3    H123626   5.021   0.793   2.568 -0.8044 -1.9565 -0.7996
  737TIP3    H223627   4.887   0.802   2.637 -0.8762 -2.3465 -0.8870
  738TIP3   OH223628   2.943   4.292  13.579  0.1235 -0.0317 -0.5359
  738TIP3    H123629   3.027   4.324  13.613 -0.1388  2.3108 -1.9144
  738TIP3    H223630   2.965   4.207  13.540  1.5806 -0.0618  0.2676
  739TIP3   OH223631   2.652   1.864   4.960  0.1516  0.8963  0.6580
  739TIP3    H123632   2.742   1.868   4.989  0.9775 -1.2498 -1.2696
  739TIP3    H223633   2.603   1.834   5.036  1.7541 -1.8725  0.7053
  740TIP3   OH223634   0.883   2.617   0.946  0.2633 -0.3160 -0.3558
  740TIP3    H123635   0.970   2.616   0.906 -0.0015 -2.4025 -1.0142
  740TIP3    H223636   0.849   2.705   0.930  1.7922  0.1611 -1.1005
  741TIP3   OH223637   1.327   1.042  16.303 -0.3170  0.1395 -0.2339
  741TIP3    H123638   1.333   1.046  16.207 -0.7670  0.5924 -0.2460
  741TIP3    H223639   1.320   0.949  16.322 -0.5144  0.0602 -0.6637
  742TIP3   OH223640   4.797   1.764  14.130 -0.0320 -0.1847  0.0672
  742TIP3    H123641   4.816   1.777  14.223  1.3584  1.6129 -0.4216
  742TIP3    H223642   4.762   1.675  14.126  0.2553 -0.4683  2.2491
  743TIP3   OH223643   5.699   4.010  12.765  0.1305 -0.3105  0.1360
  743TIP3    H123644   5.657   3.978  12.685  0.4078 -0.6384  0.1178
  743TIP3    H223645   5.661   3.957  12.835  3.1314 -3.3005 -0.2349
  744TIP3   OH223646   2.118   1.517   2.604 -0.8272 -0.0930 -0.1090
  744TIP3    H123647   2.030   1.487   2.627 -0.8706  1.0757  1.4652
  744TIP3    H223648   2.107   1.610   2.584 -0.1641 -0.2713 -1.3620
  745TIP3   OH223649   5.654   0.289   4.955 -0.1827  0.7472  0.4824
  745TIP3    H123650   5.637   0.311   5.046  0.5755 -0.5881  0.9855
  745TIP3    H223651   5.601   0.211   4.939  0.2763  0.5210  0.0229
  746TIP3   OH223652   5.767   5.744  11.920  0.9025  0.1368 -0.4416
  746TIP3    H123653   5.722   5.662  11.900  0.1075  0.8214 -1.5362
  746TIP3    H223654   5.770   5.747  12.016 -1.0984 -0.0856 -0.3444
  747TIP3   OH223655   1.168   3.388  11.056 -0.3604 -0.0998  0.0029
  747TIP3    H123656   1.174   3.472  11.010  1.3867  0.2626  0.7859
  747TIP3    H223657   1.260   3.361  11.068 -0.8762 -1.9057  0.1719
  748TIP3   OH223658   5.449   0.730  13.290  0.2320  0.2940 -0.8656
  748TIP3    H123659   5.411   0.645  13.315  0.6319 -0.0043 -1.2496
  748TIP3    H223660   5.373   0.785  13.272 -0.0537 -0.4179 -2.0114
  749TIP3   OH223661   1.907   6.131   3.354 -0.2769  0.2944 -0.2589
  749TIP3    H123662   1.843   6.184   3.402  0.4959 -0.4765  1.7071
  749TIP3    H223663   1.933   6.187   3.280  0.3697  2.6300  1.6083
  750TIP3   OH223664   1.970   0.575  13.277 -0.0558 -1.1002  0.1239
  750TIP3    H123665   1.880   0.597  13.253 -0.5559 -3.0302  0.0924
  750TIP3    H223666   1.985   0.620  13.360 -0.2041  1.1223 -0.9669
  751TIP3   OH223667   5.920   5.881   0.896  0.0677 -0.2225 -0.5552
  751TIP3    H123668   5.992   5.854   0.839 -0.2286 -0.5080 -0.7942
  751TIP3    H223669   5.926   5.977   0.898  0.4503 -0.2439 -0.5766
  752TIP3   OH223670   6.503   4.789   1.735  0.7353 -0.9174 -0.3389
  752TIP3    H123671   6.525   4.831   1.818 -0.2920 -0.4872 -0.2688
  752TIP3    H223672   6.550   4.840   1.669  0.4024 -0.3472 -0.1463
  753TIP3   OH223673   5.265   5.548   3.594 -1.0008 -0.2372  0.4952
  753TIP3    H123674   5.303   5.592   3.518  0.8798  1.3518  2.2265
  753TIP3    H223675   5.266   5.455   3.572  1.7320 -0.0344 -0.5436
  754TIP3   OH223676   1.009   0.625  14.573  0.2832  0.2044 -0.1817
  754TIP3    H123677   0.955   0.626  14.652 -0.5385  1.6035 -0.7340
  754TIP3    H223678   1.096   0.653  14.603 -0.0717  0.9123  0.2006
  755TIP3   OH223679   1.216   0.467   3.910 -0.2105  0.6845 -0.0461
  755TIP3    H123680   1.164   0.527   3.856 -1.7042 -1.2417 -0.8577
  755TIP3    H223681   1.187   0.484   3.999 -3.8647 -1.6463 -0.6057
  756TIP3   OH223682   5.622   2.011  14.441 -0.4729 -0.1171 -0.1519
  756TIP3    H123683   5.652   1.961  14.366  1.2550  1.6642 -0.7381
  756TIP3    H223684   5.596   1.945  14.505 -0.8221 -1.6845 -1.8345
  757TIP3   OH223685   6.324   5.820   0.017  0.1181 -0.1569  0.1186
  757TIP3    H123686   6.241   5.842  -0.025 -0.0484 -1.7649 -0.4666
  757TIP3    H223687   6.391   5.853  -0.042 -0.0892  0.6668  0.3307
  758TIP3   OH223688   0.460   0.405  16.275 -0.5718 -0.5514 -0.1691
  758TIP3    H123689   0.482   0.383  16.184 -1.1173 -1.5359 -0.0650
  758TIP3    H223690   0.376   0.450  16.269 -0.8555 -1.0738 -0.1006
  759TIP3   OH223691   1.652   2.718  13.626 -0.0431  0.4764 -0.3391
  759TIP3    H123692   1.619   2.698  13.713  1.2399  0.3287  0.1255
  759TIP3    H223693   1.591   2.784  13.592  0.0350  1.3150  1.0817
  760TIP3   OH223694   6.426   1.936   0.709  0.8752 -1.0338  0.6477
  760TIP3    H123695   6.339   1.960   0.740  0.5004  0.2820 -1.2617
  760TIP3    H223696   6.433   1.842   0.729  0.2040 -0.5842  3.4017
  761TIP3   OH223697   2.740   5.229   3.548  0.1086 -0.5082 -0.8229
  761TIP3    H123698   2.719   5.322   3.559  1.5185 -0.2183 -0.4264
  761TIP3    H223699   2.823   5.229   3.501  0.8193 -1.5351  0.3822
  762TIP3   OH223700   2.288   4.731   5.768  0.7937  0.2868  0.0068
  762TIP3    H123701   2.279   4.802   5.706  1.1328 -0.5270 -1.0002
  762TIP3    H223702   2.225   4.665   5.739 -0.1320  0.4948  1.4261
  763TIP3   OH223703   5.387   2.327   1.091  0.4149 -0.1406  0.2046
  763TIP3    H123704   5.423   2.403   1.046 -0.4260 -0.1052 -0.4179
  763TIP3    H223705   5.455   2.303   1.155  1.5132 -0.0424 -0.8935
  764TIP3   OH223706   6.581   0.661   6.461 -0.6737 -0.0002  0.6279
  764TIP3    H123707   6.563   0.649   6.368 -0.7409  1.4385  0.4309
  764TIP3    H223708   6.498   0.639   6.504 -0.3339 -1.7256  0.4734
  765TIP3   OH223709   4.642   5.540   5.592 -0.0502  0.1624 -0.2011
  765TIP3    H123710   4.649   5.611   5.528 -0.9594 -0.3481 -0.8928
  765TIP3    H223711   4.689   5.467   5.552 -1.6218 -0.5304 -0.8591
  766TIP3   OH223712   4.671   1.339  13.031 -0.1488 -0.3250 -0.5091
  766TIP3    H123713   4.737   1.370  12.969  0.8238 -0.8517  0.2377
  766TIP3    H223714   4.685   1.394  13.109  0.2211 -1.2236  0.0784
  767TIP3   OH223715   0.939   4.858   3.582  0.5055 -0.7585  0.5971
  767TIP3    H123716   0.942   4.855   3.677 -0.2311 -0.6743  0.6325
  767TIP3    H223717   1.007   4.798   3.553  0.7097 -0.8100  1.1766
  768TIP3   OH223718   2.788   1.767  15.959 -0.4157 -0.8237  0.1336
  768TIP3    H123719   2.789   1.673  15.939 -0.3035 -1.0372  1.0972
  768TIP3    H223720   2.781   1.771  16.054 -1.8133  0.1673  0.0104
  769TIP3   OH223721   5.481   3.666   5.972  0.0820  0.2172  0.6162
  769TIP3    H123722   5.389   3.691   5.957  0.8999  3.3466  0.0735
  769TIP3    H223723   5.528   3.749   5.975  3.0468 -1.3100  0.1011
  770TIP3   OH223724   2.090   2.943  11.296  0.1750  0.5433 -0.2651
  770TIP3    H123725   2.062   2.958  11.205 -0.4800  1.3628  0.0661
  770TIP3    H223726   2.047   2.861  11.320  1.3194 -0.3329 -1.0745
  771TIP3   OH223727   1.016   6.198  11.288 -0.2690  0.8404  0.1859
  771TIP3    H123728   0.982   6.131  11.346 -0.2756  1.1194  0.5098
  771TIP3    H223729   1.043   6.151  11.209  0.0865  0.4060  0.5622
  772TIP3   OH223730   6.189   1.520  12.597 -0.0355  0.0646  0.3244
  772TIP3    H123731   6.274   1.563  12.607 -0.6895  1.6628 -0.6539
  772TIP3    H223732   6.202   1.432  12.633  2.4173 -0.2102 -0.9896
  773TIP3   OH223733   2.046   5.840  12.781  0.4727 -0.0647 -0.4822
  773TIP3    H123734   2.045   5.830  12.686  2.2605 -1.1580 -0.4342
  773TIP3    H223735   1.990   5.915  12.798 -0.4757 -0.3019 -2.3337
  774TIP3   OH223736   2.177   6.065   4.402  0.2180 -0.5549 -0.4439
  774TIP3    H123737   2.241   6.043   4.469  0.1801 -0.9657 -0.5411
  774TIP3    H223738   2.215   6.140   4.356  0.7322 -0.9296 -0.6398
  775TIP3   OH223739   5.632   1.142  12.884  0.3380  0.1813 -0.4025
  775TIP3    H123740   5.652   1.116  12.794  2.8724  0.0423  0.1320
  775TIP3    H223741   5.715   1.175  12.918 -0.4013 -0.3826  2.1061
  776TIP3   OH223742   6.760   3.207  11.919 -0.0565 -0.4527 -0.2620
  776TIP3    H123743   6.730   3.207  12.010  0.6303  1.1433 -0.0073
  776TIP3    H223744   6.853   3.229  11.924  0.3274 -1.7141 -1.2814
  777TIP3   OH223745   1.479   3.685   2.394 -0.6867  0.6037 -0.1711
  777TIP3    H123746   1.389   3.665   2.369  0.2501 -0.8596 -2.7697
  777TIP3    H223747   1.532   3.621   2.347  1.6869  0.5224  2.3141
  778TIP3   OH223748   6.216   2.145  17.175  0.3453  0.7286  0.3096
  778TIP3    H123749   6.152   2.215  17.163 -2.1585 -1.7948 -2.9854
  778TIP3    H223750   6.225   2.137  17.270 -3.6453  1.8718  0.9905
  779TIP3   OH223751   4.630   2.618  12.175  0.3092  0.1210 -0.4061
  779TIP3    H123752   4.688   2.575  12.113 -0.6906 -1.2384 -0.4250
  779TIP3    H223753   4.550   2.635  12.126  0.1520  0.6539  0.0205
  780TIP3   OH223754   1.437   2.441   1.102  0.4977  0.2697  0.1907
  780TIP3    H123755   1.409   2.532   1.095  0.6238  0.2311 -1.0690
  780TIP3    H223756   1.390   2.407   1.179  0.0250  1.2344  0.3443
  781TIP3   OH223757   0.956   3.899  12.796 -0.2522 -0.1559  0.4671
  781TIP3    H123758   0.987   3.808  12.794 -1.4803 -0.6213  1.4352
  781TIP3    H223759   1.018   3.944  12.852  1.4127  0.0638 -1.4171
  782TIP3   OH223760   5.824   3.095   3.959 -1.1471  0.1874 -0.2790
  782TIP3    H123761   5.827   3.094   4.054 -1.3376  0.2255 -0.2720
  782TIP3    H223762   5.908   3.132   3.932 -1.5142  1.1732 -0.1000
  783TIP3   OH223763   1.586   2.169  11.256 -0.1760  0.2482 -0.2914
  783TIP3    H123764   1.531   2.113  11.310  1.1828  1.7799  2.9354
  783TIP3    H223765   1.665   2.118  11.241  0.9576  1.0150  2.4335
  784TIP3   OH223766   0.957   0.094  16.591 -0.5493 -0.1991  0.1146
  784TIP3    H123767   0.885   0.145  16.628 -0.4181  0.1358 -0.0896
  784TIP3    H223768   1.036   0.129  16.634 -0.6043 -1.4164  1.2991
  785TIP3   OH223769   3.896   5.549  10.869 -0.8734  0.1711 -0.2246
  785TIP3    H123770   3.914   5.531  10.961  0.1942 -0.6067 -0.5659
  785TIP3    H223771   3.808   5.514  10.855 -0.8327 -0.1904  0.3747
  786TIP3   OH223772   6.169   6.437   1.890  0.6681  0.0002 -0.3191
  786TIP3    H123773   6.192   6.355   1.934 -1.1100 -0.5445 -0.3342
  786TIP3    H223774   6.123   6.487   1.957  0.1275  0.2043 -0.8438
  787TIP3   OH223775   6.210   4.344   3.698  0.2622  0.2118  0.3015
  787TIP3    H123776   6.237   4.370   3.610 -2.5574  0.4929 -0.5571
  787TIP3    H223777   6.204   4.248   3.694 -2.2333  0.3533 -0.6293
  788TIP3   OH223778   5.943   0.168   5.425  0.1058 -0.1064 -0.0374
  788TIP3    H123779   5.920   0.260   5.413 -0.9621 -0.1570  1.3789
  788TIP3    H223780   5.894   0.122   5.358  0.5827  0.3310 -0.7039
  789TIP3   OH223781   1.302   2.564  16.495  0.0565  0.2386  0.3514
  789TIP3    H123782   1.324   2.485  16.545 -1.9741 -0.3377  0.3897
  789TIP3    H223783   1.278   2.628  16.562 -0.6471  0.1192  0.2164
  790TIP3   OH223784   5.018   4.685  13.252 -0.6615  0.3427  0.4032
  790TIP3    H123785   4.945   4.678  13.190  0.5432  0.2081 -1.0597
  790TIP3    H223786   4.983   4.649  13.333 -1.6007 -1.6778 -0.8115
  791TIP3   OH223787   0.724   6.345  17.138  0.2958  0.3190 -0.4210
  791TIP3    H123788   0.743   6.291  17.214  1.1261  1.1027 -0.0605
  791TIP3    H223789   0.806   6.390  17.119 -0.5541  2.0355 -0.2228
  792TIP3   OH223790   3.876   3.119  15.058 -0.6981 -0.3786  0.3619
  792TIP3    H123791   3.899   3.205  15.024  0.6128 -0.1820  1.6301
  792TIP3    H223792   3.828   3.076  14.987  2.0888 -0.1044 -1.8292
  793TIP3   OH223793   6.724   0.359   1.466  0.8224 -0.4864 -0.6586
  793TIP3    H123794   6.779   0.383   1.541  0.5493 -1.1044 -0.2528
  793TIP3    H223795   6.680   0.440   1.442 -1.7866 -0.9277  2.0832
  794TIP3   OH223796   6.752   6.636   4.510 -0.3010  0.2507 -0.3033
  794TIP3    H123797   6.710   6.612   4.428  2.0735 -0.0498 -1.5385
  794TIP3    H223798   6.776   6.728   4.499 -1.2254  0.6249  0.6673
  795TIP3   OH223799   0.168   3.871  10.528 -0.0676  0.5222  0.1720
  795TIP3    H123800   0.256   3.847  10.498 -0.2378  1.1810 -0.9306
  795TIP3    H223801   0.183   3.918  10.610  0.5591  0.0846  0.3173
  796TIP3   OH223802   1.843   2.316  15.405 -0.2681 -0.4517  0.1502
  796TIP3    H123803   1.880   2.351  15.485 -0.4679 -0.2262  0.1457
  796TIP3    H223804   1.902   2.244  15.380  0.1325 -0.1290  0.1654
  797TIP3   OH223805   6.208   6.331   3.648 -0.5986  1.0809 -0.0238
  797TIP3    H123806   6.275   6.390   3.614  0.1643  0.2662  0.0263
  797TIP3    H223807   6.126   6.379   3.638  0.0985  2.5137  0.8395
  798TIP3   OH223808   3.789   4.232  15.488  0.3328  0.4184 -0.0262
  798TIP3    H123809   3.697   4.257  15.481  0.0256 -0.7027 -0.1596
  798TIP3    H223810   3.805   4.179  15.410  0.8121 -0.2620  0.5272
  799TIP3   OH223811   1.691   6.338  10.815  0.4039 -0.1934  0.2816
  799TIP3    H123812   1.773   6.367  10.856  1.7370 -1.9643 -0.9789
  799TIP3    H223813   1.698   6.242  10.813 -2.4126 -0.5451  1.5084
  800TIP3   OH223814   2.750   4.572  12.325 -0.0192  0.0715 -0.0368
  800TIP3    H123815   2.750   4.565  12.420  0.6886 -0.2907 -0.0607
  800TIP3    H223816   2.688   4.504  12.296 -2.1384  1.7924  0.2524
  801TIP3   OH223817   4.615   5.887   1.958 -0.1238  0.1912 -0.1240
  801TIP3    H123818   4.548   5.949   1.930 -0.7799 -0.4437  0.0161
  801TIP3    H223819   4.566   5.815   1.998  0.5719 -0.7335 -0.8806
  802TIP3   OH223820   4.108   2.363  14.018 -0.3080 -0.0287 -0.2931
  802TIP3    H123821   4.132   2.397  14.104  0.7437 -0.7152 -0.2935
  802TIP3    H223822   4.068   2.438  13.973  1.7601  1.2247 -0.2274
  803TIP3   OH223823   6.677   5.673   5.977 -0.0563 -0.5672  0.1992
  803TIP3    H123824   6.731   5.628   6.041  2.4389  1.1803 -0.5477
  803TIP3    H223825   6.675   5.764   6.006 -0.9970 -0.2220 -0.8530
  804TIP3   OH223826   5.497   4.572   0.470 -0.3355  0.0998  0.0196
  804TIP3    H123827   5.434   4.564   0.541  0.2789 -1.1097  0.4479
  804TIP3    H223828   5.444   4.574   0.390 -0.9925  0.8386  0.4688
  805TIP3   OH223829   1.200   4.973   0.589  0.1382 -0.0068  0.0833
  805TIP3    H123830   1.107   4.956   0.603 -0.1036  1.0024 -0.2494
  805TIP3    H223831   1.215   4.947   0.498  0.0045  0.5328 -0.0976
  806TIP3   OH223832   4.720   3.436  17.164  0.8265  0.2033  0.3734
  806TIP3    H123833   4.793   3.497  17.169  0.6063  0.5532 -0.4512
  806TIP3    H223834   4.667   3.468  17.091  0.1571 -0.3776  0.5898
  807TIP3   OH223835   1.059   1.841   4.007 -0.5803  0.2734 -0.4029
  807TIP3    H123836   1.144   1.801   3.989  0.4505  1.2080  1.9351
  807TIP3    H223837   1.060   1.856   4.102 -4.5345 -2.2878  0.2636
  808TIP3   OH223838   5.399   2.011   4.083 -0.0272  0.3815  0.4289
  808TIP3    H123839   5.429   2.072   4.016 -1.2375 -0.6056 -1.0744
  808TIP3    H223840   5.398   1.926   4.039  0.4243 -0.5366  2.1068
  809TIP3   OH223841   0.577   6.463   4.661 -0.1161  0.4655  0.4246
  809TIP3    H123842   0.654   6.497   4.616 -0.7262  1.5051  0.1109
  809TIP3    H223843   0.511   6.531   4.649 -1.0938 -0.4106  0.6547
  810TIP3   OH223844   6.764   1.327  16.081  0.1791  0.1229 -0.2943
  810TIP3    H123845   6.797   1.247  16.041  0.9733  1.4110 -2.4058
  810TIP3    H223846   6.795   1.397  16.023 -0.8631  1.9266  1.2153
  811TIP3   OH223847   5.124   1.952   5.962 -0.0640  0.4215 -0.4871
  811TIP3    H123848   5.184   2.027   5.958 -0.4052  0.6693 -1.0434
  811TIP3    H223849   5.056   1.979   6.023 -0.0512  0.4639 -0.4909
  812TIP3   OH223850   0.871   5.569  12.908 -0.0524  0.0342  0.4823
  812TIP3    H123851   0.807   5.621  12.956  0.9069  0.7849  0.9900
  812TIP3    H223852   0.835   5.562  12.819 -0.9999  0.1250  0.8516
  813TIP3   OH223853   5.204   5.435   4.150 -0.5756 -0.8566 -0.0402
  813TIP3    H123854   5.172   5.516   4.112 -0.7648 -0.1495  1.5371
  813TIP3    H223855   5.299   5.438   4.136 -0.5975 -0.4298 -0.1082
  814TIP3   OH223856   5.058   5.832   1.235  0.1108  0.0624 -0.7948
  814TIP3    H123857   5.099   5.887   1.302  0.2342 -0.6557 -0.2721
  814TIP3    H223858   4.967   5.863   1.232 -0.0042 -0.1756  0.0041
  815TIP3   OH223859   4.324   6.660  16.064 -0.1866  0.4300 -0.4207
  815TIP3    H123860   4.307   6.755  16.059  1.8697  0.9966  1.5529
  815TIP3    H223861   4.311   6.639  16.157  0.9744 -0.8496 -0.5202
  816TIP3   OH223862   5.545   1.524  12.080 -0.3757 -0.7782  0.6840
  816TIP3    H123863   5.459   1.566  12.083  0.6764  1.4920  2.1350
  816TIP3    H223864   5.530   1.436  12.113 -2.2076 -0.5590  0.5204
  817TIP3   OH223865   5.966   3.591  12.594 -0.5270 -0.0163  0.6544
  817TIP3    H123866   5.928   3.645  12.663 -2.4601  1.0559 -1.1313
  817TIP3    H223867   5.960   3.645  12.515  1.2028 -1.3485 -0.4620
  818TIP3   OH223868   3.909   5.727   4.435  0.3355 -0.0033  0.8189
  818TIP3    H123869   3.915   5.785   4.510  2.0644  2.2539 -0.9039
  818TIP3    H223870   3.837   5.762   4.383  0.1316 -0.6062  0.6899
  819TIP3   OH223871   2.127   2.845   3.270  0.4259 -0.0166  0.0250
  819TIP3    H123872   2.100   2.755   3.288 -0.3153  0.5078  1.7681
  819TIP3    H223873   2.216   2.851   3.304 -0.3210  0.4663  2.0610
  820TIP3   OH223874   2.812   1.378  14.019 -0.1082 -0.2393  0.2814
  820TIP3    H123875   2.850   1.310  14.074 -1.1891 -1.1386 -0.0421
  820TIP3    H223876   2.887   1.420  13.977  0.5886 -1.0707  0.6653
  821TIP3   OH223877   0.904   4.489  13.772 -0.2948 -0.0655 -0.9714
  821TIP3    H123878   0.828   4.436  13.793  0.7720 -2.3340 -2.4724
  821TIP3    H223879   0.954   4.437  13.709  2.3872  1.3926 -0.2374
  822TIP3   OH223880   1.830   1.407  16.625 -0.0722  0.0830  0.0719
  822TIP3    H123881   1.756   1.468  16.629  0.4380  0.7069  0.2803
  822TIP3    H223882   1.901   1.458  16.584  0.6104 -0.0886  1.0009
  823TIP3   OH223883   5.764   0.969   1.116  0.2949 -0.1493 -0.4948
  823TIP3    H123884   5.740   0.966   1.209  0.3775 -0.7539 -0.4902
  823TIP3    H223885   5.857   0.992   1.116  0.3941 -0.5293 -0.4052
  824TIP3   OH223886   6.246   0.115   2.653  0.2078 -0.4684 -0.0052
  824TIP3    H123887   6.210   0.183   2.709 -0.5021 -2.0242  1.5424
  824TIP3    H223888   6.195   0.120   2.573  0.1349  0.7651  0.1042
  825TIP3   OH223889   4.771   2.406  11.273  1.1662  0.0448 -0.2823
  825TIP3    H123890   4.676   2.416  11.279  1.2753  0.0559  2.3071
  825TIP3    H223891   4.784   2.351  11.196 -0.9397 -0.2263 -0.5094
  826TIP3   OH223892   5.023   0.381   1.014  0.3662  0.1041  0.3480
  826TIP3    H123893   4.980   0.343   0.937  1.1335 -0.9554  0.4161
  826TIP3    H223894   4.955   0.382   1.081 -0.1184  0.3986 -0.1348
  827TIP3   OH223895   4.478   2.095   4.631 -0.3984  0.4325 -0.2902
  827TIP3    H123896   4.529   2.075   4.553 -1.2773  1.9249 -1.2842
  827TIP3    H223897   4.391   2.117   4.598 -1.5220 -1.2978  1.3066
  828TIP3   OH223898   5.245   1.094   5.582 -0.1817  0.2256 -0.0525
  828TIP3    H123899   5.322   1.055   5.541  1.1971  0.5052  2.0868
  828TIP3    H223900   5.202   1.020   5.625 -1.5223 -0.0384 -1.7436
  829TIP3   OH223901   4.024   3.696  16.053  0.1223 -0.6756  0.2121
  829TIP3    H123902   4.113   3.664  16.069  0.2694 -0.9914 -1.0938
  829TIP3    H223903   4.021   3.781  16.097  1.6384  0.1079 -1.0615
  830TIP3   OH223904   2.747   5.363  13.714  0.0824 -0.0954  0.1117
  830TIP3    H123905   2.819   5.303  13.735  0.4541  0.2161 -0.2627
  830TIP3    H223906   2.700   5.373  13.796 -0.3350 -1.3686  0.0534
  831TIP3   OH223907   4.582   0.137   4.964 -0.0321 -0.3000  0.4189
  831TIP3    H123908   4.676   0.116   4.961  0.1979  0.7127 -2.3461
  831TIP3    H223909   4.577   0.230   4.940 -1.7360 -0.2232  0.9352
  832TIP3   OH223910   4.015   2.549   0.487  0.0392  0.1005 -0.4144
  832TIP3    H123911   3.930   2.582   0.457  0.0186  0.6932  0.2635
  832TIP3    H223912   4.048   2.497   0.414 -0.3264  0.9298 -1.1907
  833TIP3   OH223913   5.030   1.331  15.979  0.5627 -0.6814  1.1322
  833TIP3    H123914   4.981   1.414  15.971  0.8857 -0.3832  2.1524
  833TIP3    H223915   4.963   1.264  15.966  0.3474 -0.2767 -0.0238
  834TIP3   OH223916   4.604   3.104   4.150  0.8457 -0.1007 -0.0084
  834TIP3    H123917   4.609   3.019   4.195 -0.2612 -1.4377 -2.2332
  834TIP3    H223918   4.515   3.135   4.167  0.1205 -1.0257 -1.8262
  835TIP3   OH223919   3.202   5.647   5.715 -0.3649  0.1052  0.5856
  835TIP3    H123920   3.179   5.655   5.622 -0.8860  0.0536  0.7089
  835TIP3    H223921   3.151   5.716   5.758 -1.0390 -0.6393  0.9922
  836TIP3   OH223922   4.443   3.783   5.955  0.8710  0.3399 -0.5616
  836TIP3    H123923   4.461   3.763   5.863  1.8012 -1.3453 -0.0650
  836TIP3    H223924   4.521   3.830   5.985 -0.1088  2.3283 -1.0005
  837TIP3   OH223925   0.958   6.563  12.118  0.3965 -0.1239 -0.0095
  837TIP3    H123926   0.988   6.628  12.055  1.2106 -1.9052 -1.5249
  837TIP3    H223927   0.872   6.595  12.145 -0.6303  0.0391 -3.0781
  838TIP3   OH223928   6.745   6.040  10.346  0.3957 -0.0189 -0.2566
  838TIP3    H123929   6.838   6.049  10.367  0.3670 -0.1863 -0.0644
  838TIP3    H223930   6.720   6.127  10.314  0.1501  0.6036  1.5124
  839TIP3   OH223931   4.822   5.239   5.797  0.5018  0.3080  0.2219
  839TIP3    H123932   4.811   5.238   5.702  3.5818 -2.0539 -0.2561
  839TIP3    H223933   4.738   5.270   5.830 -0.9186  0.5742 -3.2251
  840TIP3   OH223934   6.786   0.291   5.190  0.5499 -0.1132  0.2773
  840TIP3    H123935   6.748   0.302   5.277  2.5568 -1.3004  1.3668
  840TIP3    H223936   6.872   0.253   5.206  0.6276 -1.1879 -2.2793
  841TIP3   OH223937   2.882   5.012   6.101 -0.4200  0.4875 -0.0855
  841TIP3    H123938   2.945   5.083   6.114  1.7479 -1.2890 -0.2673
  841TIP3    H223939   2.831   5.039   6.025  1.6533  1.0150 -1.3672
  842TIP3   OH223940   1.325   6.054   1.044 -0.0145 -0.7227  0.4916
  842TIP3    H123941   1.339   6.093   0.958  0.6327  1.1429  1.3864
  842TIP3    H223942   1.230   6.045   1.051 -0.1696  0.4725  0.1378
  843TIP3   OH223943   4.537   1.107  10.780 -0.0264  0.2278 -0.7142
  843TIP3    H123944   4.538   1.198  10.807  0.2039  0.6166 -1.9948
  843TIP3    H223945   4.531   1.109  10.685 -0.6403 -1.0984 -0.7404
  844TIP3   OH223946   4.302   2.364   5.173  0.2244 -0.2968  0.0513
  844TIP3    H123947   4.365   2.363   5.245 -0.4683  0.0803  0.6787
  844TIP3    H223948   4.249   2.286   5.187 -1.4637  0.9998  1.4032
  845TIP3   OH223949   1.488   1.492   3.647  0.3991  0.2599 -0.5306
  845TIP3    H123950   1.502   1.462   3.737  1.7764 -1.5078 -1.2808
  845TIP3    H223951   1.396   1.521   3.646  0.4544  0.6362  1.5056
  846TIP3   OH223952   3.453   6.710   1.530 -0.4027 -0.1440 -0.4027
  846TIP3    H123953   3.501   6.792   1.525 -1.5750  0.5545 -0.6053
  846TIP3    H223954   3.447   6.691   1.624  0.9637 -0.6872 -0.4038
  847TIP3   OH223955   2.009   0.775   4.892  0.6043 -0.1957 -0.4969
  847TIP3    H123956   1.978   0.726   4.968  2.4182 -0.3011  0.2173
  847TIP3    H223957   2.091   0.815   4.921  0.7482  0.6988 -2.0515
  848TIP3   OH223958   4.541   2.039   0.991 -0.1612  0.5080 -0.3695
  848TIP3    H123959   4.528   2.117   0.937  0.9543  0.6932 -0.3886
  848TIP3    H223960   4.522   2.068   1.080  1.2910  1.1079 -0.2286
  849TIP3   OH223961   1.800   4.922   0.478 -0.3371  0.8260  0.5346
  849TIP3    H123962   1.825   5.011   0.501 -0.9226  1.1709 -0.1083
  849TIP3    H223963   1.787   4.878   0.562 -1.0593  1.6502  0.8760
  850TIP3   OH223964   0.653   4.135  12.218  0.1209  0.1308  0.2437
  850TIP3    H123965   0.632   4.095  12.302 -2.1592 -0.9160 -0.7422
  850TIP3    H223966   0.682   4.224  12.240  1.1981 -0.6517  2.2079
  851TIP3   OH223967   0.738   3.098   6.252 -0.4471  0.3658  0.0817
  851TIP3    H123968   0.831   3.109   6.273 -1.0643  4.5364  1.5940
  851TIP3    H223969   0.692   3.143   6.323 -3.5189  0.7763 -1.9747
  852TIP3   OH223970   4.303   1.900  14.728  0.3167 -0.2663 -0.0233
  852TIP3    H123971   4.311   1.990  14.758  0.2220 -1.2819  3.5752
  852TIP3    H223972   4.285   1.907  14.635 -0.3292  3.4222  0.2293
  853TIP3   OH223973   3.646   1.133   1.378  0.1816 -0.5453  1.2100
  853TIP3    H123974   3.592   1.146   1.456  0.9196 -0.3392  1.6986
  853TIP3    H223975   3.672   1.221   1.351 -2.4210 -0.3394 -1.0209
  854TIP3   OH223976   3.420   0.592  12.622  0.4443  0.5350 -0.4178
  854TIP3    H123977   3.503   0.610  12.579  0.7385  1.8542  0.6374
  854TIP3    H223978   3.419   0.651  12.697 -0.7911 -0.5154  0.4272
  855TIP3   OH223979   3.512   5.804  15.045  0.3269 -1.6933 -0.2788
  855TIP3    H123980   3.540   5.868  14.980 -0.4320 -1.3444 -0.2762
  855TIP3    H223981   3.572   5.731  15.035  0.8256 -1.2327 -0.6985
  856TIP3   OH223982   3.734   5.716  11.026  0.1492 -0.0197 -0.0971
  856TIP3    H123983   3.765   5.792  11.076  1.1157 -0.4723  0.0220
  856TIP3    H223984   3.806   5.697  10.965 -0.2525 -0.5887 -0.4003
  857TIP3   OH223985   5.493   5.486   5.612  0.5225  0.5374  0.8683
  857TIP3    H123986   5.538   5.402   5.626  1.3327  0.7169 -0.5154
  857TIP3    H223987   5.414   5.479   5.665 -0.6308 -2.0762 -0.9558
  858TIP3   OH223988   2.206   5.963  15.455  0.2139  0.4432  0.3965
  858TIP3    H123989   2.134   5.952  15.517  0.4362  0.8677  0.7361
  858TIP3    H223990   2.277   5.910  15.492  0.3722  0.7604  0.5465
  859TIP3   OH223991   3.003   3.661   5.123 -0.2694  0.0290 -0.2192
  859TIP3    H123992   2.956   3.743   5.140  0.4905  0.1642  1.4862
  859TIP3    H223993   2.936   3.593   5.126 -0.5324  0.3126  1.2890
  860TIP3   OH223994   4.216   0.372   4.922  0.5759  0.6003 -0.0092
  860TIP3    H123995   4.194   0.433   4.993 -1.6593  0.3518 -0.4018
  860TIP3    H223996   4.131   0.347   4.886  1.5153 -1.6103 -0.8297
  861TIP3   OH223997   1.929   5.132  11.518  0.7081  0.5747 -0.2645
  861TIP3    H123998   2.005   5.075  11.503 -0.1950 -0.3950 -1.3188
  861TIP3    H223999   1.955   5.187  11.592  1.6593 -1.1497  0.7760
  862TIP3   OH224000   0.944   2.333   4.731  0.2402  0.1127 -0.2666
  862TIP3    H124001   0.986   2.419   4.733  0.4546  0.0212  1.7494
  862TIP3    H224002   0.899   2.326   4.816 -1.0194 -1.1775 -0.9803
  863TIP3   OH224003   1.369   1.446   1.637  0.4889  0.4303  0.3934
  863TIP3    H124004   1.317   1.522   1.665 -1.5973 -0.3616 -1.0543
  863TIP3    H224005   1.358   1.382   1.707 -1.6712 -0.2024 -0.4428
  864TIP3   OH224006   4.890   5.804   4.639  0.5044  0.0487 -0.4333
  864TIP3    H124007   4.923   5.761   4.718  1.2145 -0.1895 -0.8521
  864TIP3    H224008   4.908   5.742   4.568  2.7318  1.5142 -1.2588
  865TIP3   OH224009   0.911   2.036   3.206 -0.0284  0.0260  0.5528
  865TIP3    H124010   0.907   1.941   3.197  2.0876  0.0408 -1.9691
  865TIP3    H224011   0.949   2.051   3.292  1.9110 -1.5796  0.0544
  866TIP3   OH224012   2.385   1.236  17.206  0.3945 -0.4792 -0.5022
  866TIP3    H124013   2.398   1.329  17.221 -0.0024 -0.5404  0.2421
  866TIP3    H224014   2.306   1.214  17.255 -0.5422 -0.8443 -2.1003
  867TIP3   OH224015   0.399   0.223  16.751  0.2475  0.1111 -0.0458
  867TIP3    H124016   0.329   0.167  16.785  0.4860 -0.3082 -0.2375
  867TIP3    H224017   0.392   0.215  16.656 -1.2962  2.3504 -0.1888
  868TIP3   OH224018   2.582   6.112   3.508 -0.8349 -0.2879  0.9181
  868TIP3    H124019   2.622   6.199   3.502  1.8958 -1.5589 -1.9577
  868TIP3    H224020   2.504   6.118   3.453  0.1707  0.0003 -0.5360
  869TIP3   OH224021   0.283   3.115  14.072  0.2735  0.5073 -0.7571
  869TIP3    H124022   0.321   3.145  13.989  1.2588  0.7837 -0.2273
  869TIP3    H224023   0.316   3.178  14.137  1.4733 -1.0326  0.2058
  870TIP3   OH224024   1.609   3.749  11.018  0.0779 -0.1098 -0.4937
  870TIP3    H124025   1.584   3.677  10.961  2.1154 -1.1022 -0.2080
  870TIP3    H224026   1.561   3.824  10.984 -1.8296 -1.4843 -1.0280
  871TIP3   OH224027   4.879   3.759   0.341  0.2722 -0.4660  0.7295
  871TIP3    H124028   4.939   3.815   0.292  0.8829 -0.5787  1.3253
  871TIP3    H224029   4.927   3.677   0.354 -0.2003 -0.7394  0.7871
  872TIP3   OH224030   5.771   3.651  16.980 -0.1557 -0.0824 -0.9770
  872TIP3    H124031   5.783   3.700  16.899 -0.4164 -0.6289 -1.3528
  872TIP3    H224032   5.806   3.564  16.961 -1.3950 -0.6186 -0.9415
  873TIP3   OH224033   6.647   2.437   3.913 -0.1811 -0.2372  0.0298
  873TIP3    H124034   6.719   2.427   3.975 -0.1314  3.8163  0.9230
  873TIP3    H224035   6.571   2.402   3.959  0.3543  0.1381  1.2400
  874TIP3   OH224036   0.872   5.326  11.217  0.1815 -0.1609 -0.2509
  874TIP3    H124037   0.940   5.272  11.256  0.2330 -0.2562 -0.4708
  874TIP3    H224038   0.915   5.371  11.145  0.4234  1.0276  0.5970
  875TIP3   OH224039   1.813   2.290  12.478 -0.0917  0.0827  0.3755
  875TIP3    H124040   1.720   2.268  12.484 -0.1362 -0.2834 -1.2822
  875TIP3    H224041   1.850   2.223  12.420  0.8907  1.1409 -0.2508
  876TIP3   OH224042   4.214   1.578   3.343  0.0401 -0.9477  0.6525
  876TIP3    H124043   4.303   1.571   3.376 -0.4637 -2.1966  1.8513
  876TIP3    H224044   4.190   1.488   3.319 -0.3145 -0.3835 -1.3318
  877TIP3   OH224045   2.096   6.401   2.747 -0.3680 -0.3144 -0.4163
  877TIP3    H124046   2.095   6.483   2.696 -2.3089 -0.8537 -1.3215
  877TIP3    H224047   2.152   6.421   2.822 -1.4954  2.1725 -0.1267
  878TIP3   OH224048   1.461   4.812  15.698  0.1093  0.0014 -0.0474
  878TIP3    H124049   1.391   4.835  15.637  0.0644  1.7988  0.6009
  878TIP3    H224050   1.417   4.805  15.783  0.7362  1.6033  0.4432
  879TIP3   OH224051   2.287   3.341  15.449  0.3212 -0.8810 -0.2143
  879TIP3    H124052   2.196   3.320  15.471 -0.2282  0.7288 -0.7940
  879TIP3    H224053   2.306   3.421  15.498  0.9003 -0.3543 -1.2474
  880TIP3   OH224054   4.359   2.648  12.900 -0.0746  0.1899 -0.1627
  880TIP3    H124055   4.339   2.563  12.939  0.3839 -0.2358 -0.8265
  880TIP3    H224056   4.411   2.626  12.822 -1.7586  0.9348 -1.5613
  881TIP3   OH224057   2.029   0.221   5.563  0.4821  0.3889  0.0933
  881TIP3    H124058   2.011   0.185   5.476  0.6671  1.6827 -0.5113
  881TIP3    H224059   1.945   0.218   5.608  0.0710  0.9357 -0.6151
  882TIP3   OH224060   2.221   4.654  16.284  0.4198  0.4847  0.4872
  882TIP3    H124061   2.135   4.670  16.323  0.1812 -0.9622  0.5895
  882TIP3    H224062   2.232   4.559  16.287  1.1493  0.4683 -1.3755
  883TIP3   OH224063   1.489   3.309   3.973 -0.3329 -0.3863 -0.2825
  883TIP3    H124064   1.394   3.315   3.960 -0.2615  0.3246 -0.5281
  883TIP3    H224065   1.512   3.392   4.015  0.0859 -0.8322  0.3857
  884TIP3   OH224066   4.508   1.047  14.002  0.4038 -0.2188  0.5794
  884TIP3    H124067   4.452   0.970  14.003 -0.4183  0.2184 -2.2872
  884TIP3    H224068   4.597   1.013  14.002  0.0510 -1.1941 -0.2725
  885TIP3   OH224069   1.189   2.944  13.751  0.3803  0.4556 -0.0586
  885TIP3    H124070   1.215   3.032  13.725 -0.7541  1.1543  1.0738
  885TIP3    H224071   1.101   2.933  13.715 -0.1480  0.4401  1.1644
  886TIP3   OH224072   0.523   4.420  16.184  0.3107  0.1696 -0.1824
  886TIP3    H124073   0.473   4.435  16.264  0.0896 -0.6392 -0.1657
  886TIP3    H224074   0.552   4.507  16.157 -1.5187  0.7222 -0.4744
  887TIP3   OH224075   0.602   3.092   3.942  0.4227  0.1075 -0.1489
  887TIP3    H124076   0.576   3.135   4.023 -1.3855  0.4677 -0.8691
  887TIP3    H224077   0.585   3.156   3.873  1.6999 -0.2761 -0.8739
  888TIP3   OH224078   0.585   6.594   1.557 -0.1620 -0.8667  0.3438
  888TIP3    H124079   0.512   6.655   1.565 -0.2115 -0.7920 -0.5657
  888TIP3    H224080   0.595   6.557   1.645  0.9794  1.6966  1.3971
  889TIP3   OH224081   5.886   5.187  11.211 -0.1258 -0.4198 -0.1586
  889TIP3    H124082   5.880   5.251  11.140  2.1899 -1.3165 -1.2773
  889TIP3    H224083   5.802   5.142  11.209 -1.2540  1.5951 -0.2882
  890TIP3   OH224084   4.976   5.135  10.781  0.4293 -0.0555 -0.1369
  890TIP3    H124085   4.987   5.082  10.702  0.1277  0.2200 -0.3648
  890TIP3    H224086   4.908   5.198  10.759 -0.9184 -1.0752  0.9085
  891TIP3   OH224087   5.397   6.506  12.786 -0.5009  0.4818  0.7239
  891TIP3    H124088   5.324   6.448  12.806  0.0529  0.0969  1.7029
  891TIP3    H224089   5.361   6.594  12.796 -1.2148  0.3314 -0.2883
  892TIP3   OH224090   5.179   3.208  14.443  0.1183 -0.3067  0.0575
  892TIP3    H124091   5.191   3.260  14.522  2.0570  1.1331 -1.0760
  892TIP3    H224092   5.172   3.118  14.474  1.9221  0.0982  1.8340
  893TIP3   OH224093   4.273   0.912   1.337  0.3277 -0.1388  0.3209
  893TIP3    H124094   4.223   0.989   1.310  0.7465 -0.6434 -2.1139
  893TIP3    H224095   4.222   0.873   1.408 -0.8612  1.3211  0.2984
  894TIP3   OH224096   4.318   4.336   4.762 -0.3593  0.3777  0.2802
  894TIP3    H124097   4.293   4.406   4.822  0.3406  0.3681  0.5836
  894TIP3    H224098   4.412   4.347   4.749 -0.2748 -0.3857  0.1771
  895TIP3   OH224099   2.370   2.325  12.064  0.1521 -1.1165  0.1239
  895TIP3    H124100   2.431   2.399  12.070 -0.5693 -0.6046  2.2080
  895TIP3    H224101   2.375   2.283  12.150 -0.9503 -2.2958 -0.3461
  896TIP3   OH224102   4.524   5.197   3.369  0.1054 -0.1228  0.0902
  896TIP3    H124103   4.575   5.118   3.352 -0.8388 -0.7253 -0.0202
  896TIP3    H224104   4.432   5.168   3.362 -0.3263  1.5259 -2.7817
  897TIP3   OH224105   3.784   3.383   1.686 -0.5444 -0.0513  0.3092
  897TIP3    H124106   3.741   3.308   1.727  1.0641 -0.8759  0.5804
  897TIP3    H224107   3.834   3.424   1.757 -2.0316  1.8234  0.3598
  898TIP3   OH224108   6.428   5.463  13.239 -0.0740  0.1273 -0.6567
  898TIP3    H124109   6.417   5.520  13.315 -2.9038  0.6468 -1.3296
  898TIP3    H224110   6.386   5.381  13.263  0.0206 -0.1103 -1.2673
  899TIP3   OH224111   5.065   0.284  14.062 -0.0558  0.7070 -0.1048
  899TIP3    H124112   5.131   0.353  14.065 -0.9613  1.7296 -1.8692
  899TIP3    H224113   5.098   0.222  13.997  0.0250  0.2565  0.3576
  900TIP3   OH224114   6.784   0.066  13.963  0.2988  0.3524  0.5614
  900TIP3    H124115   6.783  -0.017  13.916  0.6997 -0.6535  2.2535
  900TIP3    H224116   6.871   0.070  14.004 -0.3564  0.7384  1.9699
  901TIP3   OH224117   2.220   1.045  12.122 -1.0100 -0.3432  0.0020
  901TIP3    H124118   2.206   1.080  12.210  3.1262  0.9852  0.3515
  901TIP3    H224119   2.236   0.951  12.135 -2.9474 -0.6765  0.2481
  902TIP3   OH224120   1.473   1.165  11.752 -0.7741 -0.5640  0.6405
  902TIP3    H124121   1.493   1.078  11.717 -0.0020 -0.0284 -0.3086
  902TIP3    H224122   1.524   1.225  11.697 -0.8555  0.4491  1.6371
  903TIP3   OH224123   5.564   2.598   4.673 -0.2359 -0.2767 -0.4037
  903TIP3    H124124   5.528   2.679   4.636  0.2883 -0.1930 -0.7451
  903TIP3    H224125   5.610   2.627   4.751 -0.1058 -0.2535 -0.4886
  904TIP3   OH224126   2.554   2.539  13.937 -0.0580 -0.3453 -0.2567
  904TIP3    H124127   2.620   2.521  14.004  0.4027  1.5832 -0.1455
  904TIP3    H224128   2.602   2.583  13.867 -0.8067 -1.0453 -1.2474
  905TIP3   OH224129   4.308   1.515  15.971 -0.0008  0.3868 -0.8646
  905TIP3    H124130   4.305   1.588  15.909 -1.0221  0.4089 -0.8124
  905TIP3    H224131   4.321   1.556  16.057 -2.7596  0.7404 -0.5401
  906TIP3   OH224132   0.560   4.749   3.844  0.1841  0.2912  0.0025
  906TIP3    H124133   0.631   4.722   3.787 -2.0361 -1.1991 -2.2578
  906TIP3    H224134   0.569   4.844   3.851  1.9976  0.2032 -0.7420
  907TIP3   OH224135   6.344   2.859  12.749 -0.5514 -0.1927  0.1321
  907TIP3    H124136   6.306   2.946  12.759  0.6149  0.2926  0.5233
  907TIP3    H224137   6.438   2.871  12.764 -0.4774 -1.6713  1.1075
  908TIP3   OH224138   0.106   0.363  12.878 -0.1129 -0.4352 -0.6359
  908TIP3    H124139   0.175   0.427  12.895 -0.5158 -0.6746  2.5751
  908TIP3    H224140   0.078   0.380  12.788  0.8363  2.8753 -0.4129
  909TIP3   OH224141   3.712   0.874  13.094 -0.7847 -0.3047 -0.0444
  909TIP3    H124142   3.705   0.969  13.104 -0.4209 -0.2570 -0.2341
  909TIP3    H224143   3.800   0.860  13.059 -0.1321 -0.8392  1.6821
  910TIP3   OH224144   5.446   3.765   0.085  0.6281  0.0779  0.1750
  910TIP3    H124145   5.471   3.814   0.006  1.5330 -0.7443 -0.0604
  910TIP3    H224146   5.441   3.832   0.154 -0.1106  0.7943 -0.5411
  911TIP3   OH224147   2.458   4.488  13.099  0.1429  0.3009  0.2573
  911TIP3    H124148   2.383   4.429  13.111 -1.0200  1.8672  1.1463
  911TIP3    H224149   2.435   4.539  13.021  1.2936 -0.5926 -0.7037
  912TIP3   OH224150   3.324   4.083   2.928  0.1547  0.1936  0.2495
  912TIP3    H124151   3.399   4.039   2.887 -0.7825 -1.5157  0.2976
  912TIP3    H224152   3.285   4.017   2.985 -0.6529  1.4556  1.2254
  913TIP3   OH224153   5.927   3.434  11.903  0.3590 -0.0212 -0.0668
  913TIP3    H124154   6.005   3.463  11.856 -0.0011  1.6190  0.2636
  913TIP3    H224155   5.936   3.339  11.908 -0.3366 -0.5740 -4.7409
  914TIP3   OH224156   4.789   1.419   4.304  0.1760  0.3923 -0.1571
  914TIP3    H124157   4.866   1.402   4.251 -0.3685  1.9801 -1.5554
  914TIP3    H224158   4.823   1.452   4.387  1.0181 -1.1856  0.1524
  915TIP3   OH224159   2.822   6.246   1.416 -0.2353  0.2933  0.2179
  915TIP3    H124160   2.821   6.245   1.321 -0.7415 -0.8097  0.2278
  915TIP3    H224161   2.731   6.235   1.442 -0.0633  0.2579  0.8311
  916TIP3   OH224162   3.381   3.407   3.134  0.0567  0.3997 -0.0407
  916TIP3    H124163   3.291   3.393   3.103  0.2560  1.6336 -1.3207
  916TIP3    H224164   3.371   3.443   3.222 -0.7441  1.0753 -0.3952
  917TIP3   OH224165   5.189   3.585  14.046  0.2793  0.3050 -0.5925
  917TIP3    H124166   5.173   3.557  14.136  0.2608 -0.3320 -0.7844
  917TIP3    H224167   5.150   3.515  13.993 -0.3684  1.0338 -1.1007
  918TIP3   OH224168   5.418   1.191   2.821 -0.0922  0.5252  0.1532
  918TIP3    H124169   5.356   1.162   2.753 -0.3037  0.1443  0.5066
  918TIP3    H224170   5.370   1.258   2.869 -0.1414  0.4057  0.2710
  919TIP3   OH224171   0.939   5.153   2.011 -0.3859  0.3294  0.0085
  919TIP3    H124172   1.000   5.147   1.937 -1.8457  2.1179 -1.4773
  919TIP3    H224173   0.905   5.243   2.006 -2.7306 -0.4221  1.0564
  920TIP3   OH224174   0.355   6.527   4.019 -0.0752  0.7077  0.5501
  920TIP3    H124175   0.279   6.555   4.070 -0.3037 -0.7102  1.0531
  920TIP3    H224176   0.340   6.434   4.003  1.0349  0.6520 -0.2874
  921TIP3   OH224177   0.023   0.313   1.192  0.2286  0.2396  0.1748
  921TIP3    H124178   0.043   0.347   1.279 -0.3101 -0.5748  0.6374
  921TIP3    H224179  -0.064   0.349   1.173  0.3105  0.3493  0.0075
  922TIP3   OH224180   6.637   4.681  12.545  0.3807 -0.0182 -0.1559
  922TIP3    H124181   6.693   4.753  12.517 -0.9898  1.0617 -0.2086
  922TIP3    H224182   6.633   4.623  12.469 -0.9581  1.4142 -1.2333
  923TIP3   OH224183   0.424   6.305  11.451 -0.0096 -0.6385  0.4471
  923TIP3    H124184   0.436   6.374  11.386 -2.7480  0.0354  0.5442
  923TIP3    H224185   0.489   6.239  11.427  1.4750  1.1587 -0.7472
  924TIP3   OH224186   2.254   6.351   2.461 -0.4998  0.4679  0.0202
  924TIP3    H124187   2.237   6.415   2.530 -1.7737 -0.8181  0.9661
  924TIP3    H224188   2.204   6.382   2.386  0.1650  1.3938 -0.0592
  925TIP3   OH224189   2.941   1.436   1.959 -0.3522 -0.5047 -0.2355
  925TIP3    H124190   2.913   1.351   1.992  1.7980 -1.0548  0.2798
  925TIP3    H224191   2.957   1.488   2.038 -0.5285  0.0165 -0.5331
  926TIP3   OH224192   1.852   4.257  11.086 -0.3554 -0.4802 -0.2657
  926TIP3    H124193   1.807   4.341  11.097 -1.3315 -1.2079  2.1200
  926TIP3    H224194   1.927   4.262  11.145  0.1260 -0.9395 -0.8291
  927TIP3   OH224195   6.535   0.600  10.677  0.3916  0.0117  0.3221
  927TIP3    H124196   6.590   0.668  10.716  1.0169 -0.2635 -0.0606
  927TIP3    H224197   6.591   0.523  10.674  0.5609  0.1536 -1.5861
  928TIP3   OH224198   3.639   0.313  15.335 -0.5127 -0.4648  0.3064
  928TIP3    H124199   3.696   0.287  15.407  0.9600  1.7176  0.0204
  928TIP3    H224200   3.651   0.408  15.328  0.0055 -0.6468 -3.2634
  929TIP3   OH224201   3.637   5.031   0.417 -0.3401  0.1854 -0.2816
  929TIP3    H124202   3.624   5.124   0.435 -0.9526 -0.0768  0.6827
  929TIP3    H224203   3.661   5.028   0.324  0.7460  1.3841 -0.0641
  930TIP3   OH224204   3.407   6.177   1.670  0.1585  0.6973 -0.2150
  930TIP3    H124205   3.497   6.179   1.703  0.3370  0.0991 -0.6417
  930TIP3    H224206   3.399   6.256   1.617  1.0121 -0.1033 -1.6081
  931TIP3   OH224207   0.030   0.374   3.841 -0.3327  0.0806 -0.0791
  931TIP3    H124208  -0.063   0.355   3.849 -0.3210  0.5624  1.6760
  931TIP3    H224209   0.037   0.423   3.759 -1.5356 -0.4039 -0.4972
  932TIP3   OH224210   2.620   1.869   1.130 -0.1661 -0.0845  0.6330
  932TIP3    H124211   2.575   1.950   1.153 -1.0536 -0.3573 -0.1033
  932TIP3    H224212   2.692   1.897   1.073  1.0357  0.4147  2.2962
  933TIP3   OH224213   0.787   5.500  12.290  0.4610  0.3812  0.6723
  933TIP3    H124214   0.873   5.481  12.329  0.0292  0.3686  1.6504
  933TIP3    H224215   0.748   5.414  12.273  0.6693  0.3865  0.1516
  934TIP3   OH224216   2.039   5.858  11.254  0.4093 -0.6616  0.5459
  934TIP3    H124217   2.117   5.894  11.296 -1.3445  2.0822  1.7285
  934TIP3    H224218   2.073   5.795  11.191  3.4685 -0.8180  2.1513
  935TIP3   OH224219   6.139   6.382   3.235 -0.0971 -0.4654 -0.0747
  935TIP3    H124220   6.177   6.295   3.221  1.9159 -0.1168  2.4926
  935TIP3    H224221   6.104   6.407   3.149  2.9129 -2.0905 -1.9457
  936TIP3   OH224222   1.214   2.746   3.667 -0.0429 -0.4448  0.1887
  936TIP3    H124223   1.192   2.816   3.728 -0.2711 -0.7668  0.4807
  936TIP3    H224224   1.309   2.742   3.667 -0.0595 -1.3057  1.5174
  937TIP3   OH224225   0.261   0.833   4.282 -0.3275 -0.2524  0.5220
  937TIP3    H124226   0.327   0.774   4.246 -0.6102  0.2135 -0.8461
  937TIP3    H224227   0.183   0.778   4.291  0.2060 -0.7966  2.1172
  938TIP3   OH224228   2.071   4.918   5.083  0.1794  0.4495 -0.2619
  938TIP3    H124229   1.985   4.924   5.041  0.5775  0.9239 -1.0302
  938TIP3    H224230   2.130   4.966   5.025  1.1120 -0.4959 -0.1215
  939TIP3   OH224231   0.806   5.723   3.153  0.2720 -0.0461  0.0418
  939TIP3    H124232   0.729   5.682   3.192 -2.2223  1.1498 -3.1459
  939TIP3    H224233   0.866   5.651   3.137 -1.9840 -1.7793 -1.1135
  940TIP3   OH224234   2.579   5.938   3.262  0.4604  0.2832  0.2624
  940TIP3    H124235   2.515   5.894   3.205  3.9263 -2.6332 -1.8467
  940TIP3    H224236   2.571   5.893   3.346 -1.8963  1.7969  0.9506
  941TIP3   OH224237   4.621   0.234  13.092 -0.2565 -0.3034  0.4233
  941TIP3    H124238   4.665   0.227  13.007 -0.0258 -1.8800  0.6431
  941TIP3    H224239   4.545   0.289  13.075  1.0138  1.3445 -0.2766
  942TIP3   OH224240   1.311   5.594   2.321 -0.6395  0.0953  0.4548
  942TIP3    H124241   1.250   5.548   2.379 -1.2553 -0.8874 -0.9252
  942TIP3    H224242   1.358   5.653   2.379 -4.3023  2.4756  1.3507
  943TIP3   OH224243   4.856   5.977   0.412  0.1162 -0.3736 -0.5550
  943TIP3    H124244   4.791   5.947   0.349  1.4452 -0.3231 -2.0272
  943TIP3    H224245   4.930   6.004   0.358  0.8742  0.7911  0.9894
  944TIP3   OH224246   4.126   2.407   0.290  0.3781 -0.1049  0.3084
  944TIP3    H124247   4.142   2.421   0.197  1.8014  0.3508  0.5990
  944TIP3    H224248   4.214   2.400   0.329 -0.1678  0.7548  1.7688
  945TIP3   OH224249   1.964   0.693  11.597 -0.2487  0.4998 -0.2173
  945TIP3    H124250   1.990   0.625  11.535  1.3836  0.0071  0.9358
  945TIP3    H224251   1.962   0.774  11.546 -0.2682 -0.0974 -1.1777
  946TIP3   OH224252   5.221   2.690   5.484 -0.2430 -0.0857 -0.6624
  946TIP3    H124253   5.163   2.636   5.537 -0.7392  0.1115 -1.0035
  946TIP3    H224254   5.248   2.761   5.542  0.3266 -0.6285 -0.2453
  947TIP3   OH224255   6.088   6.596   1.145  0.2638 -0.5514  0.4501
  947TIP3    H124256   6.055   6.657   1.212  2.1221  0.0129  0.8998
  947TIP3    H224257   6.066   6.637   1.062  0.0827 -0.0554  0.7391
  948TIP3   OH224258   1.720   6.246   3.527 -0.9562  0.0410  0.0407
  948TIP3    H124259   1.624   6.238   3.529 -1.0290  0.1573 -1.7707
  948TIP3    H224260   1.736   6.332   3.488 -0.0926 -0.0371  0.2009
  949TIP3   OH224261   6.352   3.123   4.442 -0.5239 -0.2756  0.3752
  949TIP3    H124262   6.397   3.094   4.522 -0.8980 -1.5789  0.1411
  949TIP3    H224263   6.376   3.058   4.376  1.3101  1.7835 -1.1581
  950TIP3   OH224264   5.210   2.324   6.395 -0.6190  0.6233 -0.8467
  950TIP3    H124265   5.193   2.320   6.489  0.5528  1.9789 -0.5478
  950TIP3    H224266   5.226   2.233   6.370  0.5241  0.4021  0.5708
  951TIP3   OH224267   1.334   6.642   0.167  0.3913  0.3712 -0.7618
  951TIP3    H124268   1.381   6.634   0.250 -2.4639 -1.9754  0.8297
  951TIP3    H224269   1.392   6.599   0.104  1.4995 -0.1624  0.5491
  952TIP3   OH224270   0.193   0.173  10.521 -0.1230 -0.3576  0.1624
  952TIP3    H124271   0.156   0.254  10.556 -1.8644 -1.2029  0.3735
  952TIP3    H224272   0.272   0.159  10.572  1.6422  2.4661 -1.5089
  953TIP3   OH224273   3.327   2.087   1.325  0.1649  0.5814  0.1155
  953TIP3    H124274   3.366   2.014   1.374  0.5041  0.7702  0.1291
  953TIP3    H224275   3.259   2.046   1.272  1.0705  0.0737 -0.6991
  954TIP3   OH224276   4.040   1.358  15.665  0.0893 -0.2289 -0.0629
  954TIP3    H124277   4.063   1.330  15.753 -0.3148 -1.4207 -0.3243
  954TIP3    H224278   4.060   1.452  15.664 -0.0963 -0.1518  1.3528
  955TIP3   OH224279   3.707   3.727  16.903  0.3058 -0.0245  0.0373
  955TIP3    H124280   3.691   3.740  16.996 -0.4335 -1.6313  0.1608
  955TIP3    H224281   3.659   3.798  16.860 -0.0558  0.2298  0.8440
  956TIP3   OH224282   5.714   0.149  12.493  0.0667 -0.4754 -0.5228
  956TIP3    H124283   5.709   0.241  12.467 -0.5133 -0.4867 -0.4507
  956TIP3    H224284   5.643   0.107  12.445 -0.0569 -0.7756 -0.0797
  957TIP3   OH224285   0.492   2.772  12.455 -0.1752 -0.6363 -0.9134
  957TIP3    H124286   0.552   2.738  12.521 -1.5007 -1.8352 -0.2742
  957TIP3    H224287   0.431   2.700  12.438 -2.6585  1.1224 -0.0345
  958TIP3   OH224288   0.795   0.581  10.647  0.5889 -0.4868  0.0756
  958TIP3    H124289   0.746   0.516  10.697  1.7918 -1.7272 -0.2854
  958TIP3    H224290   0.791   0.550  10.556  1.2669 -0.1299 -0.0855
  959TIP3   OH224291   0.965   0.530   0.135  0.0971 -0.5277 -0.1877
  959TIP3    H124292   0.889   0.544   0.192 -1.6402 -1.1758 -2.2025
  959TIP3    H224293   1.010   0.455   0.173 -1.3423 -1.3094  0.0647
  960TIP3   OH224294   5.269   3.962   5.151  0.7043 -0.2171  0.2774
  960TIP3    H124295   5.300   4.052   5.164  1.0243 -0.1635 -0.8185
  960TIP3    H224296   5.345   3.908   5.174  1.7263 -0.0843 -2.4649
  961TIP3   OH224297   5.113   3.583  11.812  0.5552  0.0375 -0.2674
  961TIP3    H124298   5.151   3.669  11.797 -0.3673  1.0782  2.6964
  961TIP3    H224299   5.021   3.599  11.830  0.0256 -1.7659 -1.0909
  962TIP3   OH224300   0.688   5.013  13.977  0.2514  0.1526  0.2003
  962TIP3    H124301   0.695   5.045  14.067 -0.1120 -1.4820  0.8481
  962TIP3    H224302   0.603   4.969  13.973  0.0976  0.5102 -1.0659
  963TIP3   OH224303   6.118   1.212  12.622  0.2787  0.4815  0.1216
  963TIP3    H124304   6.090   1.159  12.697 -0.7162 -0.8809 -1.1541
  963TIP3    H224305   6.194   1.165  12.586 -0.0442  0.4148 -0.4811
  964TIP3   OH224306   3.627   0.622  12.458  0.0322  0.0488  0.7153
  964TIP3    H124307   3.631   0.589  12.368  2.2007 -3.2673  1.8208
  964TIP3    H224308   3.700   0.683  12.466 -2.0832  2.9810 -0.4751
  965TIP3   OH224309   6.004   2.086   0.296  0.3842 -0.4253  0.0516
  965TIP3    H124310   5.921   2.134   0.298  0.9109  0.5262 -0.4885
  965TIP3    H224311   5.999   2.027   0.371  0.2761  1.4347  1.5801
  966TIP3   OH224312   4.040   0.861  14.088 -0.4224  0.2915  0.8583
  966TIP3    H124313   4.023   0.949  14.053  2.0138 -0.1436 -1.8141
  966TIP3    H224314   4.116   0.872  14.144 -1.6084  0.2206  2.5417
  967TIP3   OH224315   4.389   5.830  12.124  0.5658  0.8894 -0.1182
  967TIP3    H124316   4.380   5.900  12.189  0.3457 -0.3577  1.2301
  967TIP3    H224317   4.477   5.797  12.137  0.4887  0.5757 -0.4035
  968TIP3   OH224318   3.965   6.352   0.718 -0.6904 -0.2294  0.4778
  968TIP3    H124319   3.876   6.389   0.719 -0.0994  1.5505 -2.2786
  968TIP3    H224320   4.018   6.420   0.760 -0.5432 -1.2079  1.9428
  969TIP3   OH224321   1.812   5.726  16.977  0.2317  0.5852  0.2024
  969TIP3    H124322   1.898   5.694  16.951  0.2030 -1.9155  2.7608
  969TIP3    H224323   1.816   5.730  17.073 -1.4935  3.6217  0.2726
  970TIP3   OH224324   3.916   2.008   5.853 -0.4491  0.2792  0.0957
  970TIP3    H124325   3.955   2.050   5.777 -0.1414  1.0254  0.6469
  970TIP3    H224326   3.865   1.936   5.818  2.6558 -1.7883 -0.6060
  971TIP3   OH224327   0.660   2.119   2.393  0.0675 -0.3747  0.1429
  971TIP3    H124328   0.673   2.207   2.429  0.2608 -1.0476  1.8190
  971TIP3    H224329   0.570   2.120   2.359  0.1456  0.5275 -0.0588
  972TIP3   OH224330   6.052   2.960  14.623 -0.1017 -0.6303 -0.2729
  972TIP3    H124331   5.982   2.903  14.590  2.3421 -3.9279 -0.2468
  972TIP3    H224332   6.132   2.919  14.592  1.9555  1.8270  1.4264
  973TIP3   OH224333   5.889   1.288   3.508 -0.3357  0.4978 -0.6179
  973TIP3    H124334   5.969   1.339   3.497 -0.7897  1.8128  1.5806
  973TIP3    H224335   5.831   1.344   3.559 -1.2175 -1.8296  1.1576
  974TIP3   OH224336   1.217   0.056  15.437 -0.3268  0.2155 -0.1632
  974TIP3    H124337   1.272   0.020  15.508  1.3136 -1.3858 -2.1201
  974TIP3    H224338   1.210  -0.016  15.374 -1.9069  1.5143 -1.5421
  975TIP3   OH224339   3.616   0.977  15.226  0.3702  0.1760  0.2853
  975TIP3    H124340   3.645   1.031  15.152  0.9448 -0.4591  0.0358
  975TIP3    H224341   3.523   0.998  15.237  0.3168  0.3733 -0.5289
  976TIP3   OH224342   3.926   6.664  14.073 -0.6864  0.1001  0.0326
  976TIP3    H124343   3.927   6.759  14.081  1.0062  0.1123 -0.0588
  976TIP3    H224344   3.861   6.646  14.005 -0.2177  1.2661 -0.7473
  977TIP3   OH224345   5.092   2.033   4.552  0.0193 -0.7439 -0.3486
  977TIP3    H124346   5.030   2.096   4.586  1.5983  1.6642 -1.6209
  977TIP3    H224347   5.041   1.976   4.495 -1.5742 -1.1610  1.4165
  978TIP3   OH224348   4.492   1.656   3.835  0.1359 -0.1689  0.0466
  978TIP3    H124349   4.556   1.682   3.901  0.9810 -2.7418  0.3597
  978TIP3    H224350   4.517   1.704   3.756  3.3974 -2.0669 -0.2266
  979TIP3   OH224351   1.605   0.697   5.801 -0.6959  0.4196 -0.2569
  979TIP3    H124352   1.566   0.752   5.732 -1.4924  1.3722  0.8967
  979TIP3    H224353   1.637   0.760   5.865  0.3519 -0.4487  0.0881
  980TIP3   OH224354   2.278   4.376  16.839  0.1516 -0.0738  0.2257
  980TIP3    H124355   2.317   4.293  16.866  0.9711 -0.1032 -0.9445
  980TIP3    H224356   2.336   4.407  16.769 -0.2312  1.4067  0.5388
  981TIP3   OH224357   6.481   2.457   1.937  0.0578 -0.3773  0.0755
  981TIP3    H124358   6.413   2.399   1.971  0.4030  0.6548  2.8070
  981TIP3    H224359   6.463   2.542   1.978  1.5656  0.5614 -1.0741
  982TIP3   OH224360   2.063   6.351   3.557 -0.0068  0.2100 -0.0553
  982TIP3    H124361   2.080   6.399   3.477 -0.9282 -0.1715 -0.4965
  982TIP3    H224362   2.071   6.259   3.532 -0.6438  0.0788  0.1939
  983TIP3   OH224363   4.519   1.728  11.008 -0.2645  0.5708 -0.0894
  983TIP3    H124364   4.582   1.657  11.000 -0.5118  0.3558 -0.1665
  983TIP3    H224365   4.515   1.746  11.102 -0.0600  0.6140 -0.0888
  984TIP3   OH224366   5.800   4.591  16.119 -0.1217  0.7656 -0.2895
  984TIP3    H124367   5.810   4.601  16.213 -3.1074 -2.2458  0.5499
  984TIP3    H224368   5.738   4.660  16.094 -1.9218 -0.3911  0.7148
  985TIP3   OH224369   5.044   3.280   3.831  0.1823 -0.0935 -0.2079
  985TIP3    H124370   4.975   3.321   3.778 -0.5001 -1.4496 -0.4043
  985TIP3    H224371   5.028   3.313   3.920  0.4125  1.0223 -0.5636
  986TIP3   OH224372   2.930   1.509   6.032  0.3318 -0.0421  0.2996
  986TIP3    H124373   2.882   1.444   5.982  2.0231 -1.3727  0.2952
  986TIP3    H224374   2.892   1.506   6.120  0.9591 -1.7456  0.5528
  987TIP3   OH224375   1.701   5.425  14.065  0.1017 -0.0417 -0.2932
  987TIP3    H124376   1.765   5.490  14.038  0.1935  0.1343  0.3255
  987TIP3    H224377   1.753   5.353  14.100  0.0162 -0.6211 -1.3135
  988TIP3   OH224378   0.949   5.610   4.845  0.6772 -0.3737  0.1633
  988TIP3    H124379   0.996   5.565   4.775  1.4528  2.2354 -1.0851
  988TIP3    H224380   1.006   5.681   4.871 -1.3750  1.2398  0.5256
  989TIP3   OH224381   0.934   3.992   2.648 -0.1247 -0.4353 -0.5576
  989TIP3    H124382   0.999   3.953   2.589  0.1595 -0.9977  0.1012
  989TIP3    H224383   0.978   3.994   2.733 -0.4409  0.5725 -0.4006
  990TIP3   OH224384   1.554   3.932   5.892 -0.2011 -0.3808  0.1438
  990TIP3    H124385   1.530   3.891   5.975 -2.1427  0.7664  0.1993
  990TIP3    H224386   1.557   4.026   5.912  0.0626 -0.1528 -0.9121
  991TIP3   OH224387   3.820   6.335   5.911  0.0999  0.6579 -0.3554
  991TIP3    H124388   3.836   6.273   5.983  3.0227  0.6615 -0.8616
  991TIP3    H224389   3.780   6.411   5.953 -0.1657 -0.1550  0.9131
  992TIP3   OH224390   5.101   3.758   5.076 -0.7895  0.0977  0.3029
  992TIP3    H124391   5.164   3.822   5.109 -0.0361 -0.5234  0.1255
  992TIP3    H224392   5.111   3.683   5.135 -0.2046 -0.6090 -0.6549
  993TIP3   OH224393   0.254   2.434   2.147 -0.5579  0.0035 -0.3199
  993TIP3    H124394   0.197   2.411   2.074  0.5454  1.3908 -1.6992
  993TIP3    H224395   0.229   2.374   2.217 -0.8416 -2.2333 -2.2153
  994TIP3   OH224396   4.661   0.294   6.866  0.3059  1.2785  0.2956
  994TIP3    H124397   4.747   0.318   6.831  0.0321  1.0277 -0.5796
  994TIP3    H224398   4.680   0.249   6.948  1.0572  0.6011 -0.2384
  995TIP3   OH224399   4.662   5.031  15.956  0.8605  0.2930 -0.1002
  995TIP3    H124400   4.589   4.978  15.924  2.0006 -0.8277 -0.9647
  995TIP3    H224401   4.661   5.019  16.051  0.4843 -0.4744 -0.1938
  996TIP3   OH224402   5.739   0.837   1.875  0.6553  0.1928  0.5700
  996TIP3    H124403   5.816   0.844   1.930  0.7168  0.4735  0.4547
  996TIP3    H224404   5.678   0.902   1.910  0.7374  0.4522  0.2468
  997TIP3   OH224405   4.587   3.611   2.758 -0.1304 -0.1735 -0.1765
  997TIP3    H124406   4.510   3.588   2.810 -0.6217 -1.1342 -1.2741
  997TIP3    H224407   4.551   3.632   2.671  0.9645 -2.5969 -1.3107
  998TIP3   OH224408   0.313   6.235   1.203 -0.1950  0.3558  0.0864
  998TIP3    H124409   0.235   6.179   1.202 -0.0213 -0.0274 -2.8139
  998TIP3    H224410   0.382   6.181   1.164  1.3278  0.9825  1.8157
  999TIP3   OH224411   1.689   5.943  16.512 -1.0602 -0.1084 -0.3315
  999TIP3    H124412   1.729   5.934  16.426 -1.8859  2.3496 -1.0793
  999TIP3    H224413   1.738   6.014  16.554 -2.4455  0.6596  0.0587
 1000TIP3   OH224414   5.577   2.549  15.733 -0.3380  0.0313 -0.6061
 1000TIP3    H124415   5.504   2.549  15.671  1.4212 -0.3563 -2.8103
 1000TIP3    H224416   5.583   2.458  15.762 -1.9716  0.4572  1.2234
 1001TIP3   OH224417   1.852   6.073   6.100  0.4542  0.1875 -0.3358
 1001TIP3    H124418   1.915   6.088   6.170  2.4387 -0.3753 -1.8814
 1001TIP3    H224419   1.855   6.153   6.047 -1.8317  1.0495  0.7394
 1002TIP3   OH224420   0.370   4.784  13.996  0.0674  1.2062  0.2048
 1002TIP3    H124421   0.321   4.809  13.918  0.0683  0.5196 -0.0243
 1002TIP3    H224422   0.440   4.728  13.963 -0.7923 -0.2871  0.8327
 1003TIP3   OH224423   2.675   5.377  16.142 -0.6792 -0.3945 -0.1865
 1003TIP3    H124424   2.727   5.437  16.088 -1.1567 -0.3792 -0.6356
 1003TIP3    H224425   2.586   5.412  16.139 -0.2791  1.3352  3.0147
 1004TIP3   OH224426   6.752   4.749   6.147  0.5948  0.0736 -0.3070
 1004TIP3    H124427   6.838   4.741   6.107  0.2873 -0.5547 -0.8604
 1004TIP3    H224428   6.700   4.797   6.083  0.8051  1.4257  0.4824
 1005TIP3   OH224429   5.639   0.299  15.765 -0.6931  0.1996 -0.3616
 1005TIP3    H124430   5.692   0.245  15.706  0.2834  1.0235 -0.2534
 1005TIP3    H224431   5.549   0.268  15.751 -0.7132  1.2141 -3.2966
 1006TIP3   OH224432   3.557   4.195   5.662  0.2811  0.0363 -0.0409
 1006TIP3    H124433   3.632   4.144   5.692 -0.4729 -0.7408  0.6016
 1006TIP3    H224434   3.548   4.266   5.726  1.1142  0.7918 -0.7347
 1007TIP3   OH224435   1.437   1.216   3.569  0.6127  0.1321 -0.5193
 1007TIP3    H124436   1.454   1.311   3.570  0.7783  0.1298 -1.8595
 1007TIP3    H224437   1.503   1.180   3.629  0.4688  0.8617  0.1052
 1008TIP3   OH224438   1.621   2.611   5.330  0.3789  0.6066 -0.3278
 1008TIP3    H124439   1.646   2.643   5.416 -0.4047  1.1955 -0.3155
 1008TIP3    H224440   1.697   2.630   5.274  1.6082 -1.3515  0.5769
 1009TIP3   OH224441   6.274   2.971  12.269  0.4154 -0.2777 -0.2614
 1009TIP3    H124442   6.208   2.933  12.327  0.1850 -0.2726 -0.5119
 1009TIP3    H224443   6.355   2.927  12.292  0.0120 -1.4896 -1.0602
 1010TIP3   OH224444   3.783   3.790   4.725 -0.2694 -0.6834 -0.1005
 1010TIP3    H124445   3.820   3.738   4.654  0.7256 -1.4020  0.9029
 1010TIP3    H224446   3.747   3.726   4.787 -0.7203 -0.0964  0.2626
 1011TIP3   OH224447   1.977   1.786   1.635 -0.0168 -0.0641  0.1138
 1011TIP3    H124448   1.882   1.779   1.627  0.0154 -0.4482  0.0218
 1011TIP3    H224449   1.996   1.879   1.628 -0.2647 -0.0918 -1.2363
 1012TIP3   OH224450   2.006   1.223  15.102  0.2760  0.5399  0.2291
 1012TIP3    H124451   1.959   1.146  15.068  1.4718 -0.7653  1.3850
 1012TIP3    H224452   2.005   1.285  15.030 -0.7691 -0.5451 -0.7450
 1013TIP3   OH224453   4.551   2.888  13.342  0.0678 -0.5823  0.3281
 1013TIP3    H124454   4.583   2.950  13.277  1.1679 -1.2871  0.1742
 1013TIP3    H224455   4.470   2.853  13.305  2.0162 -2.9883 -2.0226
 1014TIP3   OH224456   2.250   6.622   3.702 -0.6227 -0.4790 -0.5950
 1014TIP3    H124457   2.184   6.663   3.646  0.1676  2.3116  0.3911
 1014TIP3    H224458   2.212   6.622   3.789  0.5593  1.0884 -0.0296
 1015TIP3   OH224459   3.723   2.647   3.801  0.0893  0.0606 -0.5409
 1015TIP3    H124460   3.737   2.588   3.727 -3.1745 -2.3236  0.4970
 1015TIP3    H224461   3.678   2.723   3.762  1.8615  0.6754 -1.4871
 1016TIP3   OH224462   5.729   3.169  11.585  0.4686 -0.2081 -0.1333
 1016TIP3    H124463   5.724   3.149  11.491  0.9769  0.2521 -0.2687
 1016TIP3    H224464   5.794   3.240  11.590 -0.3360  0.4974  0.4496
 1017TIP3   OH224465   3.287   0.828   6.363  0.2755 -0.7654 -0.4283
 1017TIP3    H124466   3.311   0.782   6.444 -1.4776 -0.9118  0.0400
 1017TIP3    H224467   3.274   0.919   6.390 -2.1356 -1.1361 -0.0939
 1018TIP3   OH224468   4.450   3.929   0.679  0.4297  0.9968  0.1876
 1018TIP3    H124469   4.465   3.859   0.743 -1.7471 -1.0934 -1.3816
 1018TIP3    H224470   4.363   3.910   0.643  0.6798  3.2757 -1.9097
 1019TIP3   OH224471   1.994   0.655  15.950  0.2558  0.4509 -0.2570
 1019TIP3    H124472   1.975   0.741  15.912  1.8844  0.4564 -1.1367
 1019TIP3    H224473   2.073   0.625  15.905 -0.5051 -1.7276 -0.2774
 1020TIP3   OH224474   3.844   6.238   2.998  0.2999  0.5084 -0.2471
 1020TIP3    H124475   3.762   6.264   3.040 -1.1837 -1.2204 -1.8942
 1020TIP3    H224476   3.886   6.321   2.973 -1.3302  1.4302 -0.0554
 1021TIP3   OH224477   1.502   5.530  15.861 -0.0302  0.4306  0.3762
 1021TIP3    H124478   1.429   5.494  15.811  0.2332  2.4757 -1.6420
 1021TIP3    H224479   1.580   5.495  15.818  0.2020  0.6278  0.6342
 1022TIP3   OH224480   0.504   4.812   2.373 -0.3486  0.3834 -0.1972
 1022TIP3    H124481   0.538   4.723   2.358 -0.4454  0.1884  0.7122
 1022TIP3    H224482   0.582   4.863   2.396 -0.4184  0.3347  0.1486
 1023TIP3   OH224483   1.963   0.423  11.466  0.1179 -0.4062  0.1426
 1023TIP3    H124484   1.978   0.353  11.530  2.3151 -1.6470 -1.5661
 1023TIP3    H224485   2.051   0.444  11.433 -0.8185  0.9773 -1.6588
 1024TIP3   OH224486   5.594   4.013  16.545  0.7834  0.7203 -0.4804
 1024TIP3    H124487   5.578   4.015  16.639 -0.6307 -0.5259 -0.6596
 1024TIP3    H224488   5.612   4.104  16.521  0.8925  1.0852  0.9355
 1025TIP3   OH224489   1.630   2.596   6.169  0.3303 -0.0527  0.2290
 1025TIP3    H124490   1.710   2.642   6.191  0.7191  0.5714 -2.1849
 1025TIP3    H224491   1.659   2.512   6.134  0.1862  1.0414 -2.7935
 1026TIP3   OH224492   5.719   1.801  16.697  0.1537  0.1897 -0.2177
 1026TIP3    H124493   5.794   1.748  16.725 -0.1530 -0.1672 -0.0544
 1026TIP3    H224494   5.719   1.876  16.757 -0.4552 -0.5289  0.7255
 1027TIP3   OH224495   3.975   2.303  16.768 -0.0955  0.4420 -0.1352
 1027TIP3    H124496   3.898   2.300  16.826  0.2264 -0.9426  0.2516
 1027TIP3    H224497   3.969   2.222  16.717  0.6986  0.7004 -0.6390
 1028TIP3   OH224498   0.188   4.558  13.158 -0.0322 -0.0788  0.1679
 1028TIP3    H124499   0.114   4.577  13.101 -1.2257  1.8498  2.2061
 1028TIP3    H224500   0.261   4.606  13.120 -0.1669 -0.7911 -1.0358
 1029TIP3   OH224501   6.456   0.959  12.997  0.0158 -0.4703  0.5452
 1029TIP3    H124502   6.395   1.025  13.032  1.1912  1.1113 -0.2602
 1029TIP3    H224503   6.527   0.955  13.062  1.0933  0.8267 -0.4940
 1030TIP3   OH224504   3.684   5.049   1.727  0.3299 -0.5070 -0.1826
 1030TIP3    H124505   3.696   5.135   1.688  0.8009 -0.5016 -0.0323
 1030TIP3    H224506   3.758   4.997   1.694  0.9197 -0.4134  0.9409
 1031TIP3   OH224507   5.770   6.639  16.101 -0.8812 -0.0218  0.4384
 1031TIP3    H124508   5.842   6.614  16.043 -0.0726  1.1195  0.9015
 1031TIP3    H224509   5.698   6.658  16.041  0.0157  1.3908 -0.2721
 1032TIP3   OH224510   2.738   4.500   5.137  0.0737 -0.4881 -0.4411
 1032TIP3    H124511   2.780   4.570   5.187  0.7127 -1.7301  0.8244
 1032TIP3    H224512   2.750   4.526   5.046  0.6182  0.8679 -0.0083
 1033TIP3   OH224513   1.220   1.844   0.949  0.0388  0.0840  0.2057
 1033TIP3    H124514   1.230   1.759   0.993 -0.5871  0.1218  0.4324
 1033TIP3    H224515   1.252   1.829   0.860  3.6938  0.6382  1.2819
 1034TIP3   OH224516   3.125   5.231  16.692 -0.1223 -0.3253 -0.1856
 1034TIP3    H124517   3.128   5.200  16.602  2.7190  0.6893 -0.5221
 1034TIP3    H224518   3.041   5.199  16.725 -0.6680 -1.8380 -2.7584
 1035TIP3   OH224519   4.130   3.702  10.682 -0.2334 -0.1955 -0.3253
 1035TIP3    H124520   4.106   3.612  10.658 -2.4319  0.5421 -1.0816
 1035TIP3    H224521   4.155   3.696  10.774  1.2149 -1.8101 -0.7517
 1036TIP3   OH224522   0.004   3.657   3.268 -0.2491 -0.1046 -0.1222
 1036TIP3    H124523  -0.034   3.576   3.302  0.9403 -0.0286  1.4779
 1036TIP3    H224524   0.012   3.714   3.344  2.2063  0.2024 -0.5132
 1037TIP3   OH224525   2.951   0.261   2.720 -0.1740  0.3515 -0.2846
 1037TIP3    H124526   2.903   0.209   2.785  1.9184  0.1089  1.1494
 1037TIP3    H224527   2.938   0.352   2.747  1.2980  0.2207  0.9976
 1038TIP3   OH224528   5.302   2.040   1.714 -0.4856 -0.0340 -0.0407
 1038TIP3    H124529   5.208   2.029   1.728 -0.1635 -0.8146  1.7931
 1038TIP3    H224530   5.311   2.053   1.620 -2.4773  0.6563 -0.1773
 1039TIP3   OH224531   4.056   6.238   3.784 -0.5102 -0.1390  0.4656
 1039TIP3    H124532   3.963   6.217   3.784 -0.0423 -2.4991  1.7494
 1039TIP3    H224533   4.065   6.308   3.849 -1.0502 -1.8342  2.4414
 1040TIP3   OH224534   3.940   2.066  16.627 -0.2814 -0.3914 -0.3209
 1040TIP3    H124535   3.892   2.009  16.567 -1.1019  1.6670 -1.7322
 1040TIP3    H224536   4.026   2.025  16.635 -1.2329 -2.4881 -0.2237
 1041TIP3   OH224537   0.429   6.206   2.189  0.1582  0.3293 -0.0827
 1041TIP3    H124538   0.480   6.164   2.258 -0.0836  1.5503  0.8858
 1041TIP3    H224539   0.366   6.140   2.161  1.2603 -0.6923 -0.2267
 1042TIP3   OH224540   2.537   0.389  17.076 -0.1166 -0.3147 -0.4936
 1042TIP3    H124541   2.522   0.311  17.129 -0.3952  0.8736  1.2434
 1042TIP3    H224542   2.592   0.358  17.004  0.6049 -1.9348  0.6789
 1043TIP3   OH224543   0.741   0.087  14.824  0.2408  0.6503  0.3361
 1043TIP3    H124544   0.772   0.093  14.733  0.4808 -1.3335  0.2538
 1043TIP3    H224545   0.819   0.070  14.875 -0.1742 -0.3729  0.6431
 1044TIP3   OH224546   2.806   4.203   4.030 -0.1284  0.0956  0.0653
 1044TIP3    H124547   2.887   4.252   4.045 -1.1684  2.3099 -1.0709
 1044TIP3    H224548   2.835   4.121   3.991  1.5302  1.5071 -1.8695
 1045TIP3   OH224549   2.263   4.037   0.165 -0.0637 -0.0746  0.1114
 1045TIP3    H124550   2.326   4.061   0.233  1.5985 -1.6934 -0.7721
 1045TIP3    H224551   2.183   4.017   0.212  0.2563  1.3275  1.3394
 1046TIP3   OH224552   5.036   1.841   1.675  0.2357 -0.3074  0.7921
 1046TIP3    H124553   4.981   1.920   1.677  0.3788 -0.2104  0.8793
 1046TIP3    H224554   4.980   1.774   1.636 -0.0700 -0.3041  1.2217
 1047TIP3   OH224555   1.875   4.397   1.461  0.5732  0.4961  0.0350
 1047TIP3    H124556   1.960   4.413   1.501  0.5741 -1.1578  0.7938
 1047TIP3    H224557   1.882   4.430   1.372  2.5240 -0.9570 -0.4045
 1048TIP3   OH224558   0.623   4.673  15.987  0.3270  0.0519 -0.0128
 1048TIP3    H124559   0.549   4.636  15.940  0.6566  0.2915 -0.7391
 1048TIP3    H224560   0.696   4.615  15.968  0.4440  0.0988  0.2816
 1049TIP3   OH224561   0.522   2.360  14.833 -0.8127 -0.1216  0.1428
 1049TIP3    H124562   0.445   2.412  14.857 -0.6456  0.5400 -0.6986
 1049TIP3    H224563   0.559   2.406  14.757  0.5918 -0.2484  0.7225
 1050TIP3   OH224564   1.369   2.421  12.037 -0.0193  0.4618  0.1099
 1050TIP3    H124565   1.386   2.388  11.949 -1.1532  0.4061 -0.0965
 1050TIP3    H224566   1.325   2.505  12.024  1.3214  1.2822  0.6367
 1051TIP3   OH224567   6.595   4.266   3.602 -0.2370  0.1153 -0.0567
 1051TIP3    H124568   6.634   4.272   3.689  2.0683 -0.8392 -0.9567
 1051TIP3    H224569   6.535   4.191   3.608  0.3984 -0.3602  0.5244
 1052TIP3   OH224570   5.331   1.290   1.030 -0.4738 -0.1598  0.5611
 1052TIP3    H124571   5.356   1.214   1.082  0.3347 -0.1486  0.2106
 1052TIP3    H224572   5.264   1.334   1.083  0.1647 -0.2662  1.4913
 1053TIP3   OH224573   1.029   5.283  12.133 -0.0722  0.1303  0.1263
 1053TIP3    H124574   1.033   5.276  12.229  0.9576 -2.1995 -0.0127
 1053TIP3    H224575   1.001   5.373  12.117 -0.9533  0.4001  2.6241
 1054TIP3   OH224576   1.945   6.256  16.261 -0.1899  0.0901  0.3687
 1054TIP3    H124577   1.944   6.182  16.201  0.6856  0.3904 -0.0404
 1054TIP3    H224578   1.857   6.293  16.255 -0.4180 -0.4919  0.0470
 1055TIP3   OH224579   5.031   2.902   0.964  0.1206 -0.9319 -0.2147
 1055TIP3    H124580   4.990   2.872   0.883 -3.2502  0.7780  0.6434
 1055TIP3    H224581   5.030   2.997   0.957  0.9355 -0.7892  1.3030
 1056TIP3   OH224582   6.168   1.573  17.172  0.0381 -0.5389 -0.7233
 1056TIP3    H124583   6.241   1.533  17.124  1.3413 -0.3136  0.9950
 1056TIP3    H224584   6.152   1.655  17.127  2.0405  0.2351 -0.1235
 1057TIP3   OH224585   0.931   5.474   2.233  0.3938 -0.4648 -0.3095
 1057TIP3    H124586   0.853   5.484   2.288  0.5791 -0.3325 -0.0671
 1057TIP3    H224587   1.001   5.517   2.282  0.4957 -0.0562 -0.7965
 1058TIP3   OH224588   4.758   1.278  16.463 -0.1032  0.0711 -0.0113
 1058TIP3    H124589   4.747   1.343  16.394 -1.6475 -0.5020 -0.3377
 1058TIP3    H224590   4.669   1.250  16.485  0.4451 -0.8635  1.1555
 1059TIP3   OH224591   6.289   4.973   1.049 -0.0062  0.1599  0.1557
 1059TIP3    H124592   6.210   4.983   0.995  0.1085 -0.9148 -0.2435
 1059TIP3    H224593   6.263   5.000   1.136 -0.6321  0.4584 -0.1198
 1060TIP3   OH224594   0.917   1.154   6.131  0.0464  0.2906 -0.4362
 1060TIP3    H124595   0.971   1.216   6.180 -0.1240  0.7602 -0.8403
 1060TIP3    H224596   0.855   1.120   6.195 -1.1768  2.0346 -0.6375
 1061TIP3   OH224597   5.896   0.033   0.262 -0.0177 -0.1534  0.2466
 1061TIP3    H124598   5.913  -0.061   0.257 -0.1927 -0.1738  0.0196
 1061TIP3    H224599   5.821   0.040   0.323 -1.5493 -0.3599 -1.5216
 1062TIP3   OH224600   6.066   6.707  15.252 -0.2323  0.1364 -0.3004
 1062TIP3    H124601   6.062   6.802  15.238  3.1953  0.2729 -1.3795
 1062TIP3    H224602   6.098   6.673  15.168 -2.0992 -2.1204 -0.1762
 1063TIP3   OH224603   0.691   3.597  12.813 -0.2362 -0.8489 -0.4686
 1063TIP3    H124604   0.750   3.607  12.738 -1.2128  0.7595 -1.0653
 1063TIP3    H224605   0.605   3.583  12.773 -0.9304  0.9932  0.3095
 1064TIP3   OH224606   2.084   4.173   2.063  0.1140 -0.1042  0.3932
 1064TIP3    H124607   2.002   4.164   2.111 -0.1666  1.4427  0.2687
 1064TIP3    H224608   2.124   4.252   2.100  0.2160  0.7318 -1.3995
 1065TIP3   OH224609   6.423   3.594  16.400  0.1853  0.1793 -0.1907
 1065TIP3    H124610   6.419   3.647  16.321 -2.1267 -2.4298 -2.0149
 1065TIP3    H224611   6.477   3.519  16.376 -1.6497 -1.3360  0.1361
 1066TIP3   OH224612   0.003   0.067   5.652 -0.2281  0.1511 -0.0715
 1066TIP3    H124613  -0.045   0.087   5.732  0.8277 -0.9688  0.8727
 1066TIP3    H224614  -0.009  -0.027   5.640 -1.1207  0.4430 -1.7562
 1067TIP3   OH224615   4.415   6.027  16.545 -0.1344  0.2872 -0.4844
 1067TIP3    H124616   4.499   6.048  16.504  0.4028 -1.5937 -0.4313
 1067TIP3    H224617   4.352   6.033  16.473  0.2464  0.4080 -0.8197
 1068TIP3   OH224618   4.764   1.244   0.120  0.0363 -0.2143 -0.1647
 1068TIP3    H124619   4.786   1.282   0.035  0.4145 -0.7655 -0.3152
 1068TIP3    H224620   4.709   1.311   0.162  0.4846  0.3957 -0.5218
 1069TIP3   OH224621   1.398   6.452   4.335 -0.5959  0.0390 -0.1131
 1069TIP3    H124622   1.350   6.509   4.396 -1.9663 -1.3637  0.1952
 1069TIP3    H224623   1.355   6.465   4.251 -0.3881  0.0486 -0.2185
 1070TIP3   OH224624   1.248   5.825  14.471  0.6236 -0.6964 -0.0941
 1070TIP3    H124625   1.330   5.868  14.494  0.4131 -1.1362  1.5796
 1070TIP3    H224626   1.186   5.898  14.461  0.4286 -0.5030  2.0669
 1071TIP3   OH224627   3.876   4.481  11.437  0.3017  0.2638  0.0820
 1071TIP3    H124628   3.929   4.459  11.361 -0.3453 -0.8157 -0.0807
 1071TIP3    H224629   3.828   4.400  11.458 -1.2778  1.1779  0.2172
 1072TIP3   OH224630   0.963   2.637   4.582  0.4719  0.5256  0.1842
 1072TIP3    H124631   1.028   2.592   4.636  0.8359  2.3656  1.3787
 1072TIP3    H224632   0.963   2.589   4.499  1.2623 -1.2447  1.1578
 1073TIP3   OH224633   2.909   5.049  17.130  0.5403 -0.1071 -0.5903
 1073TIP3    H124634   2.874   4.960  17.137 -0.4906  0.3119 -0.1726
 1073TIP3    H224635   2.840   5.098  17.084 -0.2518  1.1645  1.8108
 1074TIP3   OH224636   6.025   1.372   1.622  0.3592 -0.2490  0.2632
 1074TIP3    H124637   5.996   1.304   1.684 -0.1677 -0.4538 -0.1923
 1074TIP3    H224638   6.101   1.334   1.579 -1.2654 -1.5721 -1.6449
 1075TIP3   OH224639   2.843   2.325   3.850  0.4076 -0.3143 -0.2506
 1075TIP3    H124640   2.851   2.250   3.909 -1.0223 -0.8597 -0.7082
 1075TIP3    H224641   2.816   2.287   3.767 -0.0156  0.6808 -0.5811
 1076TIP3   OH224642   5.763   6.712   3.330  0.0772  0.2475  0.2652
 1076TIP3    H124643   5.827   6.778   3.355  0.5128  0.4619 -1.2836
 1076TIP3    H224644   5.679   6.756   3.339  0.2119  0.3215  1.2564
 1077TIP3   OH224645   1.703   0.878   0.435 -0.0852  0.5691 -0.2897
 1077TIP3    H124646   1.679   0.970   0.447  0.5014  0.3969  3.2691
 1077TIP3    H224647   1.783   0.867   0.486 -1.4275 -2.3933  1.4225
 1078TIP3   OH224648   3.796   1.862   5.635 -0.0398 -0.5009  0.0979
 1078TIP3    H124649   3.725   1.911   5.592 -0.0938  0.1250  0.8604
 1078TIP3    H224650   3.753   1.821   5.711  0.5695  0.6166  1.0791
 1079TIP3   OH224651   4.800   1.009   4.044  0.4448 -0.3775 -0.5697
 1079TIP3    H124652   4.742   1.078   4.075  2.8354  1.9169 -0.8513
 1079TIP3    H224653   4.834   0.968   4.123  0.8076  0.4025 -0.3125
 1080TIP3   OH224654   1.171   0.583  11.888 -0.3387  0.3769  0.3776
 1080TIP3    H124655   1.193   0.676  11.889 -0.7724  0.4820  0.1340
 1080TIP3    H224656   1.114   0.570  11.963 -1.1562  0.5274 -0.2058
 1081TIP3   OH224657   5.486   0.439  15.430  0.6766 -0.5052 -0.6753
 1081TIP3    H124658   5.393   0.434  15.410  0.8377 -0.5356 -1.4920
 1081TIP3    H224659   5.493   0.500  15.503  0.3056  2.2465 -2.7991
 1082TIP3   OH224660   4.671   6.741   1.801 -0.3562 -0.3683  0.0087
 1082TIP3    H124661   4.759   6.775   1.783  0.6027 -1.5386  2.0924
 1082TIP3    H224662   4.613   6.801   1.755  1.4699  1.1614 -0.4760
 1083TIP3   OH224663   0.357   4.533  14.155  0.5862 -0.0720 -0.1748
 1083TIP3    H124664   0.423   4.464  14.153  1.1095  0.3564  1.1079
 1083TIP3    H224665   0.391   4.602  14.098  0.2498 -0.6898 -1.1425
 1084TIP3   OH224666   4.351   0.475  17.024 -0.1237  0.1503  0.4236
 1084TIP3    H124667   4.336   0.565  16.993  0.8035  0.0911 -0.2408
 1084TIP3    H224668   4.372   0.485  17.116  2.7120  0.9390 -0.2186
 1085TIP3   OH224669   5.223   6.731   3.869 -0.5237  0.2353 -0.1092
 1085TIP3    H124670   5.248   6.823   3.868 -1.9045  0.6384  0.4350
 1085TIP3    H224671   5.265   6.696   3.947  1.9122 -0.2164 -1.4972
 1086TIP3   OH224672   4.302   5.104   5.645 -0.0643 -0.5676  0.4163
 1086TIP3    H124673   4.351   5.153   5.710 -1.0852  0.6547  0.3090
 1086TIP3    H224674   4.354   5.110   5.565  0.9335 -1.6270  0.9634
 1087TIP3   OH224675   2.069   3.411   4.318 -0.1121 -0.3769 -0.4812
 1087TIP3    H124676   2.093   3.390   4.408 -2.0367  2.4953  0.8374
 1087TIP3    H224677   2.039   3.502   4.321 -2.5188 -0.8862 -3.5496
 1088TIP3   OH224678   4.281   0.091  11.277  0.1695 -0.7933  0.1904
 1088TIP3    H124679   4.261   0.014  11.330  1.1284 -3.1663 -2.6151
 1088TIP3    H224680   4.363   0.069  11.234  0.5016  1.8795 -0.7305
 1089TIP3   OH224681   3.188   0.296   2.583 -0.1844  0.0071  0.0617
 1089TIP3    H124682   3.104   0.256   2.605  0.1782  0.7124  3.2569
 1089TIP3    H224683   3.165   0.387   2.560 -0.5966 -0.8059 -3.3515
 1090TIP3   OH224684   6.392   1.025   2.459 -0.1327 -0.0109 -0.5396
 1090TIP3    H124685   6.297   1.020   2.474 -0.0826  1.3449  0.4164
 1090TIP3    H224686   6.423   1.086   2.526  1.0677  1.4740 -2.3588
 1091TIP3   OH224687   0.564   0.454   5.568 -0.4026 -0.2514  0.3250
 1091TIP3    H124688   0.628   0.427   5.502 -1.3303  0.2445 -0.8050
 1091TIP3    H224689   0.548   0.374   5.620  1.2172 -0.3459  0.7305
 1092TIP3   OH224690   6.546   2.695   0.520 -0.5015 -0.0846 -0.4046
 1092TIP3    H124691   6.538   2.753   0.595 -1.6019 -2.1910  1.2143
 1092TIP3    H224692   6.600   2.622   0.551  0.7406 -0.0419 -2.3228
 1093TIP3   OH224693   5.693   0.507  14.104 -0.5469  0.3133  0.0576
 1093TIP3    H124694   5.765   0.476  14.049 -1.6430 -0.6061 -0.9239
 1093TIP3    H224695   5.725   0.588  14.143  1.8548 -1.1952  1.4682
 1094TIP3   OH224696   6.141   0.289  11.206  0.0912  0.1752  0.4285
 1094TIP3    H124697   6.077   0.356  11.231 -0.0628 -0.0236  0.5697
 1094TIP3    H224698   6.157   0.305  11.113  0.7487  0.9845  0.6703
 1095TIP3   OH224699   4.399   5.256   3.645  0.6922  0.7397  0.9175
 1095TIP3    H124700   4.456   5.179   3.640  1.1309  1.0252  1.3002
 1095TIP3    H224701   4.372   5.272   3.555 -0.5901 -0.7139  1.0029
 1096TIP3   OH224702   1.814   3.302  13.983  0.3752 -0.2122  0.4869
 1096TIP3    H124703   1.770   3.301  14.067 -0.9021 -0.6443 -0.1573
 1096TIP3    H224704   1.803   3.392  13.951 -1.0359 -0.5993 -0.1602
 1097TIP3   OH224705   5.355   0.969   3.484 -0.2253  0.7462 -0.0022
 1097TIP3    H124706   5.385   1.006   3.401 -1.2658 -0.8398 -1.1371
 1097TIP3    H224707   5.424   0.907   3.508 -0.4248  0.4200 -0.2571
 1098TIP3   OH224708   2.311   6.723   5.126  0.1025 -0.3626  0.0376
 1098TIP3    H124709   2.278   6.778   5.197  0.3487  0.7195 -0.6647
 1098TIP3    H224710   2.244   6.727   5.059 -0.0872 -1.3074  0.1672
 1099TIP3   OH224711   3.389   1.837   0.570 -0.1114  0.0879 -0.4582
 1099TIP3    H124712   3.387   1.845   0.665  2.6384 -2.0813 -0.0765
 1099TIP3    H224713   3.306   1.794   0.547 -0.5140  0.0398  1.0315
 1100TIP3   OH224714   5.227   0.802  15.443 -0.3902  0.0331  0.1989
 1100TIP3    H124715   5.241   0.825  15.535 -1.4371  1.5875 -0.0032
 1100TIP3    H224716   5.308   0.830  15.399 -0.8200  1.5433  0.2985
 1101TIP3   OH224717   5.745   2.152   0.376 -0.1214 -0.0445  0.1875
 1101TIP3    H124718   5.764   2.212   0.304 -0.5321 -0.0192  0.1005
 1101TIP3    H224719   5.724   2.208   0.450 -0.3447 -0.0778  0.1502
 1102TIP3   OH224720   0.373   0.790   5.656  0.2716 -0.1082 -0.2507
 1102TIP3    H124721   0.298   0.757   5.706  0.6539 -0.4143  0.1315
 1102TIP3    H224722   0.446   0.733   5.682  0.9301  0.9811  0.3583
 1103TIP3   OH224723   2.215   0.920  11.445 -0.4282  0.5451  0.3268
 1103TIP3    H124724   2.262   0.869  11.379 -2.6828 -1.9526  0.4673
 1103TIP3    H224725   2.137   0.953  11.399 -1.0947  0.3233  1.2578
 1104TIP3   OH224726   5.349   3.443  11.865  0.4396  0.0567 -0.3712
 1104TIP3    H124727   5.264   3.485  11.858  1.3055  2.0837  0.4005
 1104TIP3    H224728   5.389   3.457  11.779  0.0586 -0.7816 -0.6916
 1105TIP3   OH224729   6.022   2.101  12.723 -0.2436  0.6058  0.0240
 1105TIP3    H124730   6.014   2.148  12.806 -1.0457  1.3521 -0.4555
 1105TIP3    H224731   6.107   2.059  12.728  1.3091  3.4336 -0.1738
 1106TIP3   OH224732   5.672   6.537   0.203  0.0484 -0.1306 -0.1814
 1106TIP3    H124733   5.767   6.536   0.196  0.2925  0.4515  2.1953
 1106TIP3    H224734   5.652   6.615   0.255 -2.0445  1.6917 -3.3342
 1107TIP3   OH224735   4.600   0.605  12.283 -0.0396 -0.0416  0.7760
 1107TIP3    H124736   4.666   0.597  12.215 -0.5349 -0.1236  0.2974
 1107TIP3    H224737   4.622   0.687  12.329  1.3930 -0.9164  1.7270
 1108TIP3   OH224738   5.497   5.398   4.382  0.3238 -0.3585  0.1915
 1108TIP3    H124739   5.414   5.372   4.422 -0.3501  0.3585 -0.6866
 1108TIP3    H224740   5.558   5.405   4.455 -0.4838 -0.5497  0.8979
 1109TIP3   OH224741   5.420   2.162   3.852 -0.2432  0.2828 -0.9449
 1109TIP3    H124742   5.463   2.243   3.825  0.7679  0.2631  0.5493
 1109TIP3    H224743   5.403   2.116   3.770  0.8826  1.1409 -1.6864
 1110TIP3   OH224744   5.393   2.087   2.378  0.2020 -0.4346 -0.1319
 1110TIP3    H124745   5.449   2.145   2.430  0.0472 -1.3277  1.0651
 1110TIP3    H224746   5.439   2.080   2.294  1.2146 -0.0949  0.3678
 1111TIP3   OH224747   6.184   5.417   4.448  0.0795 -0.1744  0.8178
 1111TIP3    H124748   6.089   5.428   4.459  0.3084 -0.6217  5.0555
 1111TIP3    H224749   6.217   5.406   4.537  3.4344 -5.9558 -0.5925
 1112TIP3   OH224750   2.682   3.342   6.262 -0.5277  0.3018 -0.7407
 1112TIP3    H124751   2.669   3.325   6.355  1.4278 -0.3667 -0.5484
 1112TIP3    H224752   2.673   3.256   6.220 -0.6565  0.4739 -1.0688
 1113TIP3   OH224753   3.184   2.844  17.157  0.1260  0.7237 -0.3084
 1113TIP3    H124754   3.136   2.797  17.226  0.6048 -0.4271 -0.7312
 1113TIP3    H224755   3.241   2.905  17.204  1.1293 -0.7015  0.3772
 1114TIP3   OH224756   5.753   1.674   5.347  0.3592  0.3062 -0.0344
 1114TIP3    H124757   5.762   1.702   5.439 -0.7083  3.7783 -0.8377
 1114TIP3    H224758   5.827   1.716   5.302  0.4822 -0.8005 -0.8932
 1115TIP3   OH224759   3.587   2.663  16.157  0.2302  0.0096 -0.1480
 1115TIP3    H124760   3.633   2.591  16.201 -0.8734 -0.4053  0.3794
 1115TIP3    H224761   3.523   2.619  16.101  0.8082  0.5616 -1.2697
 1116TIP3   OH224762   6.239   5.371   3.702  0.0225  0.1256 -0.0475
 1116TIP3    H124763   6.231   5.466   3.712  0.1574  0.0231  1.1539
 1116TIP3    H224764   6.208   5.354   3.613  0.3624  1.3373 -0.4222
 1117TIP3   OH224765   5.282   2.969  11.820  0.0780 -0.7094 -0.0122
 1117TIP3    H124766   5.317   3.040  11.873 -1.7958 -1.0700  1.8304
 1117TIP3    H224767   5.212   3.011  11.769 -0.6204 -1.0789  0.6247
 1118TIP3   OH224768   3.569   0.581   3.965 -0.0411  0.1596 -0.1208
 1118TIP3    H124769   3.635   0.519   3.995 -0.9206 -0.0356  1.5348
 1118TIP3    H224770   3.509   0.529   3.911 -1.7767 -0.9691  2.6729
 1119TIP3   OH224771   1.913   4.790   1.451 -0.2293 -0.1906 -0.4291
 1119TIP3    H124772   1.982   4.820   1.511 -0.3492 -0.1789 -0.2964
 1119TIP3    H224773   1.960   4.765   1.371 -0.0918 -0.0011 -0.4080
 1120TIP3   OH224774   4.585   3.183   1.982  0.0374 -0.2487 -0.7798
 1120TIP3    H124775   4.609   3.092   1.966 -2.1389 -0.4507 -3.4461
 1120TIP3    H224776   4.563   3.218   1.896 -3.0717  1.6014  0.6124
 1121TIP3   OH224777   2.221   4.886   2.475 -0.1392  0.5617 -0.3785
 1121TIP3    H124778   2.283   4.825   2.435  0.1270  0.3962  0.2705
 1121TIP3    H224779   2.275   4.962   2.498 -0.2521  0.5755 -0.1635
 1122TIP3   OH224780   4.247   6.675   4.667 -0.7227  0.2885 -0.2151
 1122TIP3    H124781   4.308   6.740   4.702 -1.1331  0.2328  0.6362
 1122TIP3    H224782   4.169   6.725   4.644 -0.9480  0.1431  0.2121
 1123TIP3   OH224783   6.452   3.636   5.226  0.1480  0.1561  0.0825
 1123TIP3    H124784   6.516   3.696   5.189 -0.3979  1.2448  0.8378
 1123TIP3    H224785   6.392   3.616   5.154 -0.3574  1.4950  0.1129
 1124TIP3   OH224786   3.297   4.705   0.678  0.1191  0.1282 -0.2434
 1124TIP3    H124787   3.281   4.721   0.771 -0.6136  1.5502 -0.5887
 1124TIP3    H224788   3.304   4.609   0.671 -1.8950 -0.1712  0.9501
 1125TIP3   OH224789   4.244   4.090  15.808 -0.6751 -0.7278  0.0666
 1125TIP3    H124790   4.316   4.150  15.791 -0.1239 -1.3055  0.3448
 1125TIP3    H224791   4.256   4.019  15.745 -1.1698 -0.6838 -0.0817
 1126TIP3   OH224792   4.273   6.118  13.377  0.4218 -0.2003  0.1778
 1126TIP3    H124793   4.280   6.023  13.368 -0.0007 -0.0789 -2.0046
 1126TIP3    H224794   4.345   6.153  13.324 -2.1279  0.6792 -3.0775
 1127TIP3   OH224795   2.877   5.815   0.630 -0.0985  0.0341 -0.4526
 1127TIP3    H124796   2.945   5.796   0.565 -0.8951 -0.9603 -1.0162
 1127TIP3    H224797   2.926   5.838   0.709  0.9250 -1.4320 -0.6087
 1128TIP3   OH224798   6.745   1.738   2.494 -0.1123 -0.2344  0.6187
 1128TIP3    H124799   6.732   1.662   2.551 -0.1874  0.3436  1.3883
 1128TIP3    H224800   6.834   1.728   2.459 -0.9644 -1.9459 -1.2501
 1129TIP3   OH224801   2.997   0.478  16.697 -0.2925  0.7903 -0.8470
 1129TIP3    H124802   3.031   0.407  16.642 -0.3178  0.5773 -0.5877
 1129TIP3    H224803   2.934   0.524  16.641  0.1829  0.9874 -1.2187
 1130TIP3   OH224804   4.161   0.049   1.517  0.1164  0.5276 -0.1021
 1130TIP3    H124805   4.097   0.020   1.582 -1.0171 -2.0642 -2.1730
 1130TIP3    H224806   4.242   0.003   1.539 -0.1068  0.0900 -0.1996
 1131TIP3   OH224807   6.633   1.357  14.520 -0.5493 -0.2511  0.9592
 1131TIP3    H124808   6.666   1.274  14.553 -0.0529  0.1859  1.5773
 1131TIP3    H224809   6.606   1.338  14.430  0.3200 -0.8961  0.8225
 1132TIP3   OH224810   2.886   1.649   1.491 -0.7546  0.2335 -0.4527
 1132TIP3    H124811   2.875   1.571   1.546 -0.1633 -0.4787 -1.3278
 1132TIP3    H224812   2.906   1.719   1.554 -3.8296  0.3006  0.6251
 1133TIP3   OH224813   3.445   4.726  13.274  0.1942 -0.4400 -0.7635
 1133TIP3    H124814   3.420   4.634  13.258  0.7201 -0.4998 -1.2832
 1133TIP3    H224815   3.520   4.720  13.332 -0.7603 -0.2715  0.5162
 1134TIP3   OH224816   4.309   3.747  16.068  0.3889 -0.3642 -0.1849
 1134TIP3    H124817   4.373   3.722  16.135  0.9845  0.1395 -0.5480
 1134TIP3    H224818   4.362   3.774  15.993 -0.2585 -0.2410 -0.6099
 1135TIP3   OH224819   3.422   1.413  16.891  0.6291 -0.6587 -0.3382
 1135TIP3    H124820   3.435   1.437  16.983  3.0139  1.3145 -1.0603
 1135TIP3    H224821   3.498   1.449  16.847 -1.7704  0.9326 -3.5423
 1136TIP3   OH224822   0.198   6.756   2.344 -0.3056 -0.2785  0.4878
 1136TIP3    H124823   0.204   6.847   2.373 -2.9116  0.3683 -0.6927
 1136TIP3    H224824   0.267   6.710   2.393  0.6212  2.1668  1.6332
 1137TIP3   OH224825   6.651   6.565   0.012 -0.2891 -0.3603  0.3497
 1137TIP3    H124826   6.692   6.542  -0.071 -0.3183  1.6093 -0.2386
 1137TIP3    H224827   6.695   6.645   0.040 -0.4710 -0.8213  2.1248
 1138TIP3   OH224828   0.046   4.830  15.670  0.2885  0.4225  0.5193
 1138TIP3    H124829   0.052   4.754  15.728  0.9011 -2.1738 -2.6594
 1138TIP3    H224830   0.135   4.865  15.665  0.1231  1.0068  1.5309
 1139TIP3   OH224831   6.162   4.966  13.648  0.6307  0.6972  0.2086
 1139TIP3    H124832   6.114   5.030  13.699 -0.6958  0.8631 -1.1794
 1139TIP3    H224833   6.106   4.947  13.573  2.4363  0.3893 -1.1498
 1140TIP3   OH224834   4.261   0.688  16.902  0.2833  0.3495  0.4146
 1140TIP3    H124835   4.209   0.762  16.932  0.1412  0.2175  0.4999
 1140TIP3    H224836   4.347   0.724  16.882 -0.0961  0.7414 -0.5885
 1141TIP3   OH224837   5.274   1.436  13.325 -0.2549  0.0861 -0.3562
 1141TIP3    H124838   5.362   1.443  13.361 -0.2286  0.7786 -0.5415
 1141TIP3    H224839   5.253   1.524  13.295 -1.8488  0.4304  1.5787
 1142TIP3   OH224840   6.787   0.004  11.099 -0.4732 -0.5798 -0.3334
 1142TIP3    H124841   6.720   0.005  11.031 -0.9070  1.2033  0.0439
 1142TIP3    H224842   6.744  -0.037  11.174 -0.4927 -1.1791 -0.6652
 1143TIP3   OH224843   1.826   5.108  14.274 -0.2774  0.1359  0.2873
 1143TIP3    H124844   1.760   5.072  14.333  1.6848 -2.3097  1.1573
 1143TIP3    H224845   1.902   5.125  14.330  0.8535 -0.0124 -1.1493
 1144TIP3   OH224846   1.659   0.117  13.987 -0.6538 -0.3972  0.1780
 1144TIP3    H124847   1.607   0.044  13.954 -0.2224  0.2674 -2.1599
 1144TIP3    H224848   1.743   0.079  14.011 -1.4348 -1.1195  1.9373
 1145TIP3   OH224849   3.629   2.232  13.142 -0.6717 -0.3406 -0.3774
 1145TIP3    H124850   3.666   2.319  13.130  1.1077 -0.9142  0.5664
 1145TIP3    H224851   3.694   2.185  13.194 -1.4929 -2.3080 -1.0179
 1146TIP3   OH224852   6.748   5.740  14.442  0.0904 -0.3046 -0.3709
 1146TIP3    H124853   6.687   5.728  14.514  0.4710 -0.4139 -0.0610
 1146TIP3    H224854   6.734   5.830  14.414  0.8124  0.1597  0.6767
 1147TIP3   OH224855   0.325   1.149   5.142 -0.0235  0.2517  0.2073
 1147TIP3    H124856   0.359   1.150   5.052 -2.6472 -0.2755 -0.8782
 1147TIP3    H224857   0.319   1.241   5.166 -0.6755  0.4736 -0.7413
 1148TIP3   OH224858   6.416   4.779  14.034  0.2452  0.0065 -0.0578
 1148TIP3    H124859   6.413   4.874  14.038  0.8317  0.0525 -0.4738
 1148TIP3    H224860   6.339   4.754  13.983  0.7975  0.3547 -1.0997
 1149TIP3   OH224861   4.717   4.112   3.935  0.0605  0.0801  0.0634
 1149TIP3    H124862   4.808   4.140   3.930 -0.2667  1.1387 -0.3865
 1149TIP3    H224863   4.708   4.048   3.865 -0.0386  1.5455 -1.3245
 1150TIP3   OH224864   0.773   5.262  16.700  0.5693  0.0370  0.5469
 1150TIP3    H124865   0.681   5.246  16.719  0.1596  0.2094 -1.1358
 1150TIP3    H224866   0.804   5.179  16.663  1.2153 -0.1639  1.5178
 1151TIP3   OH224867   2.317   1.556   4.914 -0.4887  0.1044 -0.1975
 1151TIP3    H124868   2.371   1.520   4.985 -0.1152  1.1513  0.0685
 1151TIP3    H224869   2.227   1.541   4.943 -0.3894 -2.1838 -0.9167
 1152TIP3   OH224870   2.909   5.587  13.877  0.3572  0.4251  0.2561
 1152TIP3    H124871   2.818   5.605  13.902  0.3153 -0.0321  0.4334
 1152TIP3    H224872   2.947   5.673  13.861  0.0505  0.6509  0.7337
 1153TIP3   OH224873   5.244   3.395   5.426 -0.1318 -0.3460 -0.3799
 1153TIP3    H124874   5.216   3.307   5.452 -0.9515  0.6732  2.5199
 1153TIP3    H224875   5.333   3.403   5.461 -0.9447  0.7534  1.6140
 1154TIP3   OH224876   4.466   1.283  11.895 -0.5704 -0.1282 -0.6172
 1154TIP3    H124877   4.532   1.273  11.964 -2.2383  0.6292  1.1861
 1154TIP3    H224878   4.506   1.245  11.817  1.0708 -1.8482  0.9747
 1155TIP3   OH224879   6.035   0.479   2.997  0.1839 -0.3627 -0.2741
 1155TIP3    H124880   5.942   0.467   3.017  0.2547  0.0092  0.3142
 1155TIP3    H224881   6.081   0.447   3.075  0.6608 -2.3884 -1.3162
 1156TIP3   OH224882   3.583   5.946   3.136 -0.2644 -0.6209  0.7287
 1156TIP3    H124883   3.599   6.005   3.210  0.7844  0.0021  0.0364
 1156TIP3    H224884   3.497   5.909   3.153 -0.6568  0.5870  1.5452
 1157TIP3   OH224885   2.242   6.210   1.410  0.4008 -0.2701  0.0171
 1157TIP3    H124886   2.151   6.183   1.414  1.2864 -3.8815 -0.4852
 1157TIP3    H224887   2.252   6.248   1.323 -0.4082 -0.9478 -0.3903
 1158TIP3   OH224888   5.064   1.224   0.344  0.3620  1.0067 -0.1720
 1158TIP3    H124889   5.094   1.264   0.263  0.5835 -0.0132 -0.5959
 1158TIP3    H224890   5.142   1.183   0.382  0.2658  1.4828  0.5733
 1159TIP3   OH224891   0.048   6.351  15.780 -0.5002 -0.2110 -0.3334
 1159TIP3    H124892   0.038   6.436  15.736 -0.5904  0.1894  0.4450
 1159TIP3    H224893   0.037   6.286  15.710 -0.7909  0.4102 -0.8718
 1160TIP3   OH224894   5.747   4.801  16.764 -0.5594 -0.1194 -0.0436
 1160TIP3    H124895   5.739   4.726  16.705 -0.0025 -0.2567  0.0501
 1160TIP3    H224896   5.672   4.857  16.743  0.6251  0.7621 -2.2119
 1161TIP3   OH224897   0.296   2.324  15.271  0.3435 -0.5070  0.4114
 1161TIP3    H124898   0.238   2.341  15.345  0.5512  0.0130  0.4596
 1161TIP3    H224899   0.245   2.348  15.194  1.0746  1.7074  0.5380
 1162TIP3   OH224900   1.053   1.870   2.085 -0.1813  0.0757  0.0504
 1162TIP3    H124901   1.024   1.806   2.020 -0.2015  0.5990 -0.4653
 1162TIP3    H224902   0.973   1.920   2.105  0.0644  0.6653 -0.3937
 1163TIP3   OH224903   6.647   6.765   0.327 -0.1210 -0.3140 -0.2805
 1163TIP3    H124904   6.584   6.835   0.312  0.3549  0.5083  1.2949
 1163TIP3    H224905   6.614   6.718   0.403 -0.0842 -1.4299 -0.9233
 1164TIP3   OH224906   5.239   1.678   6.693  0.8213  0.1375 -0.6601
 1164TIP3    H124907   5.269   1.593   6.723 -0.0574  0.1653  0.3819
 1164TIP3    H224908   5.318   1.722   6.661  2.2694  0.7683  3.2281
 1165TIP3   OH224909   2.878   4.213  11.955 -0.3183 -0.4223  0.5428
 1165TIP3    H124910   2.827   4.288  11.925  0.0330 -0.1084  0.7334
 1165TIP3    H224911   2.821   4.137  11.937 -0.3081 -0.2060 -0.4955
 1166TIP3   OH224912   1.534   4.777   1.530 -0.2388  0.4564  0.1391
 1166TIP3    H124913   1.556   4.774   1.623  1.7486  0.0360 -0.3006
 1166TIP3    H224914   1.486   4.859   1.520  0.3846  1.0058  1.3627
 1167TIP3   OH224915   1.928   5.320  15.718  0.3885 -0.2770  0.0166
 1167TIP3    H124916   1.995   5.279  15.664 -0.5161 -3.6927  1.2318
 1167TIP3    H224917   1.946   5.289  15.806 -1.3423  0.7362  0.7835
 1168TIP3   OH224918   4.700   2.758   0.140  0.2624 -0.5887 -0.6180
 1168TIP3    H124919   4.686   2.832   0.081 -0.8897 -0.6295 -0.4242
 1168TIP3    H224920   4.749   2.794   0.214 -0.5374  0.0616 -0.3904
 1169TIP3   OH224921   5.743   2.805   3.627 -0.1728 -0.0004  0.4756
 1169TIP3    H124922   5.808   2.865   3.592 -1.1868  0.7847 -0.0990
 1169TIP3    H224923   5.669   2.860   3.649 -1.3296 -1.0867 -0.5560
 1170TIP3   OH224924   0.776   6.026   3.177 -0.6181 -0.6966  0.7758
 1170TIP3    H124925   0.726   6.056   3.102  1.7723 -0.7754 -0.9691
 1170TIP3    H224926   0.839   5.964   3.140 -0.9633 -2.6730  3.2426
 1171TIP3   OH224927   2.800   4.194   2.327 -0.1262 -0.1580 -0.0707
 1171TIP3    H124928   2.832   4.173   2.415 -1.4077 -0.1184  0.4235
 1171TIP3    H224929   2.707   4.171   2.330 -1.3635  4.1477  0.0529
 1172TIP3   OH224930   6.383   5.829  14.210 -0.0792 -0.2525 -0.1765
 1172TIP3    H124931   6.317   5.791  14.267 -0.3135  0.1231 -0.1974
 1172TIP3    H224932   6.461   5.776  14.225  0.6662  1.4050  2.4763
 1173TIP3   OH224933   4.877   0.291   3.214  0.5136 -0.6831 -0.0605
 1173TIP3    H124934   4.935   0.231   3.167  2.2874  1.1529 -0.3957
 1173TIP3    H224935   4.873   0.369   3.159 -0.9472 -0.1252  0.7806
 1174TIP3   OH224936   5.199   1.782  13.515  0.3937 -0.4588  0.3321
 1174TIP3    H124937   5.205   1.702  13.568  0.9972  0.6256  2.0004
 1174TIP3    H224938   5.144   1.841  13.566 -0.5582 -0.0004 -1.1707
 1175TIP3   OH224939   2.844   5.629   0.901  0.0735 -0.4268 -1.0504
 1175TIP3    H124940   2.911   5.624   0.969 -2.7837 -0.0739  2.1098
 1175TIP3    H224941   2.780   5.563   0.926 -1.9340  0.8713 -2.4228
 1176TIP3   OH224942   4.726   4.379  10.714  0.0978 -0.0337  0.2122
 1176TIP3    H124943   4.793   4.447  10.712 -0.9123  1.1535  2.6972
 1176TIP3    H224944   4.654   4.416  10.662  0.4680 -0.3149 -0.5184
 1177TIP3   OH224945   0.474   0.183   4.244  0.4804  0.6135  0.2633
 1177TIP3    H124946   0.439   0.256   4.296 -0.8043  0.7387 -0.7364
 1177TIP3    H224947   0.398   0.127   4.227  0.8913  0.5244 -1.3915
 1178TIP3   OH224948   0.553   1.688  12.157 -0.0722  0.1102  0.4196
 1178TIP3    H124949   0.475   1.642  12.125 -0.4343  0.7466  0.3658
 1178TIP3    H224950   0.624   1.657  12.099 -0.0268 -1.3715  1.2203
 1179TIP3   OH224951   5.157   0.799   0.668 -0.2457  0.2359  0.2435
 1179TIP3    H124952   5.091   0.864   0.689  0.3373  1.4126 -1.3535
 1179TIP3    H224953   5.238   0.833   0.706 -0.4104 -0.9912  1.8284
 1180TIP3   OH224954   3.031   0.578   5.287  0.5309  0.2934 -0.6721
 1180TIP3    H124955   3.106   0.632   5.314 -0.8247  2.4328 -0.9325
 1180TIP3    H224956   3.069   0.493   5.267  2.5614  0.5625  1.4847
 1181TIP3   OH224957   1.111   2.546   2.619  0.6469  0.3464 -0.1742
 1181TIP3    H124958   1.050   2.609   2.582  1.3450  0.7757 -0.6081
 1181TIP3    H224959   1.188   2.598   2.644  1.3546 -0.3516 -0.8132
 1182TIP3   OH224960   4.764   2.867  12.184  0.4004  0.3687  0.0665
 1182TIP3    H124961   4.787   2.858  12.092 -2.1727  0.5873 -0.6965
 1182TIP3    H224962   4.717   2.786  12.205 -2.0570  1.7129  0.1028
 1183TIP3   OH224963   4.274   5.974  14.574 -0.1034  0.0798 -0.0137
 1183TIP3    H124964   4.212   5.998  14.505 -0.3532  0.6413  0.3976
 1183TIP3    H224965   4.346   6.037  14.563 -0.1674  0.2020  0.2691
 1184TIP3   OH224966   3.826   3.282  14.832  0.0754 -0.0790  0.2662
 1184TIP3    H124967   3.772   3.360  14.821  0.9288  0.4025 -0.6612
 1184TIP3    H224968   3.904   3.298  14.778  0.9179 -0.9675  1.1566
 1185TIP3   OH224969   0.782   2.211   2.875  0.1273 -0.0916 -0.2518
 1185TIP3    H124970   0.753   2.234   2.963  0.2279 -1.8076  0.2675
 1185TIP3    H224971   0.829   2.289   2.844 -0.4971  0.7884  0.9226
 1186TIP3   OH224972   4.056   5.223   1.836  0.8993  0.6978 -0.2873
 1186TIP3    H124973   4.069   5.243   1.743  1.3208 -0.6602 -0.5473
 1186TIP3    H224974   4.003   5.143   1.836  0.1288  1.1924  0.6653
 1187TIP3   OH224975   5.258   0.938  16.895  0.5303 -0.0734  0.3204
 1187TIP3    H124976   5.342   0.983  16.906  1.0190 -0.7915 -0.3612
 1187TIP3    H224977   5.215   0.985  16.824  0.0569  0.7058  1.1072
 1188TIP3   OH224978   3.268   2.036  12.425 -0.2665 -0.9231  0.2127
 1188TIP3    H124979   3.251   2.123  12.389  0.7286 -0.8025  0.0178
 1188TIP3    H224980   3.345   2.048  12.481  0.6621 -1.9249 -0.8097
 1189TIP3   OH224981   0.175   6.718   1.610  0.0767 -0.5586  0.4460
 1189TIP3    H124982   0.246   6.706   1.673  0.7738  0.1158 -0.1791
 1189TIP3    H224983   0.216   6.766   1.537 -0.4811 -2.0913 -0.9262
 1190TIP3   OH224984   3.621   4.341   1.951  0.0398  0.3923 -0.0908
 1190TIP3    H124985   3.553   4.380   1.896 -0.1603  1.4512  0.8564
 1190TIP3    H224986   3.616   4.391   2.033  0.5523 -0.9054  0.7563
 1191TIP3   OH224987   3.500   0.019  14.752  0.4516  0.5377  0.0154
 1191TIP3    H124988   3.555   0.068  14.692  2.8252 -0.4832  1.2118
 1191TIP3    H224989   3.558  -0.048  14.789 -1.9873 -1.6087  0.2721
 1192TIP3   OH224990   2.960   6.445  16.905  0.0448  0.2776  0.1763
 1192TIP3    H124991   2.971   6.459  16.999 -0.5537  0.9399  0.1565
 1192TIP3    H224992   3.044   6.408  16.877 -0.1606 -1.0140  1.1660
 1193TIP3   OH224993   0.021   3.102  14.365  0.0010 -0.7731  0.5677
 1193TIP3    H124994   0.089   3.035  14.367  0.9796 -0.0581 -2.8546
 1193TIP3    H224995  -0.061   3.054  14.354  0.4523 -1.4638  0.2114
 1194TIP3   OH224996   1.247   2.557   4.120 -0.3926 -0.2883  0.1994
 1194TIP3    H124997   1.214   2.540   4.032  0.1907 -0.9139  0.0937
 1194TIP3    H224998   1.338   2.583   4.107 -0.4603  0.1537  0.5814
 1195TIP3   OH224999   5.629   4.246   2.141 -0.4298 -0.5533 -0.0204
 1195TIP3    H125000   5.623   4.194   2.061 -0.5087 -0.8440  0.1744
 1195TIP3    H225001   5.699   4.205   2.192 -0.9282 -0.8643  0.4213
 1196TIP3   OH225002   2.039   5.607  15.721 -0.2295 -0.2111 -0.5576
 1196TIP3    H125003   2.012   5.676  15.782 -0.3224  0.3056 -1.1753
 1196TIP3    H225004   2.091   5.546  15.775 -1.7440 -0.6819  0.4209
 1197TIP3   OH225005   0.488   6.142  14.668  0.1076  0.0405  0.0720
 1197TIP3    H125006   0.412   6.122  14.722 -0.6857  0.6701 -0.7886
 1197TIP3    H225007   0.562   6.103  14.715 -0.5697  0.4437  1.5343
 1198TIP3   OH225008   0.991   6.521  12.938  0.2885  0.5334  0.1953
 1198TIP3    H125009   0.951   6.505  12.852  2.2005  0.7255 -0.7821
 1198TIP3    H225010   0.916   6.538  12.996 -1.1593 -1.1034 -1.0686
 1199TIP3   OH225011   2.595   2.324  11.189  0.1856 -0.0753  0.4195
 1199TIP3    H125012   2.619   2.382  11.116  0.9624  1.3075  1.7029
 1199TIP3    H225013   2.565   2.244  11.147  4.1464 -0.8179 -1.4716
 1200TIP3   OH225014   2.426   2.956   5.816  0.4747  0.3073 -0.1715
 1200TIP3    H125015   2.477   3.027   5.856  0.4466 -0.6817  1.7626
 1200TIP3    H225016   2.474   2.877   5.837 -0.5904 -0.4327 -0.4381
 1201TIP3   OH225017   5.417   3.746  13.339  0.0070  0.2230  0.3399
 1201TIP3    H125018   5.398   3.694  13.261  1.2165 -0.8604  0.7367
 1201TIP3    H225019   5.494   3.798  13.315  0.6742 -0.4688  0.9508
 1202TIP3   OH225020   2.683   0.027  11.058  0.5265  0.1950 -0.0109
 1202TIP3    H125021   2.672  -0.055  11.011  3.3670  0.4352 -1.3197
 1202TIP3    H225022   2.698   0.092  10.989  0.1174  1.4808  1.0764
 1203TIP3   OH225023   1.889   2.753  14.528 -0.4539  0.0204  0.2493
 1203TIP3    H125024   1.887   2.702  14.447 -1.5754  0.6848 -0.1563
 1203TIP3    H225025   1.980   2.747  14.557 -0.5213 -2.1039  0.1586
 1204TIP3   OH225026   5.563   3.570   0.727 -0.5026  0.2608 -0.2903
 1204TIP3    H125027   5.555   3.484   0.768  0.5115  0.6975  0.8866
 1204TIP3    H225028   5.610   3.623   0.791  1.4939  0.8883 -2.1521
 1205TIP3   OH225029   0.657   0.163  14.278  0.1278 -0.3770  0.1087
 1205TIP3    H125030   0.628   0.203  14.197  0.4901  0.6222  0.4599
 1205TIP3    H225031   0.654   0.069  14.260 -1.2721 -0.2439 -0.5465
 1206TIP3   OH225032   1.202   1.472   3.720 -0.2718  0.3655 -0.0559
 1206TIP3    H125033   1.107   1.486   3.723 -0.7132 -1.2088 -2.9499
 1206TIP3    H225034   1.212   1.378   3.734  0.8647  0.5008  0.0658
 1207TIP3   OH225035   5.769   6.512  15.288 -0.2655  0.4050  0.1896
 1207TIP3    H125036   5.862   6.515  15.309 -0.1519  1.4934 -0.4186
 1207TIP3    H225037   5.763   6.447  15.217 -0.0898 -0.2171  0.7317
 1208TIP3   OH225038   2.260   1.880   3.997  1.0263  0.4248  0.0701
 1208TIP3    H125039   2.292   1.840   3.916  1.0068  1.1366 -0.2973
 1208TIP3    H225040   2.250   1.972   3.976 -0.9209  0.3010  0.2745
 1209TIP3   OH225041   6.034   2.481   1.515 -0.2275  0.4639  0.0201
 1209TIP3    H125042   5.952   2.492   1.563 -1.0998 -0.1966 -1.2861
 1209TIP3    H225043   6.082   2.415   1.566 -0.4216  0.9443  0.8584
 1210TIP3   OH225044   1.101   6.505  15.629  0.0037 -0.4176 -0.2760
 1210TIP3    H125045   1.160   6.434  15.605 -0.1571 -0.6449 -0.0030
 1210TIP3    H225046   1.045   6.468  15.697  1.1484  0.5445  1.2385
 1211TIP3   OH225047   4.674   1.890   0.608 -0.2169  0.3728  0.2861
 1211TIP3    H125048   4.707   1.843   0.684 -1.3564 -0.0792  0.5227
 1211TIP3    H225049   4.743   1.952   0.586  0.7025 -0.4349  0.8405
 1212TIP3   OH225050   0.871   1.454   1.045 -0.5200  0.0078 -0.1078
 1212TIP3    H125051   0.909   1.482   1.128  0.6158 -0.5237 -0.4387
 1212TIP3    H225052   0.847   1.362   1.060  0.1378 -0.2374 -0.5079
 1213TIP3   OH225053   0.875   0.960  15.636  0.0443 -0.1416 -0.1708
 1213TIP3    H125054   0.867   0.886  15.696  0.7178  0.2602  0.4142
 1213TIP3    H225055   0.873   0.920  15.549  0.6855 -0.8847  0.1455
 1214TIP3   OH225056   0.041   4.469  12.327 -0.7135 -0.7497 -0.4142
 1214TIP3    H125057   0.083   4.429  12.403 -0.8454  0.1571  0.1544
 1214TIP3    H225058   0.075   4.420  12.252 -0.8787 -1.9084  0.2492
 1215TIP3   OH225059   4.189   6.486   0.826  0.5065  0.0934 -0.6847
 1215TIP3    H125060   4.273   6.504   0.784  1.0248 -0.2601  0.1829
 1215TIP3    H225061   4.200   6.518   0.916 -0.7157  1.1966 -0.8997
 1216TIP3   OH225062   0.763   3.389   0.891 -0.3143  0.0071 -0.2923
 1216TIP3    H125063   0.680   3.359   0.853 -0.6539 -1.5504  1.4981
 1216TIP3    H225064   0.816   3.309   0.896 -0.2602  0.1395  2.2675
 1217TIP3   OH225065   2.805   3.004  14.785  0.0882 -0.3240  0.4218
 1217TIP3    H125066   2.864   3.061  14.735  1.8582 -1.6126  0.9478
 1217TIP3    H225067   2.822   3.028  14.876 -0.8155 -0.1618  0.5520
 1218TIP3   OH225068   0.573   3.961   3.914  0.4164  0.1053  0.1214
 1218TIP3    H125069   0.603   4.036   3.966  1.0551 -0.0279 -0.0391
 1218TIP3    H225070   0.524   4.001   3.842 -1.3810  0.2386  1.3734
 1219TIP3   OH225071   5.513   5.675  14.217  0.2732  0.5412  0.3187
 1219TIP3    H125072   5.556   5.714  14.142 -0.5427 -1.1115 -1.0841
 1219TIP3    H225073   5.482   5.590  14.186 -0.3949 -0.0682  2.4302
 1220TIP3   OH225074   1.523   2.759  14.958 -0.0885 -0.2179 -0.1482
 1220TIP3    H125075   1.608   2.718  14.947 -0.0339  0.6454 -4.1794
 1220TIP3    H225076   1.541   2.841  15.005  1.6896  0.7979 -2.4365
 1221TIP3   OH225077   5.161   5.175   4.069  0.1267  0.1965  0.0334
 1221TIP3    H125078   5.096   5.115   4.105  0.5992 -1.0908 -1.1701
 1221TIP3    H225079   5.127   5.262   4.091 -1.2193 -0.4652  0.7372
 1222TIP3   OH225080   6.499   4.142   0.233  0.1479  0.3947  0.0351
 1222TIP3    H125081   6.502   4.238   0.238 -0.9796  0.3857  1.4459
 1222TIP3    H225082   6.546   4.113   0.311  0.5875 -0.2296 -0.4461
 1223TIP3   OH225083   6.652   3.473  10.956  0.1012 -0.1559 -0.2588
 1223TIP3    H125084   6.575   3.421  10.977 -0.9052  0.7805 -1.4622
 1223TIP3    H225085   6.677   3.446  10.868 -0.5792  1.4908 -1.0040
 1224TIP3   OH225086   0.727   1.740  16.049 -0.0156  0.1561 -0.0851
 1224TIP3    H125087   0.760   1.651  16.060 -3.0890 -0.9511  1.3819
 1224TIP3    H225088   0.660   1.733  15.980  0.1013  1.4919 -0.3771
 1225TIP3   OH225089   6.296   3.790  11.703 -0.8465  0.3513  0.5055
 1225TIP3    H125090   6.285   3.813  11.611  1.5381  1.0537  0.3373
 1225TIP3    H225091   6.381   3.747  11.708 -1.8995 -1.7556  2.0694
 1226TIP3   OH225092   3.235   4.180   4.287 -0.0917  0.3844  0.6231
 1226TIP3    H125093   3.213   4.210   4.375  0.4123 -0.6906  1.1289
 1226TIP3    H225094   3.265   4.259   4.241  1.7098  0.5880  2.0691
 1227TIP3   OH225095   2.686   1.943  16.782  0.0562 -0.1267 -0.5135
 1227TIP3    H125096   2.781   1.945  16.788  0.1790 -2.8927 -0.2190
 1227TIP3    H225097   2.662   2.028  16.746  2.3408  1.9239  2.4163
 1228TIP3   OH225098   0.283   4.084  15.300  0.6670  0.3507  0.1111
 1228TIP3    H125099   0.218   4.109  15.366  2.3982  1.4379  1.5057
 1228TIP3    H225100   0.261   4.137  15.223 -1.8485 -1.4891 -0.5779
 1229TIP3   OH225101   1.236   5.964  11.403  0.2881  0.2457  0.2230
 1229TIP3    H125102   1.303   5.904  11.370  2.7931  1.5790  2.5227
 1229TIP3    H225103   1.231   6.033  11.338  1.0374  0.0329 -0.0731
 1230TIP3   OH225104   3.003   4.953  11.777 -0.0417 -0.3211  0.2438
 1230TIP3    H125105   2.927   5.011  11.773  0.4747  0.3633  0.2614
 1230TIP3    H225106   2.979   4.878  11.723 -0.9742 -0.4032  0.7468
 1231TIP3   OH225107   1.627   2.041  14.861 -0.2616  0.1309  0.0284
 1231TIP3    H125108   1.537   2.010  14.853  0.0736 -1.1363  0.8221
 1231TIP3    H225109   1.676   1.965  14.895  1.0057  0.9376  0.0859
 1232TIP3   OH225110   2.905   0.237  11.116  0.2211 -0.1177  0.1579
 1232TIP3    H125111   2.822   0.238  11.068  0.0964  0.6956  0.3623
 1232TIP3    H225112   2.945   0.322  11.096  1.3333 -0.7738 -0.4771
 1233TIP3   OH225113   3.849   0.130  14.055 -0.3452  0.3441 -0.0399
 1233TIP3    H125114   3.781   0.154  14.118  0.2523 -0.5071  0.9546
 1233TIP3    H225115   3.885   0.214  14.026  0.3915  0.7333  1.9041
 1234TIP3   OH225116   3.892   0.164   3.650  0.1245  0.2588  0.4027
 1234TIP3    H125117   3.976   0.205   3.670  1.1684 -1.5178 -0.1209
 1234TIP3    H225118   3.898   0.144   3.556 -1.1158  0.5828  0.2405
 1235TIP3   OH225119   5.701   6.547   3.676 -0.0615  0.0108 -0.2418
 1235TIP3    H125120   5.615   6.587   3.675  0.4992  1.2696 -0.0538
 1235TIP3    H225121   5.690   6.465   3.628 -0.9224  1.0824 -1.9568
 1236TIP3   OH225122   2.814   3.614   4.221 -0.1740  0.2860 -0.2801
 1236TIP3    H125123   2.730   3.576   4.198 -1.0442  2.8812 -1.7553
 1236TIP3    H225124   2.805   3.707   4.201  2.5342  0.9295  1.0211
 1237TIP3   OH225125   1.527   5.631   5.312 -0.1717 -0.1954  0.2055
 1237TIP3    H125126   1.574   5.551   5.290 -0.5002  0.0395 -1.4705
 1237TIP3    H225127   1.442   5.621   5.270  0.3831  1.7267 -1.5495
 1238TIP3   OH225128   6.224   1.569  11.156 -0.6741  0.0615 -0.5277
 1238TIP3    H125129   6.317   1.546  11.165 -0.7788 -0.3340 -0.4636
 1238TIP3    H225130   6.222   1.629  11.080 -0.4081 -0.1704 -0.7199
 1239TIP3   OH225131   4.889   5.999   2.892 -0.3233  0.0466 -0.3253
 1239TIP3    H125132   4.979   6.019   2.865 -1.3830  2.2772 -2.6063
 1239TIP3    H225133   4.842   5.984   2.810 -2.9626  3.4218  0.3506
 1240TIP3   OH225134   5.963   3.808  15.777 -1.0680 -0.0007  0.2106
 1240TIP3    H125135   5.991   3.826  15.867 -0.6099  1.0139 -0.1279
 1240TIP3    H225136   5.876   3.848  15.771 -0.5732  1.0518 -0.1634
 1241TIP3   OH225137   5.077   5.995  14.768  0.0369 -0.4095  0.3484
 1241TIP3    H125138   5.046   5.906  14.751  0.0038 -0.1939 -0.8767
 1241TIP3    H225139   5.062   6.041  14.685 -1.1059  1.0862  1.3270
 1242TIP3   OH225140   1.499   4.852  16.990 -0.2491 -0.0560  0.0015
 1242TIP3    H125141   1.523   4.788  17.058 -1.6598  2.1607  2.8196
 1242TIP3    H225142   1.424   4.813  16.946  0.3570 -1.3200  0.0400
 1243TIP3   OH225143   2.617   2.350   2.281 -0.2419  0.2329  0.3903
 1243TIP3    H125144   2.563   2.274   2.255  1.4261 -0.0055 -2.8492
 1243TIP3    H225145   2.612   2.350   2.377 -1.1355 -3.3824  0.5199
 1244TIP3   OH225146   1.535   6.747   5.663 -0.1530  0.0333  0.6951
 1244TIP3    H125147   1.619   6.780   5.632  0.0845 -0.9038  0.3214
 1244TIP3    H225148   1.488   6.825   5.692 -0.3855  0.9668 -1.9776
 1245TIP3   OH225149   3.509   3.582   6.077 -0.1792 -0.4941 -0.0837
 1245TIP3    H125150   3.580   3.577   6.140 -0.1289  3.3687  0.4188
 1245TIP3    H225151   3.553   3.591   5.992 -0.1578 -1.1876 -0.1500
 1246TIP3   OH225152   3.406   0.133   3.700  0.3220  0.2683 -0.0735
 1246TIP3    H125153   3.393   0.150   3.607  0.7821 -1.7917 -0.5699
 1246TIP3    H225154   3.501   0.141   3.713  0.5969 -1.7619 -0.3798
 1247TIP3   OH225155   5.771   1.631   4.377 -0.2637 -0.3246 -0.4275
 1247TIP3    H125156   5.749   1.583   4.457  1.6650  0.0120  0.3519
 1247TIP3    H225157   5.727   1.716   4.387 -0.0171 -0.2755  0.3048
 1248TIP3   OH225158   1.575   6.509   2.433  0.0492 -0.0700  0.5067
 1248TIP3    H125159   1.614   6.508   2.520 -0.0804  0.1744  0.5690
 1248TIP3    H225160   1.582   6.600   2.404  0.2540 -0.1840  0.1867
 1249TIP3   OH225161   0.303   5.393  14.752 -0.0871  0.5515  0.0986
 1249TIP3    H125162   0.209   5.381  14.742  0.0000  0.8371 -1.2617
 1249TIP3    H225163   0.324   5.468  14.697  1.0211  0.1246 -0.0952
 1250TIP3   OH225164   3.909   1.736  12.652 -0.0785  0.2488  0.0643
 1250TIP3    H125165   3.895   1.776  12.566 -2.8343 -1.4364 -0.3814
 1250TIP3    H225166   3.936   1.809  12.708  0.8433  1.5652 -1.9738
 1251TIP3   OH225167   5.689   5.642  10.108 -0.1732  0.6106 -0.5549
 1251TIP3    H125168   5.634   5.720  10.101  0.3144  0.9235 -0.9583
 1251TIP3    H225169   5.774   5.669  10.073  0.2506  0.1448  0.0901
 1252TIP3   OH225170   1.295   3.419  12.445 -0.4163 -0.0460  0.3549
 1252TIP3    H125171   1.206   3.394  12.468 -0.2126 -1.0648  0.1074
 1252TIP3    H225172   1.285   3.475  12.368 -0.8710  0.3439  0.6927
 1253TIP3   OH225173   3.438   6.643  11.375  0.5096  0.0974 -0.4991
 1253TIP3    H125174   3.443   6.582  11.302  0.1882  0.3835 -0.7602
 1253TIP3    H225175   3.347   6.671  11.378  0.7178  0.8181 -0.5955
 1254TIP3   OH225176   4.049   4.455   4.722 -0.0691 -0.3582  0.3460
 1254TIP3    H125177   4.083   4.505   4.648 -1.8764  1.8765  0.8923
 1254TIP3    H225178   4.095   4.492   4.798 -0.3490 -0.5740  0.6220
 1255TIP3   OH225179   0.598   4.930  14.994 -0.2119 -0.3898  0.6443
 1255TIP3    H125180   0.612   4.966  15.081  1.2771  0.0381  0.2597
 1255TIP3    H225181   0.669   4.867  14.982  0.2446  0.3294 -0.6475
 1256TIP3   OH225182   3.020   5.328  13.302 -0.1323 -0.1344  0.2451
 1256TIP3    H125183   2.974   5.262  13.353 -1.4080  0.4523 -0.1166
 1256TIP3    H225184   2.988   5.412  13.336  0.7727  0.2963  0.0696
 1257TIP3   OH225185   4.854   0.841  10.736  0.1616 -0.2336 -1.0128
 1257TIP3    H125186   4.938   0.887  10.730 -0.2367  0.8718  1.1659
 1257TIP3    H225187   4.805   0.872  10.660 -0.0182  2.9322  0.2233
 1258TIP3   OH225188   0.910   3.453  14.141  0.3373  0.0051 -0.3984
 1258TIP3    H125189   0.921   3.373  14.192 -0.7307  1.1675  1.8020
 1258TIP3    H225190   0.826   3.488  14.169  0.9617  2.1325 -0.9745
 1259TIP3   OH225191   0.961   3.210  11.096  0.1131 -0.0512 -0.1179
 1259TIP3    H125192   1.047   3.251  11.088 -0.0958  1.0759  2.4873
 1259TIP3    H225193   0.948   3.200  11.190 -2.7074  0.0644 -0.4160
 1260TIP3   OH225194   3.544   0.528   2.081  0.2561  0.3674  0.3890
 1260TIP3    H125195   3.469   0.557   2.133  0.2451 -1.8292  1.7366
 1260TIP3    H225196   3.561   0.439   2.111  2.7255  0.3881 -0.6697
 1261TIP3   OH225197   1.956   5.818   0.533 -0.2165  0.0529  0.0292
 1261TIP3    H125198   2.010   5.748   0.495  1.3782  1.1415  0.2031
 1261TIP3    H225199   1.871   5.777   0.547  0.2135 -1.4134 -1.3155
 1262TIP3   OH225200   1.722   4.940  16.552  0.0767  0.0318  0.6054
 1262TIP3    H125201   1.750   4.952  16.642 -1.5456  0.2766  1.1069
 1262TIP3    H225202   1.699   4.847  16.546  1.6411 -0.3452 -0.0178
 1263TIP3   OH225203   3.058   5.937   6.275 -0.2062  0.2271 -0.2055
 1263TIP3    H125204   3.004   5.874   6.228  1.8019 -1.6604 -0.1301
 1263TIP3    H225205   2.997   6.008   6.298 -2.2357 -0.9739 -1.5458
 1264TIP3   OH225206   4.885   1.011   0.114 -0.9670 -0.1661 -0.0609
 1264TIP3    H125207   4.892   0.976   0.025 -0.2935  0.0965 -0.1224
 1264TIP3    H225208   4.867   1.105   0.101  2.9154  0.7714 -0.0692
 1265TIP3   OH225209   5.957   1.636  16.713  0.0364 -0.2124 -0.3566
 1265TIP3    H125210   5.988   1.617  16.801  3.8152 -0.9619 -1.6886
 1265TIP3    H225211   5.935   1.550  16.676 -1.1124  0.0568 -0.3516
 1266TIP3   OH225212   4.568   0.945   0.127  0.2735  0.3516 -0.5317
 1266TIP3    H125213   4.645   0.923   0.181  1.0535  1.4860 -1.1377
 1266TIP3    H225214   4.513   0.998   0.184 -0.2693 -0.7757  0.0284
 1267TIP3   OH225215   1.024   3.105   3.808 -0.4244 -0.1182 -0.3447
 1267TIP3    H125216   1.117   3.082   3.814 -0.2371  0.3063 -1.2827
 1267TIP3    H225217   0.980   3.045   3.867  0.3541 -0.9137 -0.5538
 1268TIP3   OH225218   3.431   1.589  15.358  0.0301 -0.2545  0.2612
 1268TIP3    H125219   3.386   1.631  15.285 -0.3421 -0.7061  0.2298
 1268TIP3    H225220   3.434   1.657  15.426  0.7754  0.3141 -0.3199
 1269TIP3   OH225221   4.098   4.338   1.207  0.1533  0.4041  0.0422
 1269TIP3    H125222   4.108   4.267   1.271 -0.6545  0.7328  0.5401
 1269TIP3    H225223   4.188   4.368   1.191  0.5616 -1.0290 -0.5249
 1270TIP3   OH225224   1.553   3.590  12.782 -0.4221  0.5308 -0.6527
 1270TIP3    H125225   1.491   3.662  12.782  0.6097  1.4738 -2.2987
 1270TIP3    H225226   1.563   3.566  12.689  1.4129  0.1985 -0.4068
 1271TIP3   OH225227   4.867   0.931  13.616  0.4371  0.3634  0.0414
 1271TIP3    H125228   4.865   1.005  13.677  0.0209 -0.4591  1.0715
 1271TIP3    H225229   4.783   0.935  13.571 -0.1630 -0.2372  1.0655
 1272TIP3   OH225230   4.429   2.123  13.413  0.0837 -0.6039 -0.2044
 1272TIP3    H125231   4.353   2.178  13.394 -0.2690 -0.6088  1.1531
 1272TIP3    H225232   4.410   2.082  13.497 -0.2914 -3.8999 -1.7512
 1273TIP3   OH225233   1.332   4.053  12.677 -0.0023 -0.2676  0.2507
 1273TIP3    H125234   1.287   4.034  12.759  0.0296 -2.8031 -0.2126
 1273TIP3    H225235   1.417   4.009  12.686 -0.5370 -1.8243 -1.6052
 1274TIP3   OH225236   5.269   1.396   2.958 -0.0252  0.8401 -0.0079
 1274TIP3    H125237   5.187   1.359   2.924 -0.3300  0.2469  1.3046
 1274TIP3    H225238   5.267   1.487   2.931 -0.9884  0.7625 -0.2368
 1275TIP3   OH225239   1.705   5.718   3.826 -0.1774  0.4985 -0.0036
 1275TIP3    H125240   1.736   5.738   3.738  0.4926  0.7623  0.2824
 1275TIP3    H225241   1.780   5.676   3.869 -0.4165  0.5883  0.5134
 1276TIP3   OH225242   5.432   0.387  10.626  0.8461  0.3226 -0.1692
 1276TIP3    H125243   5.464   0.322  10.688 -0.1103 -0.0063  0.0036
 1276TIP3    H225244   5.499   0.455  10.625  0.4681  0.8015  1.9795
 1277TIP3   OH225245   6.610   0.626   1.867  1.0235 -0.3263 -0.0990
 1277TIP3    H125246   6.571   0.617   1.954  2.1662 -0.0078  0.4629
 1277TIP3    H225247   6.648   0.714   1.866 -0.2248  0.2524 -1.4631
 1278TIP3   OH225248   5.862   4.030  14.162 -0.2101  0.1088  0.1122
 1278TIP3    H125249   5.867   4.004  14.254 -2.3715 -0.5783  0.0988
 1278TIP3    H225250   5.882   3.951  14.114  0.6645  0.4044 -0.0187
 1279TIP3   OH225251   2.062   0.524   2.503 -0.0851  0.4166 -0.5174
 1279TIP3    H125252   2.048   0.430   2.508 -0.5827  0.3793 -2.0496
 1279TIP3    H225253   1.988   0.557   2.453  0.0074  1.6580  0.1105
 1280TIP3   OH225254   5.472   2.732   4.207  0.3898  0.3758  0.1428
 1280TIP3    H125255   5.386   2.695   4.186  0.5030  0.4730 -0.5152
 1280TIP3    H225256   5.473   2.817   4.164  0.8486  0.3366  0.0704
 1281TIP3   OH225257   3.017   4.336  16.481  0.4909  0.0472  0.4816
 1281TIP3    H125258   2.987   4.309  16.394  0.1554 -1.5734  1.0640
 1281TIP3    H225259   3.092   4.279  16.499 -0.2215 -0.5272  1.7644
 1282TIP3   OH225260   3.746   6.667   4.595 -0.2818 -0.1465  0.3168
 1282TIP3    H125261   3.834   6.699   4.573 -1.1042  3.3332  1.5820
 1282TIP3    H225262   3.761   6.576   4.622  2.8904  0.2456  0.3202
 1283TIP3   OH225263   1.509   1.810  16.000 -0.1732 -0.2463  0.4360
 1283TIP3    H125264   1.483   1.899  15.974  0.0682 -0.1151  0.6363
 1283TIP3    H225265   1.539   1.820  16.090 -1.1375 -0.7234  0.8159
 1284TIP3   OH225266   0.667   2.491   4.582  0.4594  0.8947 -0.0927
 1284TIP3    H125267   0.759   2.467   4.572 -0.3429 -1.6997 -2.7111
 1284TIP3    H225268   0.656   2.569   4.527  1.2069  1.6623  0.8267
 1285TIP3   OH225269   3.760   4.574  16.377  0.3414 -0.1160  0.3785
 1285TIP3    H125270   3.783   4.516  16.450 -0.8196 -0.5402  0.4295
 1285TIP3    H225271   3.768   4.519  16.299 -2.7859 -1.0822  0.5795
 1286TIP3   OH225272   6.671   2.372  14.902 -0.3427 -0.2227  0.1156
 1286TIP3    H125273   6.674   2.286  14.859  1.0040 -1.1763  1.9789
 1286TIP3    H225274   6.625   2.356  14.984 -0.2122  0.8834  0.4159
 1287TIP3   OH225275   3.105   6.551   4.675  0.1377  0.5963  0.0595
 1287TIP3    H125276   3.143   6.491   4.610  2.2320  1.5945  0.2577
 1287TIP3    H225277   3.074   6.625   4.623 -0.5166  0.2921  0.0034
 1288TIP3   OH225278   5.895   3.547  13.203 -0.0749 -0.3825  0.3181
 1288TIP3    H125279   5.853   3.462  13.189  1.2214 -0.8884 -0.6645
 1288TIP3    H225280   5.945   3.563  13.123 -2.3438  2.5761 -0.6597
 1289TIP3   OH225281   4.634   3.965  14.963 -0.3892 -0.3436  0.1524
 1289TIP3    H125282   4.582   3.998  14.890  0.9335  0.0270 -0.6449
 1289TIP3    H225283   4.594   4.006  15.040 -0.5499  0.8798 -0.5525
 1290TIP3   OH225284   2.556   1.919  13.691  0.1024 -0.1653 -0.1737
 1290TIP3    H125285   2.565   1.954  13.602 -0.3907 -1.0946 -0.6096
 1290TIP3    H225286   2.486   1.972  13.730 -0.2441 -0.2800 -0.6266
 1291TIP3   OH225287   3.288   2.883   6.158 -0.5560  0.0910  0.0898
 1291TIP3    H125288   3.274   2.801   6.206 -1.9090  0.5861  0.5886
 1291TIP3    H225289   3.372   2.915   6.190 -0.2971 -0.8004  0.3408
 1292TIP3   OH225290   2.781   3.689   3.317 -0.5891  0.2235 -0.3898
 1292TIP3    H125291   2.756   3.604   3.281  2.2061 -0.8462 -0.0348
 1292TIP3    H225292   2.789   3.747   3.241  2.0386 -1.1305 -1.2331
 1293TIP3   OH225293   6.547   0.176   0.681  0.3315  0.2077 -0.2041
 1293TIP3    H125294   6.610   0.230   0.632 -0.1997 -0.5463 -1.8073
 1293TIP3    H225295   6.573   0.186   0.772  1.7037  1.2911 -0.6691
 1294TIP3   OH225296   2.822   4.254  12.379 -0.2114 -0.1172 -0.3671
 1294TIP3    H125297   2.730   4.272  12.398 -0.2752 -2.0530  1.4206
 1294TIP3    H225298   2.870   4.317  12.431 -0.4794  1.0446 -1.4718
 1295TIP3   OH225299   3.527   5.231  12.681  0.8710  0.1839  0.3524
 1295TIP3    H125300   3.619   5.219  12.658  0.8005 -0.4818  0.3793
 1295TIP3    H225301   3.480   5.177  12.617  0.4588  0.9519 -0.0128
 1296TIP3   OH225302   3.165   6.163   1.368 -0.2287  0.2006  0.8605
 1296TIP3    H125303   3.139   6.201   1.452 -0.7742  1.9830 -0.0675
 1296TIP3    H225304   3.086   6.164   1.315 -0.0795 -1.6143  0.5119
 1297TIP3   OH225305   2.950   4.741  17.089  0.1686  0.1242 -0.0107
 1297TIP3    H125306   2.854   4.745  17.081  0.1359 -1.5970 -1.0190
 1297TIP3    H225307   2.966   4.736  17.184 -0.7556  0.1415  0.1564
 1298TIP3   OH225308   3.381   1.664   2.693 -0.2107  0.1392 -0.4341
 1298TIP3    H125309   3.372   1.756   2.667  1.3412  0.3101 -0.4538
 1298TIP3    H225310   3.475   1.652   2.706 -0.5712 -0.9213  1.5547
 1299TIP3   OH225311   1.737   2.946  15.521  0.6153  0.1082  0.5363
 1299TIP3    H125312   1.768   3.006  15.453  0.6310 -0.6660 -0.1544
 1299TIP3    H225313   1.809   2.885  15.535 -0.0304 -0.8037 -0.0194
 1300TIP3   OH225314   5.250   4.179  11.029  0.0539  0.2523 -0.4574
 1300TIP3    H125315   5.213   4.202  10.944  1.0030 -0.3110 -1.0359
 1300TIP3    H225316   5.213   4.093  11.049 -2.7792  1.6979  1.2871
 1301TIP3   OH225317   0.652   6.190  15.022  0.0116 -0.1009  0.1675
 1301TIP3    H125318   0.748   6.191  15.023  0.0904 -1.9338 -0.7247
 1301TIP3    H225319   0.630   6.114  14.968 -1.9543  0.9214 -0.5589
 1302TIP3   OH225320   4.591   0.280   1.176 -0.7771  0.3231  0.4470
 1302TIP3    H125321   4.646   0.239   1.109 -1.4655  0.0594  0.0262
 1302TIP3    H225322   4.553   0.356   1.132 -1.1989  0.1747  0.5499
 1303TIP3   OH225323   4.044   4.504   1.913 -0.0577  0.2857 -0.0499
 1303TIP3    H125324   4.033   4.527   2.005 -0.6216  0.4362 -0.1494
 1303TIP3    H225325   4.066   4.587   1.870  0.2057  0.2155 -0.0476
 1304TIP3   OH225326   0.018   6.252   3.980  0.4420  0.9635 -0.5073
 1304TIP3    H125327  -0.041   6.189   3.939  0.8465  1.4500 -1.8969
 1304TIP3    H225328  -0.013   6.259   4.070 -0.5123 -0.1128 -0.7292
 1305TIP3   OH225329   0.444   2.055   0.409  0.1802  0.4838 -0.1554
 1305TIP3    H125330   0.532   2.016   0.408  0.2146  0.3515  2.1776
 1305TIP3    H225331   0.460   2.148   0.427 -0.1063  0.7989 -1.4489
 1306TIP3   OH225332   3.211   6.273  12.351 -0.2189  0.5642  0.0301
 1306TIP3    H125333   3.305   6.283  12.368  0.3754 -0.4141 -2.2466
 1306TIP3    H225334   3.193   6.334  12.279 -1.3213  0.6905  0.3894
 1307TIP3   OH225335   5.989   4.867   0.406 -0.1117 -0.4011 -0.2053
 1307TIP3    H125336   5.960   4.837   0.492 -1.8361 -0.1862 -0.6604
 1307TIP3    H225337   6.037   4.948   0.423 -0.8294 -0.1175  0.5230
 1308TIP3   OH225338   1.084   4.601   3.343 -0.0644 -0.7849  0.3366
 1308TIP3    H125339   1.170   4.590   3.384 -0.3477 -0.4132  1.0509
 1308TIP3    H225340   1.023   4.564   3.407 -0.6188  0.8641  0.7963
 1309TIP3   OH225341   2.032   2.375   1.772 -0.4859  1.2022  0.2275
 1309TIP3    H125342   1.968   2.394   1.704  0.4222  0.5835 -0.8252
 1309TIP3    H225343   2.093   2.313   1.731 -0.7722 -0.3978  2.0541
 1310TIP3   OH225344   3.161   0.260   0.682  0.5188  0.4330  0.0731
 1310TIP3    H125345   3.164   0.209   0.601  1.1743  0.4917  0.0527
 1310TIP3    H225346   3.108   0.336   0.661  1.1646  0.7396 -0.4813
 1311TIP3   OH225347   5.653   1.008   1.560 -0.3538  0.2905 -0.2321
 1311TIP3    H125348   5.592   1.054   1.503  0.1972 -0.3253 -1.3420
 1311TIP3    H225349   5.602   0.989   1.639 -1.3386  0.5411 -0.7894
 1312TIP3   OH225350   0.672   6.302  16.347  0.4450  0.0984  0.0339
 1312TIP3    H125351   0.595   6.248  16.328  1.0128 -0.6542 -0.1653
 1312TIP3    H225352   0.670   6.313  16.442  1.1904 -1.6378  0.2920
 1313TIP3   OH225353   3.743   4.662  14.100 -0.2412 -0.3804  0.1182
 1313TIP3    H125354   3.819   4.646  14.156 -0.3278  4.5037  2.1038
 1313TIP3    H225355   3.668   4.643  14.155 -0.3750  0.0422  0.0872
 1314TIP3   OH225356   3.902   1.163   5.172  0.3634  0.1765 -0.3697
 1314TIP3    H125357   3.840   1.231   5.199  0.6763  1.0863 -1.8412
 1314TIP3    H225358   3.962   1.155   5.246 -0.3465  0.6721  0.2835
 1315TIP3   OH225359   5.818   3.466  15.484 -0.7874  0.2732  0.2394
 1315TIP3    H125360   5.776   3.544  15.448 -0.0518 -0.1793 -1.7279
 1315TIP3    H225361   5.906   3.495  15.508 -1.1591  0.4874  1.4163
 1316TIP3   OH225362   1.768   2.208   1.723  0.4165 -0.1392 -0.0896
 1316TIP3    H125363   1.788   2.244   1.636  0.6005  0.5960  0.2489
 1316TIP3    H225364   1.751   2.284   1.777  0.1139 -0.6059  0.4814
 1317TIP3   OH225365   4.454   3.471   1.470  0.3230  0.1000  0.1494
 1317TIP3    H125366   4.504   3.547   1.500  2.0998 -1.2469  0.8023
 1317TIP3    H225367   4.464   3.472   1.375  1.6139 -0.0994  0.2561
 1318TIP3   OH225368   1.240   1.730   2.230  0.4151  0.2259  0.1295
 1318TIP3    H125369   1.150   1.748   2.201 -0.4665 -3.5848  0.0116
 1318TIP3    H225370   1.294   1.768   2.161 -1.1158  1.5800 -0.4136
 1319TIP3   OH225371   6.058   1.076  11.590 -0.7141 -0.2835  0.2785
 1319TIP3    H125372   5.985   1.070  11.652  0.5512 -1.3148  1.7269
 1319TIP3    H225373   6.056   0.992  11.544 -0.7709 -0.0788 -0.1035
 1320TIP3   OH225374   0.147   2.716  12.276  0.8074  0.1458 -0.1367
 1320TIP3    H125375   0.058   2.685  12.260  1.7583 -2.5607 -0.5901
 1320TIP3    H225376   0.191   2.707  12.192  1.8188  0.3396  0.3556
 1321TIP3   OH225377   3.387   5.402  10.679 -0.9261 -0.2276 -0.2577
 1321TIP3    H125378   3.427   5.446  10.605  0.1978 -0.7578  0.0129
 1321TIP3    H225379   3.301   5.443  10.688 -0.6836  0.5210 -1.2279
 1322TIP3   OH225380   3.143   2.139   2.122 -0.0608  0.3416  0.1827
 1322TIP3    H125381   3.080   2.106   2.058  0.4710 -1.8212  0.6686
 1322TIP3    H225382   3.207   2.068   2.131 -0.2815  0.3705  3.2983
 1323TIP3   OH225383   2.758   5.301  16.402  0.1067 -0.2452 -0.1398
 1323TIP3    H125384   2.849   5.320  16.377  0.5824 -0.5178  1.2714
 1323TIP3    H225385   2.707   5.317  16.323  1.5102 -1.1168 -1.2558
 1324TIP3   OH225386   6.782   0.467   1.703  0.6713  0.4532  0.5276
 1324TIP3    H125387   6.710   0.524   1.732  0.2509  0.6712 -0.8675
 1324TIP3    H225388   6.813   0.424   1.783 -1.3531 -0.0463  1.0861
 1325TIP3   OH225389   2.562   0.933   3.238  0.1209 -0.0691  0.4463
 1325TIP3    H125390   2.655   0.951   3.249 -0.0627  2.0350 -0.8869
 1325TIP3    H225391   2.559   0.851   3.188  1.3177  0.7055 -0.9478
 1326TIP3   OH225392   3.312   5.380  16.538 -0.2825 -0.7003 -0.2377
 1326TIP3    H125393   3.279   5.306  16.487 -1.1636  0.7848 -1.9354
 1326TIP3    H225394   3.286   5.359  16.628  0.6969 -3.0696 -0.4206
 1327TIP3   OH225395   2.938   3.239   0.089 -0.5972 -0.2100 -0.0840
 1327TIP3    H125396   2.962   3.317   0.039 -2.2802 -0.1428 -0.8596
 1327TIP3    H225397   2.976   3.166   0.041 -2.6022 -0.1941 -1.8598
 1328TIP3   OH225398   3.310   4.491  14.944  0.2062  0.4503  0.0132
 1328TIP3    H125399   3.236   4.454  14.993  1.0651 -1.5168 -0.0669
 1328TIP3    H225400   3.274   4.569  14.902 -2.2045 -1.0839 -1.0063
 1329TIP3   OH225401   1.119   3.524   1.163 -0.1955  0.1819 -0.3176
 1329TIP3    H125402   1.149   3.556   1.078  0.2108  0.6649 -0.0006
 1329TIP3    H225403   1.198   3.501   1.210 -0.4882 -1.4755 -0.5801
 1330TIP3   OH225404   6.721   2.471   0.861  0.0497  0.0182 -0.0913
 1330TIP3    H125405   6.626   2.479   0.869 -0.2290 -1.8807 -1.0310
 1330TIP3    H225406   6.755   2.522   0.935 -1.6161  2.0496 -0.6282
 1331TIP3   OH225407   1.782   4.740   2.467  0.4007  0.2691  0.1387
 1331TIP3    H125408   1.762   4.833   2.467  1.9988  0.6340 -0.2561
 1331TIP3    H225409   1.698   4.697   2.449 -0.4314  1.5888  0.7333
 1332TIP3   OH225410   4.644   1.788   0.109 -0.1075 -0.2843 -0.1235
 1332TIP3    H125411   4.566   1.835   0.079 -0.4049 -0.2974  0.5867
 1332TIP3    H225412   4.623   1.696   0.098 -0.6332 -0.3257  1.0596
 1333TIP3   OH225413   6.726   0.392  14.240 -0.1112 -0.3357  0.1020
 1333TIP3    H125414   6.777   0.312  14.228  0.2638 -0.3389  1.5280
 1333TIP3    H225415   6.772   0.459  14.190  0.1956 -0.7725 -0.1989
 1334TIP3   OH225416   0.264   5.725   5.170 -0.6304  0.0941  0.0880
 1334TIP3    H125417   0.313   5.669   5.110  0.7946  0.2557  1.0444
 1334TIP3    H225418   0.173   5.713   5.145 -0.1642 -0.7667 -1.3041
 1335TIP3   OH225419   0.723   6.453   3.495 -0.4445  0.9802 -0.1366
 1335TIP3    H125420   0.633   6.484   3.502 -1.5571 -1.9566  0.2427
 1335TIP3    H225421   0.743   6.418   3.582  0.8784  1.1201 -0.3655
 1336TIP3   OH225422   1.624   6.071  13.896  0.0827  0.7037 -0.0826
 1336TIP3    H125423   1.603   5.978  13.885  0.7122  0.2975  1.7312
 1336TIP3    H225424   1.719   6.075  13.886  0.7546  0.2687  4.3362
 1337TIP3   OH225425   4.577   4.378   5.048  0.0621  0.0652  0.5203
 1337TIP3    H125426   4.573   4.368   4.953 -0.4163 -2.5774  0.7273
 1337TIP3    H225427   4.491   4.411   5.073 -1.0103 -2.2634  0.2122
 1338TIP3   OH225428   5.268   4.910   1.771  0.1387 -0.2830  0.4017
 1338TIP3    H125429   5.209   4.979   1.740 -0.0656 -0.2435  0.8722
 1338TIP3    H225430   5.285   4.933   1.862  1.0552 -0.1781  0.2083
 1339TIP3   OH225431   0.554   3.736  15.723 -0.1822  0.3408 -0.1519
 1339TIP3    H125432   0.601   3.713  15.642 -1.5073  0.0175 -0.8486
 1339TIP3    H225433   0.536   3.830  15.713 -0.3199  0.3073 -0.2257
 1340TIP3   OH225434   1.401   5.635  11.536 -0.4864 -0.3938  0.2008
 1340TIP3    H125435   1.393   5.542  11.558  0.1813 -0.2278  1.2094
 1340TIP3    H225436   1.321   5.655  11.488 -0.1997 -1.7200 -0.8917
 1341TIP3   OH225437   1.850   4.178   0.724  0.2547  0.0465 -0.1813
 1341TIP3    H125438   1.800   4.183   0.806 -0.3023 -2.6554 -0.2526
 1341TIP3    H225439   1.785   4.193   0.655  0.1087 -0.6045 -0.1914
 1342TIP3   OH225440   6.347   6.498   1.366 -0.1515 -0.0757 -0.1505
 1342TIP3    H125441   6.442   6.506   1.357  0.0491 -0.5928  1.2351
 1342TIP3    H225442   6.334   6.464   1.455 -1.5879 -0.9024 -0.6421
 1343TIP3   OH225443   6.350   2.680   3.803 -0.7936 -0.0815 -0.2128
 1343TIP3    H125444   6.352   2.591   3.768 -0.0370  0.0446 -0.5309
 1343TIP3    H225445   6.442   2.707   3.804 -0.9703  0.5397  0.2898
 1344TIP3   OH225446   1.857   4.045  14.430 -0.1525  0.0118  0.2580
 1344TIP3    H125447   1.790   4.023  14.495  0.3008 -1.2325  0.3296
 1344TIP3    H225448   1.925   3.979  14.442  0.4624  0.4344 -0.7445
 1345TIP3   OH225449   3.613   5.923  11.437  0.5349 -0.4287  0.5540
 1345TIP3    H125450   3.586   5.982  11.507 -0.2251 -0.9553  0.7224
 1345TIP3    H225451   3.641   5.981  11.366  1.8755  0.1092  1.4865
 1346TIP3   OH225452   1.272   3.550  16.210 -0.5230  0.6309 -0.0284
 1346TIP3    H125453   1.236   3.512  16.290  0.2891  0.6740  0.3719
 1346TIP3    H225454   1.244   3.641  16.212 -0.5199  0.6278  0.1944
 1347TIP3   OH225455   5.618   4.941  16.374  0.2925 -0.0629  0.4664
 1347TIP3    H125456   5.522   4.939  16.366  0.2333 -0.4500  1.1566
 1347TIP3    H225457   5.638   5.032  16.396 -0.1320 -0.3846  2.4190
 1348TIP3   OH225458   1.865   1.171  14.488 -0.1596 -0.2467 -0.2662
 1348TIP3    H125459   1.947   1.181  14.439 -0.2338 -0.6501 -0.4761
 1348TIP3    H225460   1.796   1.178  14.422 -0.3058  0.3409 -0.0545
 1349TIP3   OH225461   4.378   3.754   1.786  0.2250 -0.2815  0.2992
 1349TIP3    H125462   4.433   3.827   1.757 -0.1426 -0.8387 -1.9614
 1349TIP3    H225463   4.440   3.682   1.800  0.1489 -1.0184 -2.6075
 1350TIP3   OH225464   4.617   0.875  15.834  0.0657 -0.4979 -0.5937
 1350TIP3    H125465   4.533   0.895  15.791  0.3571  1.2687 -0.4178
 1350TIP3    H225466   4.595   0.868  15.927  0.3339  1.7884 -0.3027
 1351TIP3   OH225467   1.241   5.722  16.974  0.2252 -0.6163 -0.6840
 1351TIP3    H125468   1.333   5.697  16.971  0.5473  0.3501  0.3454
 1351TIP3    H225469   1.242   5.813  17.003 -1.0611 -0.6337 -0.5302
 1352TIP3   OH225470   2.506   2.913   1.972  0.6148  0.0692  0.3531
 1352TIP3    H125471   2.463   2.828   1.983  0.0314  0.5981  2.5874
 1352TIP3    H225472   2.492   2.935   1.880 -2.5104 -0.5530  0.5661
 1353TIP3   OH225473   2.456   1.650   5.376  0.2090  0.0514  0.3983
 1353TIP3    H125474   2.467   1.711   5.450 -1.9826  1.4407 -0.3248
 1353TIP3    H225475   2.512   1.686   5.307  0.3244  0.1988  0.5682
 1354TIP3   OH225476   4.624   0.567  15.919 -0.4660 -0.0920 -0.1288
 1354TIP3    H125477   4.619   0.608  16.005 -0.7480 -1.0676  0.3418
 1354TIP3    H225478   4.533   0.551  15.895 -0.3628 -0.4894 -0.2678
 1355TIP3   OH225479   1.650   0.102   6.477 -0.3958  0.2193 -0.5996
 1355TIP3    H125480   1.588   0.135   6.412 -2.0944  0.7474  1.1984
 1355TIP3    H225481   1.735   0.105   6.432 -0.9989  3.4952 -1.8333
 1356TIP3   OH225482   0.090   3.476  11.203  0.5820  0.3482 -0.2303
 1356TIP3    H125483   0.133   3.560  11.216  0.7212  0.3539 -0.7040
 1356TIP3    H225484   0.033   3.489  11.127 -1.1804  0.6839  1.1102
 1357TIP3   OH225485   4.130   5.001   5.201 -0.1217  0.2043 -0.0494
 1357TIP3    H125486   4.089   4.956   5.274  1.3292 -2.2098 -0.5916
 1357TIP3    H225487   4.172   5.078   5.240 -0.4626 -0.3302  1.4295
 1358TIP3   OH225488   1.573   4.326  13.213  0.2884  0.3218 -0.0636
 1358TIP3    H125489   1.581   4.422  13.216 -0.6129  0.3867  1.0163
 1358TIP3    H225490   1.644   4.295  13.270 -0.2772  0.4206  0.7108
 1359TIP3   OH225491   5.959   4.898  16.588  0.6669 -0.4644 -0.1191
 1359TIP3    H125492   5.866   4.880  16.576 -0.0196  3.2962 -1.9269
 1359TIP3    H225493   5.998   4.887  16.501  1.8616 -1.5182  0.5113
 1360TIP3   OH225494   3.401   2.476  15.499  0.4354 -0.3516 -0.0772
 1360TIP3    H125495   3.317   2.475  15.453  0.9215  1.6907 -1.1492
 1360TIP3    H225496   3.379   2.479  15.592 -0.6395 -0.9578 -0.3038
 1361TIP3   OH225497   6.146   5.293   2.591  0.0584  0.0151 -0.1724
 1361TIP3    H125498   6.178   5.217   2.640 -0.3757  0.2004  0.3977
 1361TIP3    H225499   6.169   5.273   2.500  0.5037 -0.5143  0.0482
 1362TIP3   OH225500   5.339   2.045   1.241  0.5621 -0.1132  0.2458
 1362TIP3    H125501   5.385   2.041   1.158 -1.4352  0.5090 -0.9729
 1362TIP3    H225502   5.322   1.953   1.264  1.7875 -0.3205  0.4078
 1363TIP3   OH225503   1.629   3.631  16.375 -0.3417 -0.4347 -0.2273
 1363TIP3    H125504   1.574   3.691  16.425  2.9333  2.8262 -0.1298
 1363TIP3    H225505   1.667   3.573  16.440 -1.1916 -0.6328  0.1055
 1364TIP3   OH225506   1.586   2.419  15.937  0.4392 -0.1962 -0.3590
 1364TIP3    H125507   1.602   2.417  15.842  1.5339  1.8472 -0.2921
 1364TIP3    H225508   1.643   2.489  15.969 -0.5787 -0.2256  1.6941
 1365TIP3   OH225509   4.170   0.826  15.747 -0.2084  0.2178 -0.1264
 1365TIP3    H125510   4.259   0.859  15.735 -0.2598  0.5925  0.4423
 1365TIP3    H225511   4.145   0.857  15.834 -0.1048 -1.7075  0.6418
 1366TIP3   OH225512   3.936   5.505  16.102 -0.4025 -0.0992 -0.0150
 1366TIP3    H125513   3.991   5.582  16.112 -2.4963  1.2022  3.0844
 1366TIP3    H225514   3.898   5.491  16.189 -3.2048 -2.2091 -1.4046
 1367TIP3   OH225515   3.894   1.712  15.177 -0.1193 -0.1343  0.0424
 1367TIP3    H125516   3.902   1.704  15.272 -1.6685  1.7671  0.4132
 1367TIP3    H225517   3.952   1.785  15.155 -0.8140  0.3361 -0.2473
 1368TIP3   OH225518   5.429   5.214  10.428  0.5801  0.0176  0.3353
 1368TIP3    H125519   5.359   5.187  10.369 -0.0343  0.7155  0.7320
 1368TIP3    H225520   5.418   5.309  10.435  2.2425  0.3137 -0.4802
 1369TIP3   OH225521   6.107   6.238  13.844 -0.3550 -0.1072  0.8915
 1369TIP3    H125522   6.031   6.183  13.829 -0.0780 -0.6823  1.5198
 1369TIP3    H225523   6.162   6.187  13.904  0.8461 -0.0078 -0.0779
 1370TIP3   OH225524   5.858   4.733   4.907  0.4645  0.0725 -0.2780
 1370TIP3    H125525   5.954   4.741   4.904  0.4573  0.4800  0.4810
 1370TIP3    H225526   5.827   4.821   4.885  0.2649 -0.0014 -0.2855
 1371TIP3   OH225527   4.182   6.552  14.152  0.0492  0.3234  0.3707
 1371TIP3    H125528   4.202   6.486  14.086 -0.3500  1.5009 -0.9762
 1371TIP3    H225529   4.108   6.601  14.116  0.4257  1.5961  1.2479
 1372TIP3   OH225530   2.988   5.640   3.538 -0.0970 -0.9249 -0.3928
 1372TIP3    H125531   2.921   5.655   3.604 -1.6122  2.4068 -2.4307
 1372TIP3    H225532   2.950   5.575   3.479 -1.1651  0.1192 -0.9115
 1373TIP3   OH225533   5.571   3.818   2.743 -0.0131 -0.1344 -0.5022
 1373TIP3    H125534   5.498   3.850   2.690 -1.1453  0.7930  1.4935
 1373TIP3    H225535   5.599   3.894   2.794  0.4536 -1.1705  0.8505
 1374TIP3   OH225536   6.467   5.716  15.867  0.0171  0.1745  0.3614
 1374TIP3    H125537   6.529   5.644  15.864  0.7945  0.7154 -4.8507
 1374TIP3    H225538   6.517   5.793  15.841 -2.3184  0.9266 -2.4517
 1375TIP3   OH225539   1.209   2.783   3.130 -0.1913 -0.2300 -0.5136
 1375TIP3    H125540   1.277   2.715   3.133 -0.0481 -0.2405 -2.5144
 1375TIP3    H225541   1.135   2.745   3.176  0.6290 -0.8485  0.3373
 1376TIP3   OH225542   4.443   1.986   5.693  1.0666  0.3590 -0.1656
 1376TIP3    H125543   4.450   2.043   5.617  0.5542 -1.8223 -1.9323
 1376TIP3    H225544   4.513   1.922   5.683  0.2842 -0.6545  0.5732
 1377TIP3   OH225545   2.174   2.216   5.299  0.0072  0.2452  0.0749
 1377TIP3    H125546   2.206   2.219   5.208 -1.8390  0.6517 -0.6073
 1377TIP3    H225547   2.154   2.307   5.320  0.7282  0.1956  1.0414
 1378TIP3   OH225548   3.859   0.646   5.024 -0.2904 -0.7002 -0.1304
 1378TIP3    H125549   3.817   0.598   5.095  1.4645 -0.8491  0.8503
 1378TIP3    H225550   3.938   0.683   5.063  0.6294 -0.6318 -1.9614
 1379TIP3   OH225551   2.748   5.769  14.494 -0.4737 -0.0788  0.8045
 1379TIP3    H125552   2.710   5.693  14.538 -0.2593 -0.5038  0.2817
 1379TIP3    H225553   2.781   5.734  14.411 -0.0078  0.5090  0.7304
 1380TIP3   OH225554   5.153   6.719   2.978 -0.3596 -0.1420 -0.2977
 1380TIP3    H125555   5.184   6.678   3.058  0.6023  1.1749  0.0526
 1380TIP3    H225556   5.212   6.687   2.910 -0.3159 -0.2161 -0.2242
 1381TIP3   OH225557   2.386   3.624  13.488 -0.1883 -0.3588 -0.4925
 1381TIP3    H125558   2.406   3.716  13.475 -0.8335 -0.2360 -0.6675
 1381TIP3    H225559   2.458   3.591  13.541 -1.2686  0.8760  1.8881
 1382TIP3   OH225560   4.746   0.050   3.540  0.2863  0.3967 -0.0516
 1382TIP3    H125561   4.705   0.070   3.456 -0.2704 -3.1024 -0.7904
 1382TIP3    H225562   4.674   0.049   3.602  0.5893  2.2507  0.3812
 1383TIP3   OH225563   4.966   5.875  12.754 -0.9405  0.2439  0.1082
 1383TIP3    H125564   4.916   5.810  12.704 -0.0535  1.5520 -2.6941
 1383TIP3    H225565   5.058   5.852  12.738 -0.6197  0.7411  1.1432
 1384TIP3   OH225566   1.324   4.688  13.070 -0.4965 -0.2947 -0.3462
 1384TIP3    H125567   1.259   4.754  13.092  1.7622  1.5349  1.3113
 1384TIP3    H225568   1.341   4.702  12.977 -0.3497  1.2385 -0.1149
 1385TIP3   OH225569   0.019   5.901  16.293  0.0224 -0.2383 -0.1119
 1385TIP3    H125570   0.085   5.843  16.331 -0.4978 -1.6690 -1.3049
 1385TIP3    H225571  -0.032   5.930  16.368  1.4259  0.1780  0.7290
 1386TIP3   OH225572   2.353   6.083   6.652 -0.4278  0.4649 -0.5006
 1386TIP3    H125573   2.262   6.113   6.663 -0.3274  0.9101 -0.8656
 1386TIP3    H225574   2.347   6.011   6.589 -0.4630  0.8511 -0.9397
 1387TIP3   OH225575   5.305   2.380   2.436  0.8880  0.5465  0.0137
 1387TIP3    H125576   5.212   2.364   2.451  0.8211  0.1268 -0.7796
 1387TIP3    H225577   5.314   2.380   2.340  1.6035  1.1681  0.0687
 1388TIP3   OH225578   5.833   4.420  13.418 -0.0890 -0.3366  0.3021
 1388TIP3    H125579   5.914   4.371  13.431 -0.1784 -1.0761 -1.6018
 1388TIP3    H225580   5.782   4.404  13.497  1.8832  0.7442  1.8807
 1389TIP3   OH225581   5.072   2.888  11.603 -0.5310  0.1561 -0.1195
 1389TIP3    H125582   4.977   2.877  11.610 -0.6395  0.1270 -1.3883
 1389TIP3    H225583   5.084   2.983  11.597 -0.4865  0.1570 -0.0100
 1390TIP3   OH225584   1.806   1.747  12.966 -0.1242  0.1417  0.1499
 1390TIP3    H125585   1.800   1.754  12.871  0.2122 -1.8341 -0.0420
 1390TIP3    H225586   1.721   1.779  12.998 -1.2188 -1.4781 -0.9819
 1391TIP3   OH225587   4.561   0.523   1.377  0.8462  0.5219 -0.6389
 1391TIP3    H125588   4.608   0.587   1.323  1.0243  0.7466 -0.2177
 1391TIP3    H225589   4.473   0.520   1.339  1.0559  0.4515 -1.1362
 1392TIP3   OH225590   0.278   4.689  10.950 -0.0035 -0.2491 -0.7051
 1392TIP3    H125591   0.348   4.744  10.914 -0.3114  0.0366 -0.8784
 1392TIP3    H225592   0.241   4.741  11.022 -1.9121  0.8876 -2.3979
 1393TIP3   OH225593   3.262   3.564  12.147 -0.2931  0.7124  0.3426
 1393TIP3    H125594   3.325   3.584  12.216  0.8324  0.0689 -0.4600
 1393TIP3    H225595   3.267   3.468  12.137 -0.2339  0.8204 -0.7922
 1394TIP3   OH225596   3.941   2.348   0.876  0.1854  0.0967  0.2404
 1394TIP3    H125597   3.979   2.307   0.798 -2.0261  0.6126 -1.2129
 1394TIP3    H225598   3.925   2.274   0.936  3.0342 -0.1601  0.8086
 1395TIP3   OH225599   5.945   0.008  13.223  0.6319 -0.2104  0.2898
 1395TIP3    H125600   5.903  -0.057  13.167  1.0811 -1.4694  1.3563
 1395TIP3    H225601   5.882   0.021  13.294  0.5907  0.4544  0.1364
 1396TIP3   OH225602   2.163   5.424   3.205  0.0938  0.4169  0.0251
 1396TIP3    H125603   2.083   5.379   3.176 -1.2322  2.3626  0.4409
 1396TIP3    H225604   2.172   5.400   3.297 -0.3063  0.5532  0.1030
 1397TIP3   OH225605   4.374   6.014  11.888  0.0395  0.4707 -0.0792
 1397TIP3    H125606   4.395   5.939  11.945  1.4186 -0.3402 -1.5746
 1397TIP3    H225607   4.445   6.076  11.903 -0.4945  1.0031  0.3017
 1398TIP3   OH225608   5.273   6.090  12.726 -0.6004  0.2601  0.6129
 1398TIP3    H125609   5.237   6.017  12.676  0.1925 -0.1579  0.6365
 1398TIP3    H225610   5.367   6.072  12.731 -0.3338  1.4852  0.2917
 1399TIP3   OH225611   4.775   0.931  12.648 -0.3098 -0.1326  0.3640
 1399TIP3    H125612   4.772   1.012  12.698 -2.0351  1.0260 -1.4703
 1399TIP3    H225613   4.857   0.889  12.675  0.7341  2.2865  1.2499
 1400TIP3   OH225614   0.107   1.997  13.477  0.4146 -0.2119  0.3949
 1400TIP3    H125615   0.059   2.000  13.394 -1.7614 -0.4131  1.5775
 1400TIP3    H225616   0.163   2.075  13.474 -0.5299  0.4697 -0.7533
 1401TIP3   OH225617   4.094   1.617  16.437 -0.7167 -0.2092 -0.0524
 1401TIP3    H125618   4.007   1.656  16.424 -0.5839  0.4304  0.8623
 1401TIP3    H225619   4.154   1.679  16.395 -0.6943 -0.6732 -0.7220
 1402TIP3   OH225620   6.067   3.538  15.604 -0.2541 -0.2073  0.3325
 1402TIP3    H125621   6.158   3.511  15.599  0.5786  2.3812  0.4954
 1402TIP3    H225622   6.061   3.588  15.685 -1.4293  0.9860 -0.4493
 1403TIP3   OH225623   3.249   3.558   2.248  0.0104 -0.0925 -0.3187
 1403TIP3    H125624   3.325   3.521   2.203 -0.1841 -1.5316  0.4514
 1403TIP3    H225625   3.286   3.602   2.324  0.1502  0.1731 -0.5377
 1404TIP3   OH225626   5.579   4.295  16.509 -0.0535 -0.5920  0.7432
 1404TIP3    H125627   5.644   4.333  16.568  0.1456 -0.7744  0.6440
 1404TIP3    H225628   5.595   4.337  16.425 -0.5569 -0.0839  0.8911
 1405TIP3   OH225629   4.459   4.993  14.593  0.2797  0.6375 -0.1628
 1405TIP3    H125630   4.498   5.030  14.515  0.9271  0.5446  0.1133
 1405TIP3    H225631   4.368   5.025  14.592  0.4688  1.1692 -0.5968
 1406TIP3   OH225632   1.369   5.768  15.240  0.1324 -0.2711  0.6680
 1406TIP3    H125633   1.424   5.699  15.277  0.6529  0.0276  0.4595
 1406TIP3    H225634   1.283   5.754  15.280  0.8972  0.6008  2.7254
 1407TIP3   OH225635   0.357   2.015   4.074  0.1126  0.0797 -0.3526
 1407TIP3    H125636   0.423   2.005   4.142  2.4144 -0.3456 -2.4641
 1407TIP3    H225637   0.379   2.098   4.031 -1.8280  0.7873 -0.0785
 1408TIP3   OH225638   6.711   4.879   1.581  0.1368  0.3825  0.3297
 1408TIP3    H125639   6.803   4.870   1.606  0.7312  0.1103 -1.8183
 1408TIP3    H225640   6.700   4.822   1.505 -1.6339  0.9628  0.0933
 1409TIP3   OH225641   0.906   1.981  13.494 -0.5596 -0.1856  0.2202
 1409TIP3    H125642   0.836   1.931  13.451 -0.2326 -1.8639  1.5235
 1409TIP3    H225643   0.904   1.951  13.585  1.8089 -0.2528  0.3184
 1410TIP3   OH225644   0.085   3.668  12.359  0.0339 -0.1799 -0.0897
 1410TIP3    H125645   0.148   3.691  12.290 -0.8751  0.3978 -0.7487
 1410TIP3    H225646   0.057   3.579  12.336  0.4883 -0.3857  0.1269
 1411TIP3   OH225647   4.909   2.103   1.367 -0.1867 -0.3294  0.1132
 1411TIP3    H125648   4.896   2.037   1.298  0.8169  0.5316 -0.9377
 1411TIP3    H225649   4.903   2.053   1.448 -0.7579 -1.4893 -0.6052
 1412TIP3   OH225650   1.658   3.465   2.559 -0.4339  0.0124  0.2939
 1412TIP3    H125651   1.591   3.400   2.582 -1.8469  1.3218  0.0830
 1412TIP3    H225652   1.640   3.539   2.617  0.6677  0.5166  0.0214
 1413TIP3   OH225653   3.830   1.974  13.663  0.1963  0.1429 -0.2474
 1413TIP3    H125654   3.843   1.924  13.583 -1.4751  1.0316 -1.1332
 1413TIP3    H225655   3.802   1.909  13.728 -0.3254 -0.3217 -0.9296
 1414TIP3   OH225656   4.718   3.911   6.055 -0.6537  0.1781  0.3418
 1414TIP3    H125657   4.688   3.855   6.126 -1.6347 -2.7718 -2.1895
 1414TIP3    H225658   4.811   3.888   6.043 -0.8652 -0.4070 -0.2254
 1415TIP3   OH225659   3.636   1.282   1.804  0.3474 -0.2150 -0.0684
 1415TIP3    H125660   3.634   1.374   1.778  1.9388 -0.6276 -1.8934
 1415TIP3    H225661   3.608   1.234   1.726  0.7940 -1.3343  0.4246
 1416TIP3   OH225662   3.435   3.918  13.694 -0.1619  0.5574 -0.1522
 1416TIP3    H125663   3.458   3.831  13.727  0.4340 -0.0358 -2.0231
 1416TIP3    H225664   3.398   3.963  13.770  1.3316 -0.6425  1.3667
 1417TIP3   OH225665   4.310   3.609  11.028  0.1259 -0.2225 -0.0491
 1417TIP3    H125666   4.326   3.567  10.943  1.2607  0.2185 -0.0650
 1417TIP3    H225667   4.255   3.685  11.007  0.9689  0.2734 -0.4874
 1418TIP3   OH225668   3.793   5.129   3.577  0.3783 -0.8773  0.1637
 1418TIP3    H125669   3.749   5.214   3.580  2.2740  0.1252  0.4342
 1418TIP3    H225670   3.734   5.074   3.525 -0.1329  1.0409 -1.3984
 1419TIP3   OH225671   3.308   2.964  13.203  0.3691  0.6437  0.4799
 1419TIP3    H125672   3.355   3.037  13.244 -0.8474  3.3145 -2.5077
 1419TIP3    H225673   3.362   2.940  13.128 -0.3203 -0.0801  0.2031
 1420TIP3   OH225674   0.645   0.212  15.110 -0.1210 -0.4220 -0.2101
 1420TIP3    H125675   0.598   0.139  15.149 -0.2841 -0.0728  0.2562
 1420TIP3    H225676   0.608   0.221  15.022 -2.2279  0.9920  0.7515
 1421TIP3   OH225677   3.923   1.167  14.657 -0.4590 -0.5606 -0.1422
 1421TIP3    H125678   3.842   1.174  14.606 -1.4191 -2.8659  0.8838
 1421TIP3    H225679   3.931   1.250  14.702  0.4962  1.6645 -3.9496
 1422TIP3   OH225680   4.200   2.921   5.505 -0.0992 -0.1429 -0.3024
 1422TIP3    H125681   4.241   2.870   5.575 -1.1181  0.2509  0.6163
 1422TIP3    H225682   4.143   2.982   5.551 -0.8735  0.0562 -1.4918
 1423TIP3   OH225683   2.894   0.923   2.987 -0.1661  0.5471 -0.1525
 1423TIP3    H125684   2.823   0.881   3.035 -2.0473  3.0396 -0.5737
 1423TIP3    H225685   2.965   0.932   3.052 -1.9052  2.0316  1.6769
 1424TIP3   OH225686   0.381   2.322  13.928 -0.2245  0.4566 -0.1276
 1424TIP3    H125687   0.465   2.279  13.949 -0.3591 -1.3182 -2.7827
 1424TIP3    H225688   0.406   2.407  13.891  0.4086  0.0649 -0.6220
 1425TIP3   OH225689   0.331   4.449  10.397  0.2605  0.1890 -0.3699
 1425TIP3    H125690   0.426   4.432  10.404  0.5231  0.3003 -2.8423
 1425TIP3    H225691   0.311   4.434  10.304 -2.0127  0.9393 -0.0530
 1426TIP3   OH225692   6.102   1.542   3.991 -0.1612 -0.2824  0.7489
 1426TIP3    H125693   6.025   1.568   4.041 -2.1730 -0.7057 -1.8861
 1426TIP3    H225694   6.116   1.451   4.014 -1.1517 -0.5134  0.4918
 1427TIP3   OH225695   1.872   0.159   0.258  0.5407  0.0414  0.8612
 1427TIP3    H125696   1.929   0.233   0.238  2.0930 -1.7649 -2.0933
 1427TIP3    H225697   1.914   0.116   0.332  1.9948 -0.1518 -0.0370
 1428TIP3   OH225698   4.241   6.238   4.872  0.0376 -0.0447  0.2241
 1428TIP3    H125699   4.280   6.186   4.943 -1.1159  0.4751  1.2674
 1428TIP3    H225700   4.306   6.306   4.854  0.0723  0.2087  1.2421
 1429TIP3   OH225701   0.163   3.621  15.539 -0.0908  1.0376  0.5846
 1429TIP3    H125702   0.190   3.696  15.486 -0.6914 -0.8489 -2.6918
 1429TIP3    H225703   0.244   3.571  15.553 -0.1882  0.6653 -0.1259
 1430TIP3   OH225704   5.567   6.531  16.854 -0.1779 -0.1922  0.3279
 1430TIP3    H125705   5.532   6.496  16.936  1.1570  3.2862  2.5831
 1430TIP3    H225706   5.490   6.563  16.807 -0.7197  0.5205  1.6557
 1431TIP3   OH225707   6.515   5.557  15.164 -0.6617  0.2007  0.1100
 1431TIP3    H125708   6.451   5.610  15.211 -3.0695 -2.0534 -0.3870
 1431TIP3    H225709   6.594   5.560  15.219 -2.4759 -0.1751  2.9630
 1432TIP3   OH225710   3.140   2.792   0.495  0.2327  0.0311  0.5373
 1432TIP3    H125711   3.183   2.769   0.578 -0.7618  0.0209  1.0633
 1432TIP3    H225712   3.064   2.844   0.521  0.1847  0.4442 -0.4029
 1433TIP3   OH225713   5.067   4.718  13.812  0.1453  0.2365  0.3932
 1433TIP3    H125714   4.998   4.776  13.780 -0.0015  0.4379  1.0475
 1433TIP3    H225715   5.144   4.741  13.760 -0.0616  0.6074  0.2442
 1434TIP3   OH225716   4.754   3.039  14.802  0.6744  0.7659 -0.2905
 1434TIP3    H125717   4.703   3.114  14.771  0.5040  0.8436  0.1852
 1434TIP3    H225718   4.831   3.039  14.745  0.0405  0.5073 -1.1692
 1435TIP3   OH225719   6.404   1.944   6.635  0.0087 -0.7076  0.2289
 1435TIP3    H125720   6.377   1.876   6.697 -0.2559 -0.8964 -0.0919
 1435TIP3    H225721   6.403   2.025   6.687  1.5237 -1.1122  0.9240
 1436TIP3   OH225722   6.193   2.281  16.698 -0.3849  0.1955 -0.1138
 1436TIP3    H125723   6.230   2.246  16.617 -0.8541 -0.9240  0.1299
 1436TIP3    H225724   6.098   2.277  16.684 -0.4698 -0.0754  0.5164
 1437TIP3   OH225725   1.842   6.652   0.273  0.4369 -0.0626  0.0592
 1437TIP3    H125726   1.834   6.747   0.277  0.0525 -0.0369 -1.0481
 1437TIP3    H225727   1.754   6.621   0.251  0.5868 -0.6587  0.2910
 1438TIP3   OH225728   4.222   3.104   2.325  0.0656 -0.4948  0.3617
 1438TIP3    H125729   4.277   3.029   2.348  0.0257 -0.2019  1.4936
 1438TIP3    H225730   4.139   3.066   2.297  0.7361 -0.9305 -1.1026
 1439TIP3   OH225731   0.797   1.178  15.174  0.6500 -0.6266 -0.2206
 1439TIP3    H125732   0.771   1.165  15.082 -0.0552 -0.4796 -0.0464
 1439TIP3    H225733   0.800   1.089  15.210  0.8782 -0.6816 -0.3713
 1440TIP3   OH225734   3.134   1.037  12.263 -0.0230 -0.3677  0.3845
 1440TIP3    H125735   3.197   1.066  12.330  0.8143 -1.9232  0.3246
 1440TIP3    H225736   3.128   1.111  12.202  1.5674 -0.0596  0.5419
 1441TIP3   OH225737   3.727   5.068  15.259  0.2761 -0.4637 -0.0069
 1441TIP3    H125738   3.819   5.092  15.249  0.9722 -3.0792 -0.6858
 1441TIP3    H225739   3.728   4.997  15.324 -1.3891  0.1408  0.7224
 1442TIP3   OH225740   2.272   4.868  11.266 -0.2101 -0.6480 -0.7035
 1442TIP3    H125741   2.319   4.801  11.216  0.3337 -0.4454 -0.4752
 1442TIP3    H225742   2.256   4.938  11.203  1.4605  0.0935 -0.3637
 1443TIP3   OH225743   3.196   3.254   2.604 -0.1365 -0.4446 -0.1657
 1443TIP3    H125744   3.270   3.225   2.551 -0.0051  0.4662 -0.4988
 1443TIP3    H225745   3.181   3.182   2.666  1.9875 -0.0349  0.9177
 1444TIP3   OH225746   0.717   3.768   3.766  0.3185  0.4841 -0.2373
 1444TIP3    H125747   0.666   3.692   3.794  1.5331 -0.4998 -0.5578
 1444TIP3    H225748   0.669   3.843   3.800 -0.8420 -0.4298  0.2338
 1445TIP3   OH225749   3.345   2.325  16.194 -0.2352 -0.9586  0.4130
 1445TIP3    H125750   3.398   2.352  16.269 -1.6998  1.0456  0.7986
 1445TIP3    H225751   3.297   2.404  16.169 -1.7211 -2.2520 -1.0271
 1446TIP3   OH225752   1.497   6.266  15.072  0.4334  0.1737  0.0541
 1446TIP3    H125753   1.582   6.271  15.116  0.6099 -2.1408  0.0791
 1446TIP3    H225754   1.433   6.273  15.143  0.6414 -0.1384  0.2725
 1447TIP3   OH225755   2.769   5.905  14.986  0.1289  0.0998 -0.3379
 1447TIP3    H125756   2.826   5.918  14.910 -0.6338  1.4333 -0.7251
 1447TIP3    H225757   2.712   5.982  14.986  0.3143  0.2845  1.7766
 1448TIP3   OH225758   5.512   5.244  11.873 -0.1461  0.1930  0.2325
 1448TIP3    H125759   5.478   5.226  11.786 -1.2839 -0.8593  0.8677
 1448TIP3    H225760   5.493   5.165  11.924  1.2270  0.4671  1.2320
 1449TIP3   OH225761   0.243   2.173   1.868  0.0906  0.4279 -0.6524
 1449TIP3    H125762   0.151   2.198   1.872 -0.0362 -0.1296 -0.0024
 1449TIP3    H225763   0.277   2.218   1.791 -0.7491  0.5602 -0.9474
 1450TIP3   OH225764   4.696   2.975   5.035  0.1772 -0.0948  0.1276
 1450TIP3    H125765   4.751   2.897   5.044  0.5858  0.1544 -0.1875
 1450TIP3    H225766   4.752   3.047   5.063 -0.6052 -0.0400  1.6600
 1451TIP3   OH225767   3.993   5.415  13.020  0.7253  0.1695 -0.4254
 1451TIP3    H125768   3.942   5.352  13.072  1.1189  1.6506  1.9378
 1451TIP3    H225769   4.055   5.361  12.971 -0.0267 -1.3902  0.2545
 1452TIP3   OH225770   1.666   6.183   5.784 -0.2210  0.5231 -0.5158
 1452TIP3    H125771   1.661   6.236   5.704  1.0700  1.1649 -0.1962
 1452TIP3    H225772   1.745   6.214   5.828 -0.0674 -0.8873  0.2577
 1453TIP3   OH225773   5.668   2.643  16.514  0.2947  0.3310 -0.0250
 1453TIP3    H125774   5.763   2.633  16.518  0.1708 -0.6836  0.7249
 1453TIP3    H225775   5.644   2.604  16.430  0.4281 -0.5334  0.3253
 1454TIP3   OH225776   3.847   1.654  14.177  0.1936  0.1259  0.6880
 1454TIP3    H125777   3.795   1.603  14.116 -0.1672  0.2411  0.8995
 1454TIP3    H225778   3.874   1.731  14.127  1.2712 -0.5605  0.1667
 1455TIP3   OH225779   3.161   0.595  15.417 -0.2905  0.1130  0.2338
 1455TIP3    H125780   3.099   0.655  15.458 -2.2705 -1.0230 -0.9116
 1455TIP3    H225781   3.203   0.646  15.348  0.8775  1.1856  1.6758
 1456TIP3   OH225782   4.474   6.199   3.822 -0.0257  0.8244 -0.0584
 1456TIP3    H125783   4.427   6.117   3.805 -0.7106  1.0544  0.6574
 1456TIP3    H225784   4.504   6.191   3.913 -0.9484  1.7537  0.3499
 1457TIP3   OH225785   4.659   3.861   4.518  0.2697  0.4883  0.5097
 1457TIP3    H125786   4.596   3.791   4.500 -0.1815  1.1327 -0.5237
 1457TIP3    H225787   4.731   3.818   4.564 -0.1856 -0.5710  0.2562
 1458TIP3   OH225788   1.941   4.927  13.240  0.0828  0.2796 -0.1729
 1458TIP3    H125789   1.868   4.983  13.214 -0.5236  0.0285  0.9448
 1458TIP3    H225790   2.018   4.967  13.198 -0.4836  1.3890 -0.1807
 1459TIP3   OH225791   2.662   6.407   2.635  0.5205  0.0684  0.3112
 1459TIP3    H125792   2.675   6.412   2.730 -1.8987 -1.9885  0.8493
 1459TIP3    H225793   2.581   6.357   2.624 -0.0045  1.3761 -2.8443
 1460TIP3   OH225794   2.630   4.373   0.958 -0.2553 -0.6761  0.1561
 1460TIP3    H125795   2.682   4.292   0.961 -0.2423 -0.6824 -0.1923
 1460TIP3    H225796   2.684   4.438   1.003  0.0457 -0.6889 -0.1785
 1461TIP3   OH225797   0.848   4.940   4.199  0.5308 -0.1977 -0.1861
 1461TIP3    H125798   0.822   4.857   4.159 -1.0949  0.5645 -0.7861
 1461TIP3    H225799   0.780   5.002   4.172  1.7744  1.3677  0.1490
 1462TIP3   OH225800   2.109   6.393   5.366  0.4512  0.2113  0.1238
 1462TIP3    H125801   2.141   6.464   5.421  0.0984 -0.1327  0.7926
 1462TIP3    H225802   2.030   6.428   5.325 -0.0308  0.0432  0.8743
 1463TIP3   OH225803   4.142   1.571   4.874 -0.0019  0.3122  0.3339
 1463TIP3    H125804   4.234   1.598   4.876  0.8326 -2.2363 -0.4781
 1463TIP3    H225805   4.114   1.590   4.784  0.3354 -0.6773  0.0092
 1464TIP3   OH225806   5.022   1.694  11.573  0.1959 -0.5358  0.3121
 1464TIP3    H125807   4.942   1.745  11.578  0.2519 -0.5156  1.0132
 1464TIP3    H225808   5.048   1.700  11.481 -1.5025 -1.9321 -0.3123
 1465TIP3   OH225809   0.168   0.864  14.205  0.0372 -0.6465 -0.3497
 1465TIP3    H125810   0.082   0.824  14.193 -0.6694  0.9468 -0.9484
 1465TIP3    H225811   0.182   0.863  14.300  0.7184 -3.5063 -0.3901
 1466TIP3   OH225812   6.357   2.372  12.039  0.3218 -0.2005  0.2710
 1466TIP3    H125813   6.324   2.287  12.068 -0.4843  0.2207  0.6250
 1466TIP3    H225814   6.315   2.387  11.954 -0.7193  0.5007  0.8882
 1467TIP3   OH225815   5.108   2.682  15.485  0.1784  0.0800  0.1532
 1467TIP3    H125816   5.135   2.687  15.393 -0.8192 -1.0284 -0.2208
 1467TIP3    H225817   5.113   2.773  15.516 -1.6453  0.8639 -1.6454
 1468TIP3   OH225818   3.961   2.781  14.189 -0.0301 -0.5438  0.0828
 1468TIP3    H125819   4.011   2.822  14.259 -0.6179  0.2348  0.0585
 1468TIP3    H225820   3.946   2.692  14.219  0.1178 -0.3530  0.7335
 1469TIP3   OH225821   1.605   4.058  11.012 -0.1647  0.5425 -0.6080
 1469TIP3    H125822   1.526   4.039  10.961 -1.1704  0.1495  1.0372
 1469TIP3    H225823   1.658   4.113  10.954 -1.1708 -0.0247 -2.1359
 1470TIP3   OH225824   2.422   5.629   4.262  0.5092  0.0022  0.0632
 1470TIP3    H125825   2.349   5.594   4.312  0.6180  0.7342  0.7490
 1470TIP3    H225826   2.426   5.722   4.286  1.6109 -0.0091 -0.0163
 1471TIP3   OH225827   5.425   6.511  11.316  0.4597  0.3171 -0.4706
 1471TIP3    H125828   5.514   6.534  11.345  0.3340 -1.6460  1.7111
 1471TIP3    H225829   5.439   6.450  11.244  0.8963 -0.3458  0.1685
 1472TIP3   OH225830   4.135   0.781  13.384 -0.0866 -0.1572 -0.0782
 1472TIP3    H125831   4.175   0.698  13.359 -1.3855 -0.5554 -0.9567
 1472TIP3    H225832   4.041   0.762  13.391 -0.4305  1.2463 -0.4004
 1473TIP3   OH225833   3.747   3.125   0.108  0.3294  0.0107 -0.0981
 1473TIP3    H125834   3.761   3.218   0.091 -0.7959  0.5873  1.7799
 1473TIP3    H225835   3.796   3.107   0.189  1.6083 -1.3784 -1.1287
 1474TIP3   OH225836   0.385   4.742   4.686  0.0446 -0.2870 -0.2511
 1474TIP3    H125837   0.460   4.783   4.728 -0.4156  0.0612  0.2440
 1474TIP3    H225838   0.316   4.808   4.689 -0.4256 -0.7652 -0.2812
 1475TIP3   OH225839   2.502   2.853  12.026  0.6046 -0.3988  0.3166
 1475TIP3    H125840   2.548   2.875  12.106 -3.1430  1.0109  2.3374
 1475TIP3    H225841   2.461   2.935  11.998 -0.1031 -1.3597 -1.7220
 1476TIP3   OH225842   2.902   6.117   4.256 -0.5182  0.2940  0.2300
 1476TIP3    H125843   2.931   6.075   4.337 -1.6527 -2.0732 -0.4884
 1476TIP3    H225844   2.981   6.124   4.202 -0.1257 -0.0260  0.7584
 1477TIP3   OH225845   2.430   6.001  16.417 -0.9642  0.4688 -0.0218
 1477TIP3    H125846   2.516   5.981  16.453 -0.9793 -0.5201 -0.4964
 1477TIP3    H225847   2.437   6.091  16.385 -0.7468  1.1291  1.8018
 1478TIP3   OH225848   4.177   4.936   1.400 -0.0482  0.3147  0.0717
 1478TIP3    H125849   4.220   4.976   1.476 -0.5897 -0.6233  0.8885
 1478TIP3    H225850   4.185   5.002   1.331 -0.3810  1.5848  1.1966
 1479TIP3   OH225851   1.220   1.353   5.529 -0.2348 -0.1810  0.0128
 1479TIP3    H125852   1.256   1.425   5.478 -0.4655  0.4956  0.7868
 1479TIP3    H225853   1.181   1.395   5.606  1.1270 -1.2437  1.3605
 1480TIP3   OH225854   1.802   6.308   0.308  0.2242  0.4037 -0.0425
 1480TIP3    H125855   1.890   6.332   0.279  1.2472 -0.7513  1.8589
 1480TIP3    H225856   1.797   6.339   0.398 -0.7619 -0.8230  0.3548
 1481TIP3   OH225857   3.588   2.543  13.708  0.2866  0.5218 -0.2100
 1481TIP3    H125858   3.596   2.636  13.729 -0.7353  0.6932 -0.5178
 1481TIP3    H225859   3.677   2.508  13.716  0.5903  1.4145  0.4124
 1482TIP3   OH225860   6.203   3.584  15.037  0.0417 -0.0036  0.2122
 1482TIP3    H125861   6.260   3.507  15.038 -0.9551 -0.7656  1.1389
 1482TIP3    H225862   6.262   3.657  15.057  0.9611 -0.5419 -0.4482
 1483TIP3   OH225863   4.301   5.397  12.801  0.2713  0.0727  0.1594
 1483TIP3    H125864   4.265   5.350  12.876  0.7228  0.8821  0.9054
 1483TIP3    H225865   4.274   5.488  12.814  0.8521  0.3274 -0.3398
 1484TIP3   OH225866   0.098   4.348  16.693 -0.5988 -0.0509 -0.3034
 1484TIP3    H125867   0.118   4.359  16.601  3.1638 -0.2378  0.3539
 1484TIP3    H225868   0.002   4.349  16.697 -0.9040 -0.3599 -4.1840
 1485TIP3   OH225869   4.821   6.673  16.200 -0.3695  0.7504 -0.2096
 1485TIP3    H125870   4.916   6.670  16.213 -0.0459  3.0411 -1.4483
 1485TIP3    H225871   4.798   6.585  16.170  1.5639  0.4848 -1.0647
 1486TIP3   OH225872   2.642   6.154  15.057  0.1567 -0.5779 -0.1789
 1486TIP3    H125873   2.733   6.170  15.033 -0.2591  0.6996 -1.0684
 1486TIP3    H225874   2.646   6.113  15.143  1.5592 -0.0856  0.0158
 1487TIP3   OH225875   2.309   5.483   0.553  0.2818  0.1086 -0.1523
 1487TIP3    H125876   2.397   5.489   0.590  0.4286  2.2674 -0.7314
 1487TIP3    H225877   2.298   5.390   0.533  1.0055 -0.8508  3.2278
 1488TIP3   OH225878   3.939   6.398  14.935  0.1566  0.8268 -0.0330
 1488TIP3    H125879   3.985   6.482  14.933  0.0387  0.9068  0.4940
 1488TIP3    H225880   3.984   6.348  15.003 -1.2377  1.3205  1.3093
 1489TIP3   OH225881   1.205   3.690  13.599  0.0781  0.2242  0.6057
 1489TIP3    H125882   1.215   3.756  13.531  1.9610  0.8131  1.3839
 1489TIP3    H225883   1.116   3.701  13.631 -0.4266  0.7648 -0.8920
 1490TIP3   OH225884   0.573   3.163   2.209 -0.3088  0.3105 -0.1024
 1490TIP3    H125885   0.629   3.089   2.232  0.4772  1.3383  1.5315
 1490TIP3    H225886   0.505   3.164   2.276  0.1124  1.4571  0.3506
 1491TIP3   OH225887   1.870   1.468  14.161  0.6533  0.0892  0.1876
 1491TIP3    H125888   1.916   1.404  14.107  1.5808  0.9157 -0.0226
 1491TIP3    H225889   1.807   1.416  14.211 -1.8409 -0.5081 -3.2329
 1492TIP3   OH225890   2.210   1.299   3.900 -0.9218  0.1706 -0.3597
 1492TIP3    H125891   2.147   1.353   3.946 -1.3979 -0.0832 -0.6984
 1492TIP3    H225892   2.241   1.236   3.965 -1.7548 -0.3297 -0.4318
 1493TIP3   OH225893   5.619   3.101   0.393 -0.0511 -0.7159  0.2822
 1493TIP3    H125894   5.584   3.033   0.336  0.9397  0.0493 -1.2882
 1493TIP3    H225895   5.572   3.089   0.476 -1.1564 -2.1741 -0.5145
 1494TIP3   OH225896   2.530   1.927   5.411 -0.5200 -0.4540  0.5184
 1494TIP3    H125897   2.435   1.936   5.421 -0.3945  3.6294 -0.3792
 1494TIP3    H225898   2.564   1.923   5.501 -1.4311 -1.6056  0.8451
 1495TIP3   OH225899   6.396   3.685   1.564 -0.3398 -0.3314 -0.0445
 1495TIP3    H125900   6.466   3.693   1.629 -2.4566 -1.5589  2.6006
 1495TIP3    H225901   6.394   3.592   1.542 -2.5675 -0.8593  1.8699
 1496TIP3   OH225902   3.033   6.656   3.937  0.5301 -0.0670  0.2387
 1496TIP3    H125903   2.975   6.580   3.937  1.0130 -0.5912 -3.2220
 1496TIP3    H225904   2.974   6.730   3.922  0.1892  0.2065  2.5528
 1497TIP3   OH225905   2.800   3.155   3.115 -0.5261  0.4005 -0.0248
 1497TIP3    H125906   2.817   3.156   3.209 -0.7654 -0.5371  0.0355
 1497TIP3    H225907   2.788   3.247   3.092 -1.6316  0.5683  1.0816
 1498TIP3   OH225908   6.669   1.290   5.461 -0.1050 -0.9118 -0.4822
 1498TIP3    H125909   6.649   1.384   5.465  1.9449 -0.4608  1.7156
 1498TIP3    H225910   6.596   1.248   5.507 -0.3960 -0.2506 -0.3226
 1499TIP3   OH225911   1.333   5.441   0.543 -0.6055  0.3437 -0.1607
 1499TIP3    H125912   1.370   5.380   0.479 -2.0342 -0.6245 -0.1382
 1499TIP3    H225913   1.373   5.525   0.523  1.3518 -0.5719 -0.2760
 1500TIP3   OH225914   4.589   5.244   1.312 -0.3560 -0.2498  0.0016
 1500TIP3    H125915   4.684   5.259   1.318 -0.3267  0.1579 -1.1690
 1500TIP3    H225916   4.575   5.220   1.220 -1.3906 -0.3102  0.1658
 1501TIP3   OH225917   1.965   4.225  13.375  0.1283 -0.0258  0.0636
 1501TIP3    H125918   1.966   4.148  13.318  1.7419 -0.7708  1.0306
 1501TIP3    H225919   2.006   4.294  13.323 -2.2249  0.5282 -1.1769
 1502TIP3   OH225920   2.300   5.966   0.230 -0.2126  0.3170  0.8192
 1502TIP3    H125921   2.240   6.006   0.293 -0.6164  0.4975  0.3273
 1502TIP3    H225922   2.279   6.009   0.147  1.5939  1.4762  0.8975
 1503TIP3   OH225923   5.234   3.734   0.537  0.1238  0.0477 -0.3401
 1503TIP3    H125924   5.291   3.811   0.528 -1.1206  0.9942 -0.3562
 1503TIP3    H225925   5.269   3.671   0.474  2.0274  0.0298  0.6562
 1504TIP3   OH225926   4.722   1.449  15.622  0.4164  0.0868  0.1332
 1504TIP3    H125927   4.764   1.366  15.602  0.1341 -0.3799  1.3971
 1504TIP3    H225928   4.758   1.510  15.557 -0.0072 -1.1805 -1.3442
 1505TIP3   OH225929   0.745   4.836  12.693 -0.2383 -0.1880 -0.2321
 1505TIP3    H125930   0.815   4.791  12.646  1.6681 -0.3313  2.5106
 1505TIP3    H225931   0.751   4.927  12.664  2.0849  0.0945  0.9180
 1506TIP3   OH225932   2.482   4.427   4.451  0.1201  0.3372  0.3213
 1506TIP3    H125933   2.521   4.451   4.535 -0.0111 -0.8508  0.7382
 1506TIP3    H225934   2.508   4.336   4.437 -0.3001  0.3538 -0.6690
 1507TIP3   OH225935   0.666   2.239  16.332  0.1792 -0.4457 -0.3403
 1507TIP3    H125936   0.709   2.307  16.281 -0.0844 -0.5609 -0.7228
 1507TIP3    H225937   0.659   2.165  16.272  0.5242 -0.8365  0.0920
 1508TIP3   OH225938   4.037   1.347  11.060 -0.1356 -0.0931 -0.1768
 1508TIP3    H125939   4.040   1.442  11.069  2.3308  0.1408 -2.4590
 1508TIP3    H225940   3.967   1.331  10.996  0.9711  0.4315 -1.5708
 1509TIP3   OH225941   4.921   6.572  14.250  0.3364 -0.3154 -0.2104
 1509TIP3    H125942   4.853   6.540  14.310  0.4788 -0.6563 -0.2300
 1509TIP3    H225943   4.891   6.659  14.225 -1.0014 -1.1065 -1.5803
 1510TIP3   OH225944   1.895   1.895  16.067 -0.1827 -0.4645  0.1023
 1510TIP3    H125945   1.987   1.869  16.075 -0.5385 -1.7808  0.2349
 1510TIP3    H225946   1.867   1.857  15.983 -0.5133  0.2444 -0.1150
 1511TIP3   OH225947   2.348   3.561   5.117  0.0216  0.4858  0.3945
 1511TIP3    H125948   2.301   3.540   5.197 -0.7553  0.9680  0.0819
 1511TIP3    H225949   2.429   3.602   5.146 -0.6018  1.3644  0.9294
 1512TIP3   OH225950   5.248   1.838   3.762  0.3008  0.4889  0.6706
 1512TIP3    H125951   5.321   1.884   3.719 -0.6238  1.5372  0.1674
 1512TIP3    H225952   5.170   1.881   3.727 -0.6369 -1.6639 -0.0489
 1513TIP3   OH225953   3.954   6.191   5.477  0.1294 -0.1446 -0.1861
 1513TIP3    H125954   3.904   6.255   5.528 -2.6712 -1.2914 -1.2413
 1513TIP3    H225955   3.988   6.240   5.403 -2.0717  0.2398 -1.0418
 1514TIP3   OH225956   1.520   1.379  16.989 -0.0359 -0.6042 -0.0805
 1514TIP3    H125957   1.489   1.295  16.956  0.7081 -0.5783 -0.8786
 1514TIP3    H225958   1.603   1.359  17.032  0.3501 -0.2322 -0.6307
 1515TIP3   OH225959   0.517   5.136   3.272 -0.2753 -0.4060 -0.8662
 1515TIP3    H125960   0.530   5.170   3.361 -0.1036  0.2496 -1.1342
 1515TIP3    H225961   0.494   5.044   3.285 -0.8927 -0.1611 -0.1104
 1516TIP3   OH225962   6.050   3.894   1.716  0.4141  0.1873  0.1859
 1516TIP3    H125963   5.960   3.916   1.740  0.4666  1.6329 -0.7863
 1516TIP3    H225964   6.052   3.902   1.620  1.3909 -0.5394  0.1309
 1517TIP3   OH225965   1.817   2.545   2.750 -0.5180  0.4176  0.3220
 1517TIP3    H125966   1.850   2.631   2.775 -0.6745  0.6812 -0.3623
 1517TIP3    H225967   1.799   2.501   2.834  0.1539  0.8116  0.6829
 1518TIP3   OH225968   4.661   6.186   1.842  0.0583  0.2935 -0.0640
 1518TIP3    H125969   4.749   6.150   1.828  0.2700 -0.2888  2.4247
 1518TIP3    H225970   4.674   6.255   1.907 -1.7534 -2.4646  3.5213
 1519TIP3   OH225971   2.731   3.697  15.576  0.1257  0.1971 -0.0421
 1519TIP3    H125972   2.810   3.744  15.602 -0.4525  2.0047 -1.3540
 1519TIP3    H225973   2.758   3.648  15.498  0.5938 -1.3128  1.0297
 1520TIP3   OH225974   2.597   6.760  15.126  0.6445  0.0578  0.3185
 1520TIP3    H125975   2.605   6.735  15.034 -2.4145  0.8346 -0.2664
 1520TIP3    H225976   2.589   6.855  15.124  1.7812  0.2144  1.5674
 1521TIP3   OH225977   2.964   2.040  16.100 -0.1931 -0.2701  0.1522
 1521TIP3    H125978   2.973   1.946  16.088  2.5481  0.0241 -0.7400
 1521TIP3    H225979   2.912   2.069  16.025  2.8092 -0.5901 -2.2238
 1522TIP3   OH225980   5.310   2.786  15.832 -0.1831 -0.5370  0.0207
 1522TIP3    H125981   5.303   2.804  15.739  0.3240  0.9077  0.2376
 1522TIP3    H225982   5.302   2.690  15.839  2.4940 -1.0000 -1.7656
 1523TIP3   OH225983   4.194   1.982  13.016 -0.7122 -0.3484  0.7385
 1523TIP3    H125984   4.250   1.904  13.011  0.8345  0.7795 -0.7101
 1523TIP3    H225985   4.115   1.952  13.061 -0.3007 -2.8176 -0.0295
 1524TIP3   OH225986   4.123   0.242  12.247 -0.2490 -0.0567 -0.0865
 1524TIP3    H125987   4.160   0.242  12.335 -0.8926 -0.3585  0.1922
 1524TIP3    H225988   4.099   0.333  12.231  0.5250  0.1276 -0.2401
 1525TIP3   OH225989   4.238   4.434  14.149 -0.0718  0.3178  0.2506
 1525TIP3    H125990   4.199   4.503  14.095 -2.9385 -1.1268  0.2590
 1525TIP3    H225991   4.269   4.479  14.228  0.5510  1.9018 -0.8556
 1526TIP3   OH225992   2.560   4.053  11.626 -0.0657  0.1779  0.0557
 1526TIP3    H125993   2.606   3.972  11.603 -2.3831 -0.7433 -1.7710
 1526TIP3    H225994   2.489   4.059  11.562 -1.7982  2.1000  2.0036
 1527TIP3   OH225995   0.571   1.019   4.453 -0.2949 -0.1486 -0.1057
 1527TIP3    H125996   0.553   1.111   4.433  0.9625  0.3507  0.8832
 1527TIP3    H225997   0.568   0.975   4.368  1.3166  1.2358 -0.9510
 1528TIP3   OH225998   4.714   5.569  13.957  0.0717  0.1637 -0.0973
 1528TIP3    H125999   4.670   5.535  14.035  2.1622 -0.2044  1.0258
 1528TIP3    H226000   4.782   5.504  13.938 -0.1102  0.4680 -1.9939
 1529TIP3   OH226001   3.522   6.644   2.739 -0.3071 -0.2842  0.7577
 1529TIP3    H126002   3.535   6.733   2.707 -1.9035  0.1278  1.1511
 1529TIP3    H226003   3.497   6.655   2.831 -0.1236 -1.1699  0.9221
 1530TIP3   OH226004   6.632   5.784  10.422  0.5726  0.4001  0.7221
 1530TIP3    H126005   6.669   5.850  10.362  0.0136  0.3333  0.2965
 1530TIP3    H226006   6.543   5.815  10.439  0.2816 -0.2781  0.4615
 1531TIP3   OH226007   2.837   2.290  16.856 -0.1672  0.0032 -0.0789
 1531TIP3    H126008   2.765   2.311  16.796 -0.4202  0.3642  0.3367
 1531TIP3    H226009   2.905   2.354  16.837  0.4979 -1.0137 -1.2178
 1532TIP3   OH226010   0.684   6.503  15.512 -0.6751  1.3671  0.1736
 1532TIP3    H126011   0.693   6.424  15.567  1.6748  0.7118 -0.9882
 1532TIP3    H226012   0.612   6.551  15.551 -1.2021 -0.6239  1.8682
 1533TIP3   OH226013   0.452   6.005  11.137 -0.1002  0.0213  0.1839
 1533TIP3    H126014   0.516   5.992  11.208  1.2485  0.3264 -0.9330
 1533TIP3    H226015   0.493   6.071  11.080 -2.5798  2.2550  0.7820
 1534TIP3   OH226016   1.240   5.502   6.231 -0.0921 -0.1276  1.0098
 1534TIP3    H126017   1.221   5.411   6.209 -0.8855  0.0744  0.8238
 1534TIP3    H226018   1.169   5.552   6.190 -0.3767  0.4545  2.1740
 1535TIP3   OH226019   6.751   5.038  12.880 -0.2394 -0.0278  0.2642
 1535TIP3    H126020   6.792   5.016  12.964 -2.1468  0.0300  1.2662
 1535TIP3    H226021   6.693   4.964  12.862 -0.9044  0.6202 -0.2830
 1536TIP3   OH226022   5.549   3.940  14.413 -0.2013 -0.4572 -0.1475
 1536TIP3    H126023   5.489   4.005  14.450  0.8266  1.1911 -1.2124
 1536TIP3    H226024   5.525   3.858  14.455 -2.3913  0.3683  0.3351
 1537TIP3   OH226025   6.218   6.454   2.803 -0.3505 -0.0004 -0.4598
 1537TIP3    H126026   6.244   6.456   2.896 -0.6447  2.3785 -0.3571
 1537TIP3    H226027   6.132   6.496   2.802 -0.7334 -0.7717 -1.7334
 1538TIP3   OH226028   2.064   2.547  13.632  0.2055 -0.2481 -0.1562
 1538TIP3    H126029   2.114   2.627  13.615 -0.4227  0.0114 -0.8486
 1538TIP3    H226030   1.987   2.555  13.576  0.0535 -1.2631 -0.1052
 1539TIP3   OH226031   2.637   3.724  12.733  0.5706 -0.8067 -0.3201
 1539TIP3    H126032   2.673   3.748  12.819  0.8665 -2.1799 -0.0326
 1539TIP3    H226033   2.670   3.635  12.718 -0.6762 -1.1435 -1.1851
 1540TIP3   OH226034   6.384   2.256   1.723 -0.3102  0.1838  0.0001
 1540TIP3    H126035   6.445   2.273   1.795 -0.8004  0.1579  0.4301
 1540TIP3    H226036   6.404   2.166   1.696  0.5783  0.5512 -0.5998
 1541TIP3   OH226037   4.995   6.678  13.558  0.0037 -0.0893 -0.4000
 1541TIP3    H126038   5.033   6.766  13.548  3.3947 -1.3916 -0.2139
 1541TIP3    H226039   5.012   6.655  13.650 -0.2280 -1.2039 -0.6272
 1542TIP3   OH226040   2.911   1.793   3.220  0.8352  0.3996  0.4052
 1542TIP3    H126041   2.820   1.774   3.195  0.2199  0.8101  2.2063
 1542TIP3    H226042   2.944   1.848   3.149 -0.1842 -0.0703 -0.4683
 1543TIP3   OH226043   3.668   0.624  16.555 -0.6214  0.2449  0.2938
 1543TIP3    H126044   3.684   0.529  16.560 -0.3150  0.3440  1.3715
 1543TIP3    H226045   3.573   0.633  16.563 -0.7189 -0.0006 -0.4751
 1544TIP3   OH226046   6.502   6.573  12.949 -0.5396 -0.3405  0.1516
 1544TIP3    H126047   6.532   6.513  12.881  0.0435 -1.1653  1.1123
 1544TIP3    H226048   6.564   6.560  13.022  0.6394  2.5827 -0.1789
 1545TIP3   OH226049   4.832   2.008   5.846 -0.0284  0.3271  0.4164
 1545TIP3    H126050   4.809   2.031   5.936 -0.6456  0.6042  0.1922
 1545TIP3    H226051   4.927   1.997   5.848 -0.1833 -1.0952  1.4259
 1546TIP3   OH226052   3.685   5.502  11.211 -0.0457  0.2967  0.3100
 1546TIP3    H126053   3.639   5.499  11.294  1.6386  2.3390  1.3986
 1546TIP3    H226054   3.643   5.574  11.163  0.3830  0.5592  0.3187
 1547TIP3   OH226055   1.370   5.054   1.181 -0.0492  0.5042 -1.0837
 1547TIP3    H126056   1.456   5.037   1.142  0.9307 -0.3213  1.2106
 1547TIP3    H226057   1.308   5.009   1.123  1.3308 -0.8712 -1.5725
 1548TIP3   OH226058   5.202   6.271  13.819  0.8603  0.4417 -1.1008
 1548TIP3    H126059   5.198   6.292  13.726 -0.0548 -2.3309 -1.7700
 1548TIP3    H226060   5.296   6.275  13.840  1.1884  0.0734 -2.4172
 1549TIP3   OH226061   0.495   5.551   3.989  0.1979 -0.1673  0.4223
 1549TIP3    H126062   0.576   5.576   4.033  0.8965 -2.7499  0.7889
 1549TIP3    H226063   0.433   5.536   4.060  0.0595 -0.2701  0.2812
 1550TIP3   OH226064   6.232   3.538   2.788  0.0178 -0.0333 -0.6781
 1550TIP3    H126065   6.219   3.487   2.868  0.3784  1.6619  0.5193
 1550TIP3    H226066   6.147   3.579   2.772  0.8152  2.4785  0.9673
 1551TIP3   OH226067   6.197   1.714  13.602  0.0813  0.2279 -0.4167
 1551TIP3    H126068   6.125   1.677  13.654 -0.0550 -0.4743 -1.0857
 1551TIP3    H226069   6.174   1.806  13.590 -0.6115  0.0544 -0.4488
 1552TIP3   OH226070   1.029   1.972  16.255 -0.3055 -0.2144 -0.1780
 1552TIP3    H126071   1.093   1.924  16.203 -1.1981 -0.5716 -0.9756
 1552TIP3    H226072   0.947   1.961  16.208 -1.5548 -2.1160  2.2784
 1553TIP3   OH226073   3.208   2.556   5.145  0.4174  0.1559  0.0467
 1553TIP3    H126074   3.178   2.468   5.168 -1.4289  0.5375 -0.7624
 1553TIP3    H226075   3.189   2.609   5.222 -1.8156  0.5498 -0.7143
 1554TIP3   OH226076   3.414   0.847   5.229 -0.2516 -0.0840 -0.1243
 1554TIP3    H126077   3.487   0.906   5.245 -0.8754  0.7601 -0.3134
 1554TIP3    H226078   3.434   0.805   5.146  0.6211 -0.8079  0.4392
 1555TIP3   OH226079   2.990   0.937  13.610 -0.1033 -0.3255 -0.6793
 1555TIP3    H126080   3.071   0.975  13.643 -0.3113  1.8724 -2.4535
 1555TIP3    H226081   3.018   0.866  13.552  0.6133  0.6894 -1.6147
 1556TIP3   OH226082   2.014   1.457   4.735  0.6850  0.1154 -0.3416
 1556TIP3    H126083   2.083   1.452   4.669  0.6229  0.6909 -0.4510
 1556TIP3    H226084   1.934   1.475   4.685  0.1193 -2.2765 -0.4192
 1557TIP3   OH226085   6.016   1.418  13.600  0.7243  0.3859 -0.4570
 1557TIP3    H126086   6.022   1.343  13.541  0.9753  0.1716 -0.1614
 1557TIP3    H226087   6.092   1.409  13.658 -0.5819 -0.4805  1.1686
 1558TIP3   OH226088   0.467   0.339  16.019  0.3262  0.3270  0.5165
 1558TIP3    H126089   0.489   0.426  15.986 -0.3989  0.4210  0.2525
 1558TIP3    H226090   0.503   0.279  15.953  1.1166  0.4109  0.8705
 1559TIP3   OH226091   5.966   4.890  13.010 -0.2783  0.3015  0.3792
 1559TIP3    H126092   6.046   4.935  13.036 -0.7028  1.0455  0.4289
 1559TIP3    H226093   5.963   4.811  13.064  0.8149 -0.1411 -0.1818
 1560TIP3   OH226094   4.219   6.790   1.243 -0.4077  0.1054 -0.1091
 1560TIP3    H126095   4.306   6.827   1.253  0.3007 -1.4254 -0.2675
 1560TIP3    H226096   4.186   6.782   1.333 -0.5521  1.0335 -0.0731
 1561TIP3   OH226097   3.178   1.872   2.269  0.2234  0.4573 -0.3035
 1561TIP3    H126098   3.095   1.847   2.228 -0.8180  2.5501  0.3746
 1561TIP3    H226099   3.169   1.843   2.360 -1.1952  3.4209  0.6161
 1562TIP3   OH226100   5.344   3.311   3.768 -0.2398 -0.6362 -0.1649
 1562TIP3    H126101   5.250   3.305   3.784 -0.9283  0.9975 -2.8971
 1562TIP3    H226102   5.383   3.311   3.855 -2.8137 -0.6492  1.0867
 1563TIP3   OH226103   0.911   0.208  15.548  0.0083 -0.0175 -0.2480
 1563TIP3    H126104   0.854   0.134  15.569 -1.1966  1.5314  2.4784
 1563TIP3    H226105   0.858   0.265  15.493 -0.8406  0.9222  1.4370
 1564TIP3   OH226106   0.907   1.671  13.114  0.0179 -0.1485 -0.1840
 1564TIP3    H126107   0.831   1.700  13.165 -0.1389 -0.1773 -0.3985
 1564TIP3    H226108   0.889   1.702  13.025  1.4084  2.0263  0.2217
 1565TIP3   OH226109   3.360   2.397  11.984 -0.3910  0.4239  0.4256
 1565TIP3    H126110   3.330   2.479  11.945 -2.1046 -0.1287  0.5217
 1565TIP3    H226111   3.399   2.349  11.910 -0.7605  0.6865  0.0561
 1566TIP3   OH226112   4.344   2.623   2.212  0.5569 -0.5883  0.1444
 1566TIP3    H126113   4.265   2.652   2.166  1.2702  1.8855  0.3530
 1566TIP3    H226114   4.400   2.587   2.143  0.0731 -0.4625 -0.3201
 1567TIP3   OH226115   5.443   4.517  14.726 -0.9345  0.2265  0.1206
 1567TIP3    H126116   5.490   4.559  14.798  0.4311  0.7590 -1.0362
 1567TIP3    H226117   5.353   4.512  14.757 -0.9422  2.8939  0.8492
 1568TIP3   OH226118   6.385   0.323   5.026 -0.1174  0.0092 -0.5962
 1568TIP3    H126119   6.420   0.409   5.005 -0.3326 -0.1241 -1.5437
 1568TIP3    H226120   6.292   0.338   5.041 -0.3084 -0.1618 -1.5321
 1569TIP3   OH226121   5.451   5.213  15.176  0.1694  0.3223  0.0204
 1569TIP3    H126122   5.459   5.273  15.102  1.0847 -2.2728 -2.1777
 1569TIP3    H226123   5.364   5.174  15.166 -0.4816  1.3296  1.5143
 1570TIP3   OH226124   0.532   4.356  11.950  0.5145 -0.2977  0.3556
 1570TIP3    H126125   0.627   4.347  11.942  0.4818 -0.6482  0.3488
 1570TIP3    H226126   0.515   4.354  12.044  0.5082 -0.2756  0.3556
 1571TIP3   OH226127   6.315   0.566  10.879  0.5203  0.0461  0.1441
 1571TIP3    H126128   6.380   0.604  10.820  1.1583 -0.5560  0.4470
 1571TIP3    H226129   6.312   0.627  10.953 -0.5917  1.0300 -0.6696
 1572TIP3   OH226130   2.732   4.672  11.314 -0.1636 -0.0496 -0.2375
 1572TIP3    H126131   2.811   4.675  11.261 -1.4561  1.7135 -2.2171
 1572TIP3    H226132   2.738   4.750  11.370 -1.2523  1.1357 -1.6791
 1573TIP3   OH226133   5.234   1.395  17.133 -0.2444  0.3449  0.2000
 1573TIP3    H126134   5.324   1.429  17.132  0.4157 -1.2860 -0.9236
 1573TIP3    H226135   5.193   1.432  17.055 -0.8138  1.6737  1.1024
 1574TIP3   OH226136   1.898   5.512   3.920 -0.3264 -0.1085  0.3450
 1574TIP3    H126137   1.900   5.419   3.942 -1.0436  0.2672  2.1660
 1574TIP3    H226138   1.959   5.521   3.848 -0.6896 -2.0903 -0.2722
 1575TIP3   OH226139   3.167   6.477   2.981 -1.0258 -0.4289  0.2659
 1575TIP3    H126140   3.243   6.508   3.031 -0.2297  0.7960 -1.5988
 1575TIP3    H226141   3.108   6.552   2.979  0.0035  0.4470 -2.5365
 1576TIP3   OH226142   1.535   2.565  14.692 -0.5545 -0.5235  0.0524
 1576TIP3    H126143   1.569   2.585  14.605 -0.4900 -1.4927 -0.1556
 1576TIP3    H226144   1.448   2.605  14.693 -0.1022  0.4815 -0.0330
 1577TIP3   OH226145   4.819   2.615   6.144  0.2997  0.8069  0.0002
 1577TIP3    H126146   4.836   2.599   6.237  2.0979 -0.9888 -0.5586
 1577TIP3    H226147   4.904   2.642   6.108 -0.1664  0.6529 -1.2800
 1578TIP3   OH226148   6.163   2.821   5.603  0.0692 -0.0896  0.4743
 1578TIP3    H126149   6.241   2.778   5.568  0.6375  1.0617  0.3059
 1578TIP3    H226150   6.191   2.859   5.685 -0.2680  0.4932  0.3237
 1579TIP3   OH226151   1.761   3.581   4.826  0.1588  0.8529  0.1386
 1579TIP3    H126152   1.856   3.567   4.824  0.3430  2.0687 -0.4041
 1579TIP3    H226153   1.735   3.553   4.914  0.8017 -0.7187 -0.1298
 1580TIP3   OH226154   1.005   0.800   4.557 -0.4220  0.2477 -0.0194
 1580TIP3    H126155   1.063   0.846   4.619  0.7708 -0.6198 -0.4356
 1580TIP3    H226156   0.953   0.742   4.613  1.3852 -1.3093  0.1627
 1581TIP3   OH226157   0.206   6.230   2.506 -1.0122 -0.1556  0.2604
 1581TIP3    H126158   0.123   6.275   2.526  0.0843  1.0182  2.5680
 1581TIP3    H226159   0.269   6.300   2.494 -0.2228 -1.0502 -1.0713
 1582TIP3   OH226160   4.477   5.385  12.587 -0.3842 -0.5835 -0.1563
 1582TIP3    H126161   4.400   5.390  12.643 -0.0865 -0.5133  0.2494
 1582TIP3    H226162   4.466   5.302  12.539 -0.7775 -0.5046 -0.2061
 1583TIP3   OH226163   2.870   2.356  11.720 -0.3028  0.1864  0.7174
 1583TIP3    H126164   2.873   2.364  11.625  0.6034  3.5123  0.8942
 1583TIP3    H226165   2.924   2.280  11.740  0.6125  0.2255 -1.3884
 1584TIP3   OH226166   4.803   3.649   2.534  0.2068  0.5760 -0.6455
 1584TIP3    H126167   4.781   3.556   2.538  2.0866  0.0310 -1.7516
 1584TIP3    H226168   4.736   3.687   2.477  0.2539 -0.3684 -1.3414
 1585TIP3   OH226169   1.992   2.914   1.662  0.1490  0.3363  0.6312
 1585TIP3    H126170   1.984   2.927   1.568 -2.8055  1.2766  0.8851
 1585TIP3    H226171   1.921   2.854   1.684  0.4226  0.5612  2.3155
 1586TIP3   OH226172   0.649   1.974  14.455 -0.4070  0.7185  0.5395
 1586TIP3    H126173   0.582   1.923  14.501 -0.8401 -0.9661 -1.7802
 1586TIP3    H226174   0.653   1.935  14.367  2.7289  1.5499  0.1755
 1587TIP3   OH226175   3.037   5.598  11.478  0.1432  0.8620 -0.6180
 1587TIP3    H126176   3.092   5.659  11.528  1.1849 -0.2310 -0.3754
 1587TIP3    H226177   2.976   5.562  11.543 -0.8104  1.9913 -0.8630
 1588TIP3   OH226178   5.922   2.356   4.414  0.5389  0.3839  0.2446
 1588TIP3    H126179   5.916   2.343   4.509 -1.5552  1.5177  0.3354
 1588TIP3    H226180   5.831   2.360   4.385  1.1361  0.6793 -1.7476
 1589TIP3   OH226181   0.881   1.579   0.773 -0.1034  0.8120  0.7332
 1589TIP3    H126182   0.845   1.659   0.810 -0.7641  0.5077  0.7485
 1589TIP3    H226183   0.871   1.514   0.842 -1.1119  0.3063  0.1188
 1590TIP3   OH226184   3.129   3.681   1.449  0.5801  0.6030 -0.5654
 1590TIP3    H126185   3.123   3.720   1.537  0.2588  0.7744 -0.6610
 1590TIP3    H226186   3.172   3.597   1.463  1.7543  1.1973 -0.4127
 1591TIP3   OH226187   4.212   5.626  11.336 -0.4784 -0.2780  0.0509
 1591TIP3    H126188   4.288   5.582  11.374 -0.7282  0.9209  2.0711
 1591TIP3    H226189   4.247   5.707  11.298 -0.3651 -1.0429 -1.5182
 1592TIP3   OH226190   5.552   5.524   2.780 -0.2368 -0.2430  0.5233
 1592TIP3    H126191   5.577   5.441   2.821 -1.1140 -1.9930 -2.1876
 1592TIP3    H226192   5.459   5.532   2.799 -0.6337 -1.0299 -0.8736
 1593TIP3   OH226193   0.134   6.516   3.114  0.1509 -0.3643  0.0206
 1593TIP3    H126194   0.227   6.493   3.101  0.6190  0.9793  0.8227
 1593TIP3    H226195   0.095   6.506   3.028  0.3870 -3.6452  0.1561
 1594TIP3   OH226196   6.165   5.062   0.432 -0.1245  0.5399  0.2118
 1594TIP3    H126197   6.231   5.118   0.473  0.1233 -0.1702  0.8082
 1594TIP3    H226198   6.204   5.036   0.349  0.8880 -0.8480  1.0835
 1595TIP3   OH226199   5.706   4.270  12.267 -0.1723  0.5886  0.0486
 1595TIP3    H126200   5.758   4.197  12.302  2.1771  1.3758 -1.5505
 1595TIP3    H226201   5.724   4.269  12.173 -1.6863  2.0249 -0.2993
 1596TIP3   OH226202   1.430   3.918   0.973  0.2825  0.0500 -0.0604
 1596TIP3    H126203   1.433   4.010   0.944 -1.1507  0.5298  1.1654
 1596TIP3    H226204   1.520   3.889   0.968  0.8067  1.5988 -0.3072
 1597TIP3   OH226205   0.396   4.280  14.615 -0.0921 -0.2843  0.3378
 1597TIP3    H126206   0.445   4.340  14.671  1.3584 -1.5161  0.4479
 1597TIP3    H226207   0.463   4.232  14.567 -1.2848 -0.0445 -1.6564
 1598TIP3   OH226208   2.783   0.362   4.000 -0.2098  0.2904  0.1149
 1598TIP3    H126209   2.877   0.377   3.999  0.3068 -1.8504 -3.5436
 1598TIP3    H226210   2.758   0.361   3.907 -3.5199 -0.9027  0.8748
 1599TIP3   OH226211   1.425   1.044  12.988  0.0089 -0.1514 -0.1601
 1599TIP3    H126212   1.465   1.092  12.916 -0.0884  0.0964 -0.0492
 1599TIP3    H226213   1.335   1.076  12.991 -0.4164 -1.2239 -0.8784
 1600TIP3   OH226214   4.410   1.281  13.347 -0.5604 -0.4325  0.7672
 1600TIP3    H126215   4.472   1.222  13.306  1.3082  2.5146 -1.0601
 1600TIP3    H226216   4.328   1.232  13.351  0.8866 -3.1126 -0.4192
 1601TIP3   OH226217   6.774   2.127  14.033 -0.1445 -0.6448 -0.3193
 1601TIP3    H126218   6.821   2.101  14.113 -0.4055  0.3468  0.1691
 1601TIP3    H226219   6.844   2.154  13.973  0.0921 -1.8998 -0.6418
 1602TIP3   OH226220   2.112   2.454  11.865  0.3637 -0.2463 -0.7134
 1602TIP3    H126221   2.072   2.381  11.912  0.6534 -0.1872 -0.3634
 1602TIP3    H226222   2.041   2.493  11.814 -0.2160  0.3403  0.4979
 1603TIP3   OH226223   3.205   5.749  11.665 -0.1219 -0.2566  0.3698
 1603TIP3    H126224   3.224   5.727  11.756  2.1237 -0.8852 -0.1665
 1603TIP3    H226225   3.292   5.755  11.624 -1.0391 -2.7767 -2.3494
 1604TIP3   OH226226   0.293   2.588  16.212 -0.6927 -0.3101  0.1536
 1604TIP3    H126227   0.297   2.645  16.288  1.9732 -1.5732  1.0937
 1604TIP3    H226228   0.345   2.632  16.145 -0.8468 -0.4208 -0.0440
 1605TIP3   OH226229   3.863   2.835   2.777 -0.2460 -0.4085  0.2827
 1605TIP3    H126230   3.847   2.842   2.683 -0.5771  1.7848  0.4485
 1605TIP3    H226231   3.917   2.911   2.798 -0.1916 -0.8514  1.8939
 1606TIP3   OH226232   0.129   5.775  13.490  0.0117  0.9165  0.3480
 1606TIP3    H126233   0.051   5.740  13.534  0.3068 -1.9029 -1.1165
 1606TIP3    H226234   0.094   5.826  13.417 -0.4841  0.8109  0.5024
 1607TIP3   OH226235   3.839   0.931  11.016  0.9351 -0.1417 -0.5083
 1607TIP3    H126236   3.772   0.997  11.033  0.1175 -1.0265 -0.2157
 1607TIP3    H226237   3.905   0.945  11.085  0.0031 -0.6196  0.5025
 1608TIP3   OH226238   3.085   2.839   5.204 -0.4319  0.1937  0.4345
 1608TIP3    H126239   3.175   2.872   5.203 -1.4838  3.4260 -0.6363
 1608TIP3    H226240   3.050   2.867   5.289 -0.8990  0.5207  0.1434
 1609TIP3   OH226241   4.588   3.325   6.241  0.0107  0.5214 -0.0857
 1609TIP3    H126242   4.526   3.395   6.218  0.4119  0.1560 -2.6233
 1609TIP3    H226243   4.538   3.245   6.226 -0.7344  0.1360  3.6531
 1610TIP3   OH226244   2.472   2.734   6.034  0.6912  0.5650  0.1392
 1610TIP3    H126245   2.506   2.752   6.122 -0.4636  0.1528  0.6822
 1610TIP3    H226246   2.489   2.641   6.020  3.2298  1.1174 -1.1631
 1611TIP3   OH226247   3.631   2.316  15.449 -0.6353  0.4542 -0.3006
 1611TIP3    H126248   3.550   2.366  15.449 -0.1835  1.2148 -0.2917
 1611TIP3    H226249   3.699   2.381  15.467 -0.1481 -0.3842  1.0954
 1612TIP3   OH226250   4.544   5.045   3.714 -0.1507 -0.1114 -0.3722
 1612TIP3    H126251   4.606   5.022   3.784  1.3525 -0.2918 -1.7118
 1612TIP3    H226252   4.464   4.997   3.737  1.2204 -2.5217 -0.2699
 1613TIP3   OH226253   6.367   4.741   3.611 -0.6687  0.2353 -0.4464
 1613TIP3    H126254   6.375   4.816   3.671 -1.6914  1.4789 -1.7811
 1613TIP3    H226255   6.410   4.669   3.657 -1.5057  1.0901  1.8399
 1614TIP3   OH226256   2.496   4.263  13.638 -0.0602 -0.0091  0.4016
 1614TIP3    H126257   2.584   4.280  13.670  0.1859  0.3763 -0.4457
 1614TIP3    H226258   2.479   4.333  13.575 -0.6024 -0.6208 -0.1489
 1615TIP3   OH226259   5.184   4.872   5.085  0.7759 -0.3202 -0.1640
 1615TIP3    H126260   5.130   4.910   5.016  0.2698 -1.0894 -0.2148
 1615TIP3    H226261   5.136   4.891   5.166  0.0484 -1.5844 -0.2691
 1616TIP3   OH226262   6.153   1.219   4.923 -0.1349 -0.1258  0.3061
 1616TIP3    H126263   6.069   1.189   4.890 -0.5686  0.2260  1.0599
 1616TIP3    H226264   6.131   1.284   4.991  0.7391  0.1284  0.3667
 1617TIP3   OH226265   3.866   4.045   4.824 -0.2381  0.2394  0.2350
 1617TIP3    H126266   3.934   4.087   4.770 -0.3177 -0.2394 -0.2513
 1617TIP3    H226267   3.851   3.960   4.781 -1.9050  0.7641 -0.3001
 1618TIP3   OH226268   2.441   6.041  12.932 -0.8555  0.7327  0.0363
 1618TIP3    H126269   2.497   6.036  13.010  0.4602 -0.4010 -0.9284
 1618TIP3    H226270   2.371   5.978  12.948 -0.0877 -0.1634 -0.0455
 1619TIP3   OH226271   6.177   0.974  13.096 -0.2893 -0.4399 -0.5112
 1619TIP3    H126272   6.190   0.880  13.109  2.0018 -0.2858 -1.2977
 1619TIP3    H226273   6.083   0.983  13.083 -0.4046 -2.8451 -1.9779
 1620TIP3   OH226274   1.760   0.457   4.761  0.0587 -0.1216  0.0048
 1620TIP3    H126275   1.680   0.468   4.813  0.0425  1.6537 -0.3412
 1620TIP3    H226276   1.790   0.546   4.744  1.6057 -0.7407 -0.6811
 1621TIP3   OH226277   1.003   4.109  13.629 -0.4130 -0.1373  0.8100
 1621TIP3    H126278   0.975   4.122  13.720 -0.6675  0.7286  0.6169
 1621TIP3    H226279   1.030   4.196  13.600 -1.1063 -0.2495 -0.2112
 1622TIP3   OH226280   0.625   0.580   3.585 -0.2705 -0.1452  0.1834
 1622TIP3    H126281   0.615   0.652   3.523 -0.7925 -0.1392  0.2687
 1622TIP3    H226282   0.548   0.587   3.642 -0.0821 -0.4868  0.4856
 1623TIP3   OH226283   5.389   0.242  15.690 -0.5013 -0.4084 -0.0330
 1623TIP3    H126284   5.358   0.299  15.620  0.9152  0.4449 -0.0045
 1623TIP3    H226285   5.339   0.161  15.678 -0.2143 -0.3462 -2.1344
 1624TIP3   OH226286   4.336   4.520  12.992  0.1067  0.0109 -0.4759
 1624TIP3    H126287   4.361   4.610  12.971  0.7746 -0.4737 -1.8962
 1624TIP3    H226288   4.267   4.499  12.929 -0.0044 -0.4849 -0.1978
 1625TIP3   OH226289   0.225   2.696   2.604 -0.1908 -0.2621 -0.2152
 1625TIP3    H126290   0.204   2.785   2.574 -0.5888 -0.0161  0.7374
 1625TIP3    H226291   0.140   2.656   2.620 -0.0217 -0.9949 -1.1208
 1626TIP3   OH226292   3.895   5.326  13.620 -0.1140  0.3599 -0.0217
 1626TIP3    H126293   3.888   5.364  13.533 -1.1004  0.6347  0.1662
 1626TIP3    H226294   3.806   5.297  13.641  0.5085 -1.6825  0.0165
 1627TIP3   OH226295   0.291   3.442   5.246 -0.1166  0.6364 -0.8752
 1627TIP3    H126296   0.296   3.347   5.239 -1.4587  0.3947  0.8436
 1627TIP3    H226297   0.198   3.461   5.253  0.1832  1.9875 -0.2599
 1628TIP3   OH226298   5.632   3.097  13.005 -0.1737  0.1242  0.1839
 1628TIP3    H126299   5.538   3.100  12.985 -0.3020 -2.0735  0.2994
 1628TIP3    H226300   5.673   3.068  12.923  0.5249  1.7378 -0.0848
 1629TIP3   OH226301   2.267   6.276   0.779  0.2255 -0.1272  0.0502
 1629TIP3    H126302   2.213   6.211   0.824 -0.1365  0.3244  0.2925
 1629TIP3    H226303   2.321   6.314   0.848  0.9546 -0.6749 -0.2197
 1630TIP3   OH226304   1.942   3.219   1.612  0.1271  0.9664 -0.2848
 1630TIP3    H126305   1.985   3.173   1.684 -0.2170  1.3788  0.1857
 1630TIP3    H226306   1.863   3.169   1.595  0.1259  0.9622 -0.2672
 1631TIP3   OH226307   5.732   4.209  11.962  0.0433  0.0511 -0.1290
 1631TIP3    H126308   5.706   4.291  11.919 -1.0550  0.5671  1.4373
 1631TIP3    H226309   5.803   4.175  11.908  2.0915  3.1533  0.3830
 1632TIP3   OH226310   4.799   6.530  13.894  0.6299  0.3727  0.2915
 1632TIP3    H126311   4.891   6.554  13.883  0.8218 -0.2953  0.3858
 1632TIP3    H226312   4.798   6.477  13.974 -0.1330  1.9448  1.3851
 1633TIP3   OH226313   2.816   1.513  14.794  0.4243 -0.4022  0.0269
 1633TIP3    H126314   2.764   1.467  14.728 -0.4122  0.0435  0.3554
 1633TIP3    H226315   2.761   1.586  14.821  1.0321 -0.1940  0.7406
 1634TIP3   OH226316   2.385   5.380  14.277  0.0007  0.1976 -0.7514
 1634TIP3    H126317   2.303   5.383  14.327  0.4813  2.1476 -0.0009
 1634TIP3    H226318   2.438   5.452  14.312  1.4302 -0.0430 -2.2699
 1635TIP3   OH226319   4.441   4.177   1.397 -0.0831 -0.1382 -0.3599
 1635TIP3    H126320   4.404   4.119   1.464  0.1207  0.5865  0.3998
 1635TIP3    H226321   4.480   4.250   1.447 -1.0355  1.0671 -1.3175
 1636TIP3   OH226322   6.537   6.482  10.548  0.4129  0.5192  0.1369
 1636TIP3    H126323   6.565   6.540  10.477  0.0291 -0.2108 -0.6330
 1636TIP3    H226324   6.452   6.515  10.575  0.0567  0.1446 -0.5078
 1637TIP3   OH226325   2.024   4.894   5.463  0.5035  0.4179 -0.0292
 1637TIP3    H126326   2.041   4.811   5.419 -0.5989 -0.5704  1.2933
 1637TIP3    H226327   1.929   4.897   5.475  0.6626  1.0424  1.4395
 1638TIP3   OH226328   5.549   5.332  12.601  0.3299  0.1168  0.1732
 1638TIP3    H126329   5.627   5.300  12.555 -0.0369 -0.3212 -0.1433
 1638TIP3    H226330   5.531   5.265  12.667  0.7959  0.6946  0.9002
 1639TIP3   OH226331   4.175   2.876  15.636  0.0187  0.0684  0.4344
 1639TIP3    H126332   4.140   2.799  15.592  0.0057  0.7546 -0.7989
 1639TIP3    H226333   4.104   2.940  15.633  0.7569  0.8785 -0.5585
 1640TIP3   OH226334   2.854   2.942   1.365 -0.4928  0.2759 -0.0781
 1640TIP3    H126335   2.889   2.867   1.411 -0.4720  0.5505  0.3596
 1640TIP3    H226336   2.873   2.925   1.272  0.3133  0.1661  0.0992
 1641TIP3   OH226337   1.400   5.018   5.418 -0.2127  0.2630  0.7393
 1641TIP3    H126338   1.412   5.080   5.490 -1.2135  0.8922  0.3898
 1641TIP3    H226339   1.429   5.066   5.340 -1.0283  0.3286  0.4628
 1642TIP3   OH226340   4.444   2.019  13.713  0.0787 -0.3458  0.3088
 1642TIP3    H126341   4.393   1.939  13.698 -1.6856  0.8696 -0.5120
 1642TIP3    H226342   4.530   1.988  13.740 -0.2786 -2.5413 -0.8429
 1643TIP3   OH226343   3.554   1.511  11.962 -0.1414 -0.2743  0.0261
 1643TIP3    H126344   3.642   1.491  11.997  0.0467 -0.2160 -0.4139
 1643TIP3    H226345   3.510   1.554  12.035  1.5098  3.3674 -0.8686
 1644TIP3   OH226346   5.022   2.983   3.356  0.2745  0.0144 -0.1678
 1644TIP3    H126347   5.026   3.067   3.311  0.1118 -1.5011 -3.2889
 1644TIP3    H226348   5.038   2.918   3.288  0.5287 -2.5259  2.1147
 1645TIP3   OH226349   6.308   2.964   3.632 -0.1872 -0.1572 -0.2322
 1645TIP3    H126350   6.356   2.973   3.549  1.1681  0.3413  0.5648
 1645TIP3    H226351   6.361   2.902   3.683  0.2175  1.2241  1.0916
 1646TIP3   OH226352   5.645   3.712  12.666 -0.1707  0.6297  0.0817
 1646TIP3    H126353   5.660   3.792  12.615 -2.1045  0.8218 -0.2762
 1646TIP3    H226354   5.654   3.641  12.602  2.7481  0.3940  0.6420
 1647TIP3   OH226355   2.985   5.564   3.914 -0.7846 -0.5210 -0.6000
 1647TIP3    H126356   2.904   5.592   3.871 -0.5819 -2.1857 -2.1991
 1647TIP3    H226357   3.051   5.566   3.844  0.4688  0.3286  0.5639
 1648TIP3   OH226358   5.618   5.759   5.088  0.2475 -0.0522  0.5624
 1648TIP3    H126359   5.566   5.771   5.167  1.1197  1.1560  0.9695
 1648TIP3    H226360   5.700   5.722   5.118  1.2108  1.8825  0.4773
 1649TIP3   OH226361   1.884   4.377   3.611  0.1491  0.3379 -0.8966
 1649TIP3    H126362   1.902   4.469   3.627 -0.8033  0.2668  0.8222
 1649TIP3    H226363   1.917   4.332   3.688 -0.5609 -0.6018 -1.1215
 1650TIP3   OH226364   2.451   6.762   3.158  0.4566 -0.1801 -0.1770
 1650TIP3    H126365   2.406   6.783   3.239  0.3354 -0.3706 -0.1953
 1650TIP3    H226366   2.388   6.782   3.089  1.8012  3.7068 -0.5018
 1651TIP3   OH226367   4.200   5.144   3.198 -0.2836  0.3630  0.7810
 1651TIP3    H126368   4.226   5.114   3.284 -0.2017 -0.6121  0.4257
 1651TIP3    H226369   4.239   5.231   3.190  0.1784  0.2256  1.4986
 1652TIP3   OH226370   1.049   6.338   1.930  0.0614 -0.3300  0.2613
 1652TIP3    H126371   0.980   6.305   1.988 -0.4138  0.7676  0.3591
 1652TIP3    H226372   1.131   6.317   1.975 -0.3083  1.3398  1.8732
 1653TIP3   OH226373   0.846   1.886  15.700  0.0619  0.2140 -0.0423
 1653TIP3    H126374   0.806   1.946  15.637  0.8418  1.9444  1.0591
 1653TIP3    H226375   0.901   1.828  15.646 -1.5691 -0.2850 -1.2321
 1654TIP3   OH226376   1.046   2.285   3.433  0.3192 -0.1185  0.5003
 1654TIP3    H126377   1.078   2.195   3.432  0.0186 -0.2579 -1.6818
 1654TIP3    H226378   0.952   2.277   3.447  0.6285  0.0607  3.0152
 1655TIP3   OH226379   1.345   5.029   4.747 -0.1647 -0.0184 -0.0461
 1655TIP3    H126380   1.367   5.099   4.809 -1.3996 -0.3423  0.7930
 1655TIP3    H226381   1.405   4.958   4.769 -1.2839 -0.5175  1.5210
 1656TIP3   OH226382   2.635   3.219  12.821  0.1416  0.0939  0.0350
 1656TIP3    H126383   2.647   3.164  12.898  1.3362  1.5888  0.9715
 1656TIP3    H226384   2.541   3.238  12.820 -0.2363 -1.6328 -0.1177
 1657TIP3   OH226385   1.582   6.545   1.664 -0.1390  0.3253 -0.0795
 1657TIP3    H126386   1.517   6.602   1.704 -0.0981  1.2389 -1.2688
 1657TIP3    H226387   1.535   6.462   1.649 -0.8034  0.7257 -0.2438
 1658TIP3   OH226388   6.241   0.211   1.776 -0.7394 -0.1330  0.7124
 1658TIP3    H126389   6.172   0.209   1.842  2.1311 -3.7488  4.1185
 1658TIP3    H226390   6.301   0.279   1.805 -1.0212  0.4828 -0.1117
 1659TIP3   OH226391   1.763   0.927  11.955 -0.2704  0.2420 -0.8964
 1659TIP3    H126392   1.718   0.939  11.871 -0.1134 -0.0759 -1.0308
 1659TIP3    H226393   1.693   0.927  12.020 -0.6588 -1.7949 -1.2442
 1660TIP3   OH226394   0.690   0.476  17.070  0.4746  0.2794 -0.1837
 1660TIP3    H126395   0.690   0.528  17.150  0.4909  0.9806 -0.6288
 1660TIP3    H226396   0.610   0.503  17.024  0.3942 -0.2196 -0.3449
 1661TIP3   OH226397   5.523   0.691   0.449 -0.1424  0.4420 -0.4088
 1661TIP3    H126398   5.496   0.747   0.521 -0.5307  0.7726 -0.8052
 1661TIP3    H226399   5.520   0.603   0.484 -1.0810  0.5365 -0.2494
 1662TIP3   OH226400   3.678   5.278   2.401 -0.3054  0.6251  0.1582
 1662TIP3    H126401   3.682   5.373   2.397 -0.8596  0.6174 -1.0360
 1662TIP3    H226402   3.739   5.248   2.334 -0.4109  0.1495  0.2709
 1663TIP3   OH226403   0.542   5.038  16.784  0.5738  0.2362 -0.2404
 1663TIP3    H126404   0.460   5.060  16.829  1.3257  1.4466  0.5778
 1663TIP3    H226405   0.514   4.992  16.705 -0.8648 -0.0192  0.3781
 1664TIP3   OH226406   6.682   0.449  12.333 -0.2199 -0.8856 -0.1445
 1664TIP3    H126407   6.740   0.493  12.271  1.4945 -1.4435  1.0171
 1664TIP3    H226408   6.650   0.372  12.285 -1.7091  0.4782 -1.4982
 1665TIP3   OH226409   0.765   3.500  12.333 -0.2574  0.3090 -0.2189
 1665TIP3    H126410   0.725   3.413  12.322  0.0731 -0.0043  0.8562
 1665TIP3    H226411   0.695   3.553  12.371 -0.7915  0.8304 -1.8839
 1666TIP3   OH226412   4.298   0.705  13.063  0.4829 -0.2379 -0.1056
 1666TIP3    H126413   4.290   0.643  13.136  2.4778 -1.0074 -0.4782
 1666TIP3    H226414   4.352   0.776  13.097 -0.2656  0.4199 -0.2475
 1667TIP3   OH226415   1.030   2.672  10.466 -0.6773  0.1417 -0.3344
 1667TIP3    H126416   1.093   2.642  10.532 -1.5583  1.0331  0.9515
 1667TIP3    H226417   1.046   2.615  10.390  2.8976  1.5026 -0.7633
 1668TIP3   OH226418   2.851   3.742   1.457  0.6613 -0.5890  0.3627
 1668TIP3    H126419   2.837   3.676   1.526  1.6653 -0.3178  0.8485
 1668TIP3    H226420   2.919   3.705   1.402  2.5764  0.7503  1.6728
 1669TIP3   OH226421   3.506   3.164   0.277 -0.7896 -0.0416 -0.2746
 1669TIP3    H126422   3.574   3.129   0.219 -0.3698  1.3079 -0.6448
 1669TIP3    H226423   3.536   3.253   0.298 -2.4205  0.5814 -0.4232
 1670TIP3   OH226424   6.777   3.303   0.578 -0.2310  0.6551 -0.2397
 1670TIP3    H126425   6.765   3.345   0.663  1.5673  1.9036 -0.5181
 1670TIP3    H226426   6.858   3.253   0.587 -1.4631 -1.4775 -0.4409
 1671TIP3   OH226427   0.283   0.486   5.595  0.1031  0.3847  0.4723
 1671TIP3    H126428   0.248   0.524   5.515 -1.2901 -1.4612  0.1374
 1671TIP3    H226429   0.374   0.464   5.574 -0.5170 -0.9795 -0.9900
 1672TIP3   OH226430   6.314   0.778  11.639 -0.4846  0.1399 -0.3407
 1672TIP3    H126431   6.241   0.820  11.593  0.2615  0.9642 -0.8108
 1672TIP3    H226432   6.344   0.843  11.702  1.3649  0.7960 -1.8023
 1673TIP3   OH226433   5.212   5.740  12.400  0.0332 -0.6563 -0.6314
 1673TIP3    H126434   5.132   5.689  12.407  0.5884 -1.7315 -1.9187
 1673TIP3    H226435   5.193   5.807  12.334 -0.7296  0.9717  1.1227
 1674TIP3   OH226436   5.391   6.585  13.076  0.0500 -0.2698 -0.6666
 1674TIP3    H126437   5.412   6.525  13.005  0.2391 -1.4822  0.3687
 1674TIP3    H226438   5.366   6.666  13.033 -0.2283 -1.0940 -2.1189
 1675TIP3   OH226439   4.067   4.307   2.100 -0.2144  0.0289 -0.5452
 1675TIP3    H126440   4.047   4.382   2.156 -0.2299 -0.4642  0.1200
 1675TIP3    H226441   4.084   4.345   2.014  0.7442  0.8897  0.0034
 1676TIP3   OH226442   0.495   3.608   5.128  0.2766  0.2740 -0.0094
 1676TIP3    H126443   0.538   3.651   5.201  0.1388  1.0380 -0.3758
 1676TIP3    H226444   0.420   3.564   5.168  0.8880 -0.3388  0.4918
 1677TIP3   OH226445   5.527   0.681   2.514 -0.1629 -0.0713  0.5761
 1677TIP3    H126446   5.536   0.764   2.562 -1.1494  0.1366  0.4293
 1677TIP3    H226447   5.433   0.671   2.503  0.0455  0.1356 -1.7503
 1678TIP3   OH226448   2.568   2.545   1.250  0.3523 -0.4150 -0.1967
 1678TIP3    H126449   2.560   2.451   1.234  1.1745 -0.7304  1.1243
 1678TIP3    H226450   2.538   2.557   1.340 -2.6057  1.0613 -1.2371
 1679TIP3   OH226451   3.682   5.733   0.660 -0.2566  0.0670 -0.3142
 1679TIP3    H126452   3.600   5.691   0.636 -0.3487  0.5626 -0.9058
 1679TIP3    H226453   3.694   5.801   0.593  1.2225 -0.7527 -0.9178
 1680TIP3   OH226454   2.518   3.590   1.838  0.1770  0.5372 -0.2104
 1680TIP3    H126455   2.450   3.555   1.780 -0.0105  0.0796  0.2880
 1680TIP3    H226456   2.589   3.614   1.778 -0.4227  1.0552 -0.7445
 1681TIP3   OH226457   5.925   4.376  14.753  0.2092 -0.3351  0.6085
 1681TIP3    H126458   5.888   4.303  14.803  0.6567 -0.5555  0.6251
 1681TIP3    H226459   6.007   4.341  14.717 -0.3868 -0.3670 -0.7598
 1682TIP3   OH226460   3.259   4.850   5.907 -0.1039 -0.1061  0.1899
 1682TIP3    H126461   3.255   4.920   5.972 -1.4833  1.5717 -1.5893
 1682TIP3    H226462   3.228   4.772   5.954 -1.0422  1.0402  1.5529
 1683TIP3   OH226463   1.019   2.329   5.824  0.4074 -0.0080  0.7691
 1683TIP3    H126464   1.050   2.409   5.866  0.1359 -0.7200  2.3721
 1683TIP3    H226465   1.061   2.258   5.872  0.5135 -0.8658 -0.5147
 1684TIP3   OH226466   4.193   2.748  13.698 -0.1293  0.0509 -0.4366
 1684TIP3    H126467   4.282   2.757  13.733  0.2035  0.4448 -1.3610
 1684TIP3    H226468   4.162   2.837  13.688 -0.2369 -0.0542 -1.0827
 1685TIP3   OH226469   3.881   4.475   5.739  0.5329  0.0880 -0.1274
 1685TIP3    H126470   3.834   4.487   5.822  2.4570  1.7631  0.8057
 1685TIP3    H226471   3.925   4.390   5.749 -0.8688 -0.6894 -0.3248
 1686TIP3   OH226472   3.651   6.341   4.313 -0.0868 -0.2555  1.1608
 1686TIP3    H126473   3.652   6.247   4.292  0.1583  0.0341 -0.2144
 1686TIP3    H226474   3.740   6.360   4.343 -0.6553 -0.8419  3.3773
 1687TIP3   OH226475   2.393   0.056  14.001 -0.6964 -0.0584 -0.1304
 1687TIP3    H126476   2.418  -0.034  14.023  0.7889  0.4726  0.5278
 1687TIP3    H226477   2.458   0.084  13.937 -2.1722  0.0165 -1.6662
 1688TIP3   OH226478   1.489   3.247  11.737 -0.2758 -0.0825 -0.5249
 1688TIP3    H126479   1.581   3.271  11.723 -0.1158 -0.7488 -0.6559
 1688TIP3    H226480   1.462   3.206  11.655 -0.6936  0.1007 -0.4828
 1689TIP3   OH226481   0.919   1.960  16.003 -0.2672 -0.2251 -0.3962
 1689TIP3    H126482   0.879   2.011  15.933  0.4291  0.2415 -0.4710
 1689TIP3    H226483   0.854   1.894  16.026 -1.6987  1.4320  0.5302
 1690TIP3   OH226484   3.337   2.250  13.182 -0.6370  0.0756 -0.0904
 1690TIP3    H126485   3.277   2.248  13.107 -0.1564 -0.4941 -0.4679
 1690TIP3    H226486   3.420   2.216  13.148  0.4135  2.3933 -0.0016
 1691TIP3   OH226487   4.721   6.317   3.757 -0.3302  0.3467  0.4240
 1691TIP3    H126488   4.637   6.272   3.768  0.1773 -0.6496  0.3277
 1691TIP3    H226489   4.743   6.347   3.845 -0.3425 -0.2102  0.6246
 1692TIP3   OH226490   2.596   2.593   0.113 -0.1992  0.2063 -0.4100
 1692TIP3    H126491   2.683   2.569   0.145 -1.0388 -0.7546  1.3394
 1692TIP3    H226492   2.597   2.570   0.020  1.4649  0.4168 -0.4714
 1693TIP3   OH226493   1.913   5.144   1.657 -0.4534 -0.0008  0.3122
 1693TIP3    H126494   1.836   5.094   1.630 -0.7432  0.0872  0.9428
 1693TIP3    H226495   1.878   5.228   1.687  0.0718  0.7999 -1.1986
 1694TIP3   OH226496   1.063   2.089   3.873  0.0685 -0.3771  0.9125
 1694TIP3    H126497   1.019   2.010   3.902 -0.3956 -0.7841 -0.7831
 1694TIP3    H226498   1.154   2.079   3.903 -0.1523 -1.2146  1.3231
 1695TIP3   OH226499   5.472   2.322  16.131 -0.3154  0.1111 -0.4645
 1695TIP3    H126500   5.396   2.341  16.186 -0.5190  0.8651 -0.9877
 1695TIP3    H226501   5.466   2.228  16.114 -1.1265  0.1617 -0.4972
 1696TIP3   OH226502   0.249   0.131   4.681 -0.1166  0.1922 -0.7786
 1696TIP3    H126503   0.223   0.222   4.671 -0.9984  0.1879  1.0705
 1696TIP3    H226504   0.166   0.083   4.685  0.1863 -0.2412  1.7493
 1697TIP3   OH226505   2.322   6.019   4.055  0.0583  0.0291 -0.3659
 1697TIP3    H126506   2.238   6.062   4.042 -0.1664 -0.9492 -2.5773
 1697TIP3    H226507   2.382   6.091   4.077 -0.9399  1.0122 -0.7440
 1698TIP3   OH226508   2.896   2.985  12.878 -0.4750  0.7467  0.2971
 1698TIP3    H126509   2.844   2.956  12.953  0.3493 -0.0996  0.5602
 1698TIP3    H226510   2.905   3.080  12.890 -0.5383  0.6512  1.1507
 1699TIP3   OH226511   1.404   1.563  15.270  1.0328 -0.1527 -0.0364
 1699TIP3    H126512   1.456   1.561  15.350 -0.9612  1.5062  1.3977
 1699TIP3    H226513   1.342   1.490  15.280 -0.1317  0.8907  0.6547
 1700TIP3   OH226514   2.653   3.791   0.828 -0.0656 -0.0998  0.1053
 1700TIP3    H126515   2.602   3.712   0.809  1.1782 -0.8817 -0.0394
 1700TIP3    H226516   2.743   3.768   0.807  0.3367  1.3350  0.1592
 1701TIP3   OH226517   4.957   6.382   1.005 -0.4351  0.0032 -1.0709
 1701TIP3    H126518   4.999   6.298   0.986  2.2624  1.7061 -3.6095
 1701TIP3    H226519   5.016   6.424   1.067 -1.5694  0.2160 -0.1136
 1702TIP3   OH226520   2.554   4.158  14.022  0.0532 -0.3072  0.6441
 1702TIP3    H126521   2.541   4.243  13.980  1.3525  0.5196  1.8084
 1702TIP3    H226522   2.467   4.133  14.053 -0.2755  0.8265  0.6744
 1703TIP3   OH226523   0.518   3.492   5.416 -0.4219 -0.3121 -0.1121
 1703TIP3    H126524   0.459   3.537   5.476 -1.5775 -2.4198  0.4344
 1703TIP3    H226525   0.464   3.473   5.339  0.7166  1.3036 -1.3908
 1704TIP3   OH226526   0.174   3.480   2.065 -0.1468  0.2965 -0.0766
 1704TIP3    H126527   0.263   3.483   2.101  0.4888  0.5176 -1.5845
 1704TIP3    H226528   0.149   3.387   2.072  0.6746  0.0167 -0.6948
 1705TIP3   OH226529   3.012   1.228   2.312 -0.1089 -0.4161 -0.3072
 1705TIP3    H126530   3.107   1.213   2.321 -0.3177 -0.6906  2.3005
 1705TIP3    H226531   2.979   1.225   2.402 -2.3920  1.2367 -0.9970
 1706TIP3   OH226532   5.309   4.107   5.469  0.2039  0.4693  0.8865
 1706TIP3    H126533   5.315   4.090   5.375 -0.5686  1.3717  0.6630
 1706TIP3    H226534   5.297   4.020   5.508 -0.6085  0.1869  0.0525
 1707TIP3   OH226535   1.683   5.636   0.994 -0.7617  0.1840  0.2586
 1707TIP3    H126536   1.678   5.731   1.004  1.5440  0.4414 -0.5051
 1707TIP3    H226537   1.635   5.618   0.913 -0.6367  0.7841  0.0467
 1708TIP3   OH226538   3.701   4.509   5.945  0.4847 -0.4531 -0.3116
 1708TIP3    H126539   3.776   4.475   5.994 -0.6159 -2.8456 -0.1374
 1708TIP3    H226540   3.625   4.489   6.000 -0.5266 -0.6708 -1.7242
 1709TIP3   OH226541   6.590   4.593   4.948  0.7185 -0.1543 -0.5518
 1709TIP3    H126542   6.521   4.658   4.935  0.0069 -0.8037 -0.1252
 1709TIP3    H226543   6.670   4.645   4.961  0.0769  0.6499  0.3103
 1710TIP3   OH226544   5.789   3.002  12.753  0.7082 -0.2171 -0.2351
 1710TIP3    H126545   5.750   3.017  12.667  0.0547  1.9506  0.3747
 1710TIP3    H226546   5.835   3.083  12.773 -0.7518  0.1101  2.2254
 1711TIP3   OH226547   2.138   4.931  16.415 -0.0836 -0.4593 -0.3622
 1711TIP3    H126548   2.076   4.927  16.487  0.7832  0.4778  0.4661
 1711TIP3    H226549   2.105   4.867  16.351 -0.0236 -2.4842  1.5076
 1712TIP3   OH226550   1.769   2.686  10.863 -0.0441 -0.6398  0.1702
 1712TIP3    H126551   1.785   2.719  10.775 -1.1109  1.0478  0.5485
 1712TIP3    H226552   1.681   2.649  10.859  0.0200 -0.8279  0.4632
 1713TIP3   OH226553   3.234   3.277   1.980 -0.0236  0.0211 -0.3405
 1713TIP3    H126554   3.296   3.265   1.907  1.4305 -0.3939  0.9137
 1713TIP3    H226555   3.187   3.357   1.958  3.0975  2.1478  0.0555
 1714TIP3   OH226556   5.707   6.159   0.408  0.3070 -0.5445 -0.0508
 1714TIP3    H126557   5.630   6.167   0.352  0.7950 -0.3471 -0.7197
 1714TIP3    H226558   5.777   6.200   0.357  1.1159 -1.7854  0.0219
 1715TIP3   OH226559   1.410   1.800  14.300 -0.8648 -0.0657 -0.2146
 1715TIP3    H126560   1.454   1.880  14.329 -1.4130  1.0162 -2.1252
 1715TIP3    H226561   1.455   1.776  14.219  0.1467 -2.5087  0.9683
 1716TIP3   OH226562   3.320   0.013   1.117 -0.4715 -0.1026  0.5352
 1716TIP3    H126563   3.333  -0.055   1.184 -1.0563  1.0021  1.8239
 1716TIP3    H226564   3.225   0.020   1.109 -0.4407  1.1285  1.0489
 1717TIP3   OH226565   4.434   6.363   5.260  0.5984 -0.3650 -0.2830
 1717TIP3    H126566   4.512   6.363   5.204 -0.0303  1.3898 -1.2494
 1717TIP3    H226567   4.367   6.403   5.206 -0.6034 -0.5190  1.0508
 1718TIP3   OH226568   4.777   0.959  13.159  0.4852 -0.6591  0.2552
 1718TIP3    H126569   4.749   1.048  13.182  0.7611  0.2911 -2.6188
 1718TIP3    H226570   4.852   0.942  13.215  0.6254  1.0696  0.6703
 1719TIP3   OH226571   3.705   6.498   2.153 -0.0427 -0.1206 -0.2681
 1719TIP3    H126572   3.731   6.430   2.090  0.6366  0.7021 -0.9027
 1719TIP3    H226573   3.750   6.473   2.234  1.5772  0.4413 -0.9404
 1720TIP3   OH226574   0.553   5.722  12.484 -0.1432 -0.0817 -0.4745
 1720TIP3    H126575   0.537   5.802  12.433 -1.6371 -0.5105 -0.7336
 1720TIP3    H226576   0.538   5.651  12.423 -0.3857 -0.5884  0.1619
 1721TIP3   OH226577   1.320   3.393  16.761  0.2055  0.0786  0.2507
 1721TIP3    H126578   1.408   3.426  16.780 -0.5618  2.5958 -0.2472
 1721TIP3    H226579   1.266   3.425  16.834 -0.2760 -1.8168  0.7917
 1722TIP3   OH226580   5.467   3.850   2.208  0.1237 -0.1427  0.0064
 1722TIP3    H126581   5.408   3.795   2.260 -0.3211  0.8334  0.5538
 1722TIP3    H226582   5.555   3.829   2.242  0.2935 -2.5009 -1.6238
 1723TIP3   OH226583   2.238   4.751   5.329 -0.4480  0.0902  0.3482
 1723TIP3    H126584   2.220   4.831   5.279  0.6736 -0.0575 -0.3246
 1723TIP3    H226585   2.153   4.706   5.333 -0.9370  0.9626  0.1121
 1724TIP3   OH226586   4.914   4.391   1.558  0.1321  0.2319 -0.5879
 1724TIP3    H126587   5.006   4.413   1.568  0.4145 -1.3633  0.6252
 1724TIP3    H226588   4.891   4.424   1.471  1.4610  1.8541 -0.3802
 1725TIP3   OH226589   2.216   5.891   1.353 -0.1674  0.0743 -0.1002
 1725TIP3    H126590   2.187   5.976   1.385  0.2232  0.5487 -0.9675
 1725TIP3    H226591   2.293   5.911   1.300 -1.0844 -0.6061 -1.7427
 1726TIP3   OH226592   6.580   1.754  15.384  0.1253 -0.0686 -0.3365
 1726TIP3    H126593   6.670   1.784  15.370 -0.3340  1.2921 -0.4765
 1726TIP3    H226594   6.528   1.800  15.318 -1.1994  2.0211  1.9911
 1727TIP3   OH226595   0.247   1.259  14.598 -0.1716  0.4016  0.0789
 1727TIP3    H126596   0.193   1.334  14.623 -0.8633  0.3833 -1.2637
 1727TIP3    H226597   0.286   1.285  14.515  0.0263 -0.5101 -0.1195
 1728TIP3   OH226598   4.126   5.563  17.154  0.5544 -0.0301 -0.1293
 1728TIP3    H126599   4.168   5.531  17.234  0.5185 -0.9350 -0.4612
 1728TIP3    H226600   4.199   5.593  17.100  0.5862  0.4985  0.2027
 1729TIP3   OH226601   2.080   0.009   3.279  0.8348  0.0815 -0.7547
 1729TIP3    H126602   1.997   0.005   3.232 -0.9254  0.1912  2.0635
 1729TIP3    H226603   2.142  -0.037   3.223 -1.8575 -2.8618 -1.6292
 1730TIP3   OH226604   6.388   1.154  12.183 -0.3470 -0.1124 -0.0012
 1730TIP3    H126605   6.382   1.096  12.107  0.4041 -0.5167  0.2350
 1730TIP3    H226606   6.432   1.102  12.250  1.3866  1.0619 -0.1534
 1731TIP3   OH226607   3.753   2.423  15.906  0.1777  0.4112 -0.1789
 1731TIP3    H126608   3.846   2.413  15.890  0.2701  2.0812 -0.8878
 1731TIP3    H226609   3.712   2.350  15.860  1.0805  0.0806 -0.4752
 1732TIP3   OH226610   0.587   3.321   6.326  0.0823 -0.0537  0.3676
 1732TIP3    H126611   0.652   3.390   6.310 -0.6040  0.0192 -2.8916
 1732TIP3    H226612   0.524   3.361   6.386  1.3555  0.9894  1.0578
 1733TIP3   OH226613   2.063   6.213  15.674  0.0191 -0.5414  0.3415
 1733TIP3    H126614   2.102   6.180  15.755 -0.5031  0.7883  1.1676
 1733TIP3    H226615   2.138   6.230  15.616  0.2971 -3.2641 -0.2030
 1734TIP3   OH226616   6.261   4.099   2.301  0.1488 -0.0632  0.3785
 1734TIP3    H126617   6.252   4.034   2.231  1.3349 -1.9340  1.8548
 1734TIP3    H226618   6.210   4.063   2.374  0.6216  0.7884  1.1524
 1735TIP3   OH226619   4.349   2.215  14.016 -0.3199 -0.5588 -0.3039
 1735TIP3    H126620   4.273   2.272  14.000  1.2762  1.6517 -0.5358
 1735TIP3    H226621   4.397   2.218  13.933  0.4720 -1.1816  0.1325
 1736TIP3   OH226622   5.580   2.481   0.890 -0.3864 -0.1309  0.3409
 1736TIP3    H126623   5.602   2.541   0.961  0.9741 -1.1340  0.8124
 1736TIP3    H226624   5.587   2.534   0.811 -1.8055  0.9748  0.9157
 1737TIP3   OH226625   2.128   2.709  13.899 -0.6644 -0.6564  0.1274
 1737TIP3    H126626   2.043   2.664  13.892 -1.4258  0.5884  0.9594
 1737TIP3    H226627   2.153   2.728  13.809 -0.1585 -2.9659 -0.2831
 1738TIP3   OH226628   0.480   3.204  13.088  0.2982 -0.4219 -0.1632
 1738TIP3    H126629   0.502   3.159  13.170 -0.3488 -0.8235 -0.1958
 1738TIP3    H226630   0.541   3.277  13.083  0.1279 -0.1900  0.8615
 1739TIP3   OH226631   1.879   0.935  16.595 -0.9115  0.1550 -0.2735
 1739TIP3    H126632   1.916   1.023  16.604 -2.6362  0.9103 -0.2510
 1739TIP3    H226633   1.954   0.881  16.572  0.2825  1.5350  0.1572
 1740TIP3   OH226634   1.922   3.944  16.172 -0.6789 -0.4572 -0.5170
 1740TIP3    H126635   1.856   4.004  16.207 -1.5039 -1.2944 -0.6021
 1740TIP3    H226636   1.881   3.905  16.095 -0.2485 -1.2950 -0.3317
 1741TIP3   OH226637   3.658   6.737   4.191 -0.5611 -0.3816  0.0903
 1741TIP3    H126638   3.736   6.686   4.213  0.2841  1.0964  0.6275
 1741TIP3    H226639   3.586   6.675   4.198  0.5510 -1.7791 -0.4074
 1742TIP3   OH226640   0.370   2.614   0.018  0.4270  0.2417 -0.9846
 1742TIP3    H126641   0.330   2.527   0.011 -0.2075  0.4109  0.2286
 1742TIP3    H226642   0.461   2.597   0.041 -0.0548 -0.1160  0.8073
 1743TIP3   OH226643   4.054   5.108  16.569  0.3955 -0.2208 -0.3696
 1743TIP3    H126644   4.087   5.064  16.490  0.1782 -0.3541 -0.3875
 1743TIP3    H226645   4.129   5.156  16.603  0.8935 -1.3059  0.1389
 1744TIP3   OH226646   1.656   4.535  14.552  0.2299 -0.4967 -0.3783
 1744TIP3    H126647   1.686   4.497  14.635  0.6459 -1.2228 -0.8503
 1744TIP3    H226648   1.716   4.608  14.537  0.8399 -1.0324 -0.5784
 1745TIP3   OH226649   3.537   0.767   3.675 -0.3754 -0.3192 -0.1885
 1745TIP3    H126650   3.531   0.674   3.698 -1.0700 -0.0076  0.9880
 1745TIP3    H226651   3.607   0.801   3.731 -0.0019 -0.1599 -0.7448
 1746TIP3   OH226652   5.973   6.159   6.004  0.2142  0.3210  0.2131
 1746TIP3    H126653   6.032   6.229   5.975 -2.0013  1.7667 -1.1013
 1746TIP3    H226654   6.009   6.132   6.089  1.8699  2.1814  0.1928
 1747TIP3   OH226655   1.346   5.947  10.599 -0.5420 -0.1342 -0.4219
 1747TIP3    H126656   1.376   6.028  10.559 -3.0691  0.9402 -0.3655
 1747TIP3    H226657   1.276   5.916  10.541 -1.4888 -0.7656  1.0002
 1748TIP3   OH226658   1.071   2.149   2.750  0.8868  0.3651  0.6850
 1748TIP3    H126659   1.042   2.059   2.763 -0.8766  0.8046  0.0393
 1748TIP3    H226660   1.136   2.164   2.819  0.9681 -1.2849  0.9916
 1749TIP3   OH226661   0.873   5.367  14.886  0.1053  0.1544 -0.3105
 1749TIP3    H126662   0.902   5.445  14.932  1.4906 -0.1228 -0.6580
 1749TIP3    H226663   0.833   5.312  14.953 -0.5705  0.9978 -0.0060
 1750TIP3   OH226664   0.331   6.048   4.016  0.8911 -0.4026 -0.3902
 1750TIP3    H126665   0.313   6.140   3.997  1.8342  0.0696  0.8826
 1750TIP3    H226666   0.306   6.002   3.936 -0.8720  0.7923 -0.5797
 1751TIP3   OH226667   1.516   4.918  11.214  0.8308 -0.1408 -0.1502
 1751TIP3    H126668   1.585   4.976  11.181  0.4652  0.4515  0.1181
 1751TIP3    H226669   1.501   4.856  11.143  2.2429 -0.8137  0.1163
 1752TIP3   OH226670   3.872   2.139   5.487 -0.6050  0.4798 -0.4179
 1752TIP3    H126671   3.937   2.130   5.557 -0.1774  1.9342 -0.5966
 1752TIP3    H226672   3.912   2.199   5.424 -1.4167  0.0214 -1.4030
 1753TIP3   OH226673   5.787   0.320  15.990 -0.0671  0.3491  0.2827
 1753TIP3    H126674   5.713   0.346  16.045  0.2958  0.0818  0.9081
 1753TIP3    H226675   5.747   0.295  15.906 -0.7517 -0.4216  0.8218
 1754TIP3   OH226676   6.468   3.383   5.379 -0.4404 -0.0815 -0.2780
 1754TIP3    H126677   6.538   3.337   5.425 -0.3055 -0.6340 -1.0128
 1754TIP3    H226678   6.513   3.449   5.326 -0.2775 -1.4742 -1.9918
 1755TIP3   OH226679   5.765   2.726  12.818  0.4859 -0.3739 -0.2731
 1755TIP3    H126680   5.682   2.717  12.772  0.4494  1.1122 -0.5436
 1755TIP3    H226681   5.786   2.819  12.812  2.7201 -0.8745 -1.1710
 1756TIP3   OH226682   2.043   3.466  13.453 -0.3989 -0.4651 -0.5182
 1756TIP3    H126683   2.033   3.537  13.391  1.2717 -0.5606 -0.9541
 1756TIP3    H226684   1.957   3.457  13.495 -0.7848  1.4095 -0.8515
 1757TIP3   OH226685   0.512   4.848   3.368  0.0308  0.2818 -0.8883
 1757TIP3    H126686   0.433   4.794   3.364  0.4583 -0.3525 -0.8506
 1757TIP3    H226687   0.580   4.795   3.326  0.0473  1.5207 -2.5348
 1758TIP3   OH226688   1.314   5.490  16.086  0.1662 -0.6292  0.1973
 1758TIP3    H126689   1.290   5.398  16.095 -1.1939 -0.3199  0.0105
 1758TIP3    H226690   1.377   5.491  16.014 -0.1538 -1.3742 -0.1084
 1759TIP3   OH226691   5.255   1.860  16.596  0.4420 -0.7627  0.2599
 1759TIP3    H126692   5.306   1.824  16.668 -1.8556 -2.9597  0.8949
 1759TIP3    H226693   5.275   1.803  16.521  1.1128  0.1639 -0.2945
 1760TIP3   OH226694   3.321   3.536   2.608 -0.1678  0.1942  0.1626
 1760TIP3    H126695   3.271   3.458   2.628  0.0657 -0.6040 -2.1508
 1760TIP3    H226696   3.255   3.605   2.596 -0.6065 -0.4103 -0.9908
 1761TIP3   OH226697   4.923   4.011  11.362  0.3543 -0.0864 -0.0536
 1761TIP3    H126698   4.917   3.995  11.268  0.0047  0.2052 -0.0871
 1761TIP3    H226699   4.845   4.063  11.382 -0.6261 -1.7740  0.7404
 1762TIP3   OH226700   5.639   0.588   3.559  0.4127  0.3187 -0.3587
 1762TIP3    H126701   5.683   0.573   3.476  1.8766  1.3187  0.2000
 1762TIP3    H226702   5.548   0.606   3.536  1.0995  2.1077 -1.8859
 1763TIP3   OH226703   6.674   3.520  16.063  0.0465  0.4876  0.6110
 1763TIP3    H126704   6.683   3.521  15.968 -2.0230 -1.6201  0.2888
 1763TIP3    H226705   6.727   3.446  16.092  0.3790  0.8973  1.0648
 1764TIP3   OH226706   2.208   2.030  14.420 -0.1183 -0.2388 -0.1400
 1764TIP3    H126707   2.300   2.024  14.394  0.5742  3.3361  0.8708
 1764TIP3    H226708   2.209   2.023  14.515 -1.0304 -0.9460 -0.1685
 1765TIP3   OH226709   4.316   6.099   5.310  0.0033 -0.1368 -0.0290
 1765TIP3    H126710   4.286   6.187   5.286 -1.9278 -0.9306 -0.7464
 1765TIP3    H226711   4.327   6.103   5.405  0.6914  1.0691 -0.1408
 1766TIP3   OH226712   4.752   2.746  15.834  0.5735  0.0212  0.2827
 1766TIP3    H126713   4.733   2.653  15.818  0.4165  0.2382 -0.9368
 1766TIP3    H226714   4.846   2.748  15.853  0.4587 -0.4519  0.9364
 1767TIP3   OH226715   0.397   6.464  16.515  0.1547 -0.7380  0.2784
 1767TIP3    H126716   0.304   6.456  16.495  0.0342 -1.2027  1.0008
 1767TIP3    H226717   0.420   6.552  16.484 -0.8616 -0.0433  1.3751
 1768TIP3   OH226718   1.233   2.719   4.475 -0.4670 -0.2514 -0.1590
 1768TIP3    H126719   1.247   2.731   4.569  0.1611  0.1074 -0.2921
 1768TIP3    H226720   1.297   2.652   4.450 -0.0142  0.2895 -0.4858
 1769TIP3   OH226721   0.613   1.820  13.624  0.2544  0.4946 -0.1015
 1769TIP3    H126722   0.689   1.876  13.641  0.8520  0.0899 -1.2632
 1769TIP3    H226723   0.538   1.869  13.658  0.7662  1.9775 -1.0034
 1770TIP3   OH226724   4.823   0.840   3.316  0.0099 -0.0395 -0.1045
 1770TIP3    H126725   4.750   0.779   3.304 -0.3313  0.2879  0.2722
 1770TIP3    H226726   4.875   0.803   3.387  0.2123 -0.2717 -0.3718
 1771TIP3   OH226727   1.797   5.156  14.009  0.4717  0.6126 -0.3631
 1771TIP3    H126728   1.822   5.072  13.969  0.4312  0.8609 -0.9236
 1771TIP3    H226729   1.811   5.143  14.103  1.0215  0.1685 -0.4996
 1772TIP3   OH226730   5.986   5.293   4.821 -0.4581  0.1002 -0.6375
 1772TIP3    H126731   6.057   5.353   4.843 -0.8520 -0.0023  0.9761
 1772TIP3    H226732   5.930   5.343   4.761  0.8753  0.2213 -1.8488
 1773TIP3   OH226733   6.406   5.307  12.216 -0.1517  0.2894  0.0105
 1773TIP3    H126734   6.350   5.233  12.241 -2.6496  0.5072 -4.0164
 1773TIP3    H226735   6.377   5.379  12.272 -0.3018 -0.8226  1.4208
 1774TIP3   OH226736   4.112   1.920  13.779 -0.2656  0.6278 -0.1451
 1774TIP3    H126737   4.073   1.842  13.817  1.3204 -0.3615 -0.4413
 1774TIP3    H226738   4.200   1.924  13.818  0.4285  1.0726 -1.6848
 1775TIP3   OH226739   2.783   0.705   5.190 -0.1073 -0.2183  0.4013
 1775TIP3    H126740   2.874   0.684   5.208 -0.9148 -2.0838  2.8061
 1775TIP3    H226741   2.771   0.683   5.097  2.0708  1.0325 -0.2305
 1776TIP3   OH226742   1.208   6.084  11.911  0.3737  0.0836  0.1839
 1776TIP3    H126743   1.141   6.152  11.916  1.4896  1.1554  1.0222
 1776TIP3    H226744   1.226   6.076  11.817  0.6957  1.4305  0.1124
 1777TIP3   OH226745   2.252   6.696  11.704 -0.4176  0.1814 -0.4756
 1777TIP3    H126746   2.308   6.649  11.642 -0.2370  0.6942 -0.7022
 1777TIP3    H226747   2.186   6.739  11.649 -0.3567  0.5004 -0.3014
 1778TIP3   OH226748   3.714   4.224  14.130  0.0361  0.3880  0.2193
 1778TIP3    H126749   3.805   4.252  14.117 -0.1438  0.7285 -0.3880
 1778TIP3    H226750   3.717   4.129  14.124 -0.0024  0.4734 -2.5185
 1779TIP3   OH226751   4.158   4.779   4.334 -0.2439  0.7021 -0.4163
 1779TIP3    H126752   4.062   4.773   4.332 -0.1606 -0.9027 -1.0849
 1779TIP3    H226753   4.184   4.725   4.408  0.0945  2.7195  1.0134
 1780TIP3   OH226754   4.519   6.181  13.194  0.1756 -0.3194  0.3839
 1780TIP3    H126755   4.614   6.170  13.183  0.3165  1.0005  0.1337
 1780TIP3    H226756   4.508   6.273  13.220 -0.9545 -0.7468  1.5090
 1781TIP3   OH226757   0.965   5.947   0.506 -0.3142 -0.9553  0.0722
 1781TIP3    H126758   0.977   5.879   0.440  0.4081 -2.8083  2.0162
 1781TIP3    H226759   0.985   5.904   0.589  2.4176  2.1295  1.2512
 1782TIP3   OH226760   4.088   3.166   2.566  0.2370  0.2140 -0.2029
 1782TIP3    H126761   4.156   3.159   2.499  2.1486  0.6423  1.5688
 1782TIP3    H226762   4.117   3.108   2.636 -0.0971  1.9378  1.4678
 1783TIP3   OH226763   5.412   5.085   4.058  0.8467  0.1362  0.0681
 1783TIP3    H126764   5.454   5.153   4.110 -0.6265  2.8457 -2.0353
 1783TIP3    H226765   5.318   5.100   4.068  0.3922 -2.3693  0.4155
 1784TIP3   OH226766   6.220   1.268  15.492 -0.7771  0.3485 -0.1176
 1784TIP3    H126767   6.208   1.187  15.443  0.3926 -0.4106  0.7647
 1784TIP3    H226768   6.137   1.283  15.536 -1.4056  0.3283 -1.2662
 1785TIP3   OH226769   1.555   5.239   5.285 -0.2923  0.0359 -0.2375
 1785TIP3    H126770   1.647   5.215   5.300 -0.2795  0.5391  0.5205
 1785TIP3    H226771   1.559   5.322   5.238 -0.3453  0.8781  1.1827
 1786TIP3   OH226772   6.643   0.118   0.954 -0.0940  0.4120 -0.0457
 1786TIP3    H126773   6.633   0.212   0.971  1.1546  0.5379  0.1157
 1786TIP3    H226774   6.688   0.085   1.032  0.8314 -0.0332 -0.7520
 1787TIP3   OH226775   4.739   1.876   6.107  0.4444  0.4398 -0.7260
 1787TIP3    H126776   4.668   1.927   6.069 -0.8839  0.0079  1.0678
 1787TIP3    H226777   4.734   1.893   6.201  0.7706 -1.9484 -0.2127
 1788TIP3   OH226778   5.147   0.753  12.168 -0.5488 -0.5057 -0.0313
 1788TIP3    H126779   5.150   0.696  12.244 -1.7622 -1.3409 -0.5780
 1788TIP3    H226780   5.229   0.734  12.121  1.2857  1.5524  2.0511
 1789TIP3   OH226781   0.322   5.867   2.347  0.0295 -0.4628  0.2316
 1789TIP3    H126782   0.382   5.819   2.290 -0.0517 -0.0700 -0.1947
 1789TIP3    H226783   0.276   5.927   2.288  0.6329  0.6386  0.8545
 1790TIP3   OH226784   2.056   5.782   4.933  0.6720 -0.6076  0.6824
 1790TIP3    H126785   2.058   5.812   4.842  0.8341  0.3648  0.9892
 1790TIP3    H226786   2.146   5.759   4.953  1.4391  2.6414  1.6501
 1791TIP3   OH226787   1.014   0.490   5.257  0.1260 -0.2775  0.7429
 1791TIP3    H126788   1.006   0.546   5.334  0.4635 -0.0080  0.5844
 1791TIP3    H226789   1.066   0.415   5.286  1.3838  0.4489  0.4567
 1792TIP3   OH226790   5.494   4.951  10.390  0.1662 -0.1803  0.2684
 1792TIP3    H126791   5.455   4.911  10.467  0.2730 -0.3847  0.2178
 1792TIP3    H226792   5.475   5.044  10.399 -0.8503 -0.3455 -0.0560
 1793TIP3   OH226793   2.192   0.542  16.804  0.0141  0.3408  0.2727
 1793TIP3    H126794   2.123   0.608  16.807  0.1066  0.4148  1.0296
 1793TIP3    H226795   2.245   0.558  16.882  0.6723  0.0491 -0.1006
 1794TIP3   OH226796   3.368   5.673  12.953  0.4264 -0.8847 -0.3218
 1794TIP3    H126797   3.275   5.667  12.975  0.4318 -0.2441 -0.0831
 1794TIP3    H226798   3.382   5.766  12.936  0.8776 -1.0702 -1.0338
 1795TIP3   OH226799   5.460   1.977   6.383  0.0906 -0.5378 -0.0786
 1795TIP3    H126800   5.511   1.986   6.464  1.1065  0.0916 -0.7620
 1795TIP3    H226801   5.513   2.022   6.317 -0.1175 -2.0958 -1.3613
 1796TIP3   OH226802   1.431   4.319  13.879 -0.3741 -0.1139  0.3042
 1796TIP3    H126803   1.464   4.327  13.790 -0.0319 -0.3601  0.4066
 1796TIP3    H226804   1.367   4.390  13.888  1.2811  1.3944  0.6318
 1797TIP3   OH226805   1.519   5.763  13.998 -0.5760  0.3967  0.0620
 1797TIP3    H126806   1.555   5.701  13.934 -1.6643 -1.3804  1.1050
 1797TIP3    H226807   1.438   5.794  13.959  0.3512  1.8531 -0.8129
 1798TIP3   OH226808   1.979   2.224  11.072 -0.5061 -0.1848  0.2777
 1798TIP3    H126809   1.971   2.201  10.979  1.7408 -0.5019  0.1114
 1798TIP3    H226810   1.889   2.225  11.104 -1.4824  1.2108 -2.1875
 1799TIP3   OH226811   2.132   0.558  14.968 -0.3904 -0.0911  0.0844
 1799TIP3    H126812   2.213   0.609  14.972 -0.6070  0.2309  0.5021
 1799TIP3    H226813   2.136   0.512  14.884 -0.3169  0.8439 -0.4496
 1800TIP3   OH226814   1.722   2.632   1.004 -0.0888 -0.2490 -0.6016
 1800TIP3    H126815   1.751   2.717   0.970 -0.0987 -0.4068 -1.0121
 1800TIP3    H226816   1.708   2.579   0.926  0.8992 -0.9502 -0.3202
 1801TIP3   OH226817   5.920   4.189   4.281 -0.0947  0.3955 -0.6223
 1801TIP3    H126818   5.934   4.277   4.244  0.1527  0.4283 -0.4564
 1801TIP3    H226819   5.848   4.153   4.229  0.6971  0.1757 -1.6074
 1802TIP3   OH226820   2.849   1.144  13.529  0.3620 -0.2826 -0.3512
 1802TIP3    H126821   2.917   1.089  13.568  2.5364  0.8964 -2.2401
 1802TIP3    H226822   2.766   1.103  13.555  1.7647 -1.9459  1.8082
 1803TIP3   OH226823   1.365   5.778   4.744 -0.1416  0.0760  0.0071
 1803TIP3    H126824   1.286   5.776   4.689 -0.6080  0.5437  0.6331
 1803TIP3    H226825   1.436   5.799   4.683 -0.8480  2.0271 -0.2432
 1804TIP3   OH226826   2.997   0.964   5.397  0.3343 -0.3300  0.2896
 1804TIP3    H126827   2.957   0.892   5.446  0.1791 -0.1920  0.3687
 1804TIP3    H226828   2.954   1.043   5.432  0.1524 -0.2370 -0.1377
 1805TIP3   OH226829   5.127   2.114   2.340 -0.2745 -0.2540  0.0235
 1805TIP3    H126830   5.219   2.098   2.361 -0.7414 -1.2110  1.4719
 1805TIP3    H226831   5.082   2.113   2.424 -1.5444  0.8295 -0.6046
 1806TIP3   OH226832   1.803   0.800   5.280  0.3824 -0.3276  0.1229
 1806TIP3    H126833   1.891   0.816   5.314  0.3053 -0.6957  0.4982
 1806TIP3    H226834   1.770   0.725   5.330 -1.7259  2.2246  2.8994
 1807TIP3   OH226835   0.076   2.509  11.791  0.1470 -0.4678 -0.3815
 1807TIP3    H126836   0.166   2.540  11.781 -0.5410  2.0266  0.4432
 1807TIP3    H226837   0.082   2.437  11.854  1.4015  1.0375  1.3515
 1808TIP3   OH226838   5.873   2.466  15.234  0.3662  0.3069  0.0128
 1808TIP3    H126839   5.949   2.426  15.193 -0.2245  0.5356 -1.3465
 1808TIP3    H226840   5.824   2.504  15.162 -0.8585  0.4760  0.9065
 1809TIP3   OH226841   5.907   0.357  14.571 -0.0626  0.1846  0.5458
 1809TIP3    H126842   5.909   0.306  14.490  0.7472 -0.5004  0.9834
 1809TIP3    H226843   5.825   0.406  14.566 -0.3348 -0.3338 -0.3911
 1810TIP3   OH226844   0.101   2.992  12.266 -0.0669  0.1505  0.3536
 1810TIP3    H126845   0.116   2.990  12.172 -2.2788  0.3899 -0.0631
 1810TIP3    H226846   0.107   2.901  12.294 -1.5875 -0.2311 -0.4547
 1811TIP3   OH226847   5.822   4.848  15.069 -0.3948 -0.3337  0.4416
 1811TIP3    H126848   5.787   4.932  15.099 -0.0864 -0.2157  0.4802
 1811TIP3    H226849   5.882   4.822  15.139 -1.6304 -1.3316  1.1582
 1812TIP3   OH226850   1.413   5.359  15.031  0.1546 -0.4309 -0.0485
 1812TIP3    H126851   1.482   5.292  15.027  1.5621  0.9199  0.7751
 1812TIP3    H226852   1.426   5.412  14.952  0.2712  0.0208  0.2721
 1813TIP3   OH226853   4.032   4.899  15.672  0.0534 -0.0978  0.2423
 1813TIP3    H126854   3.975   4.899  15.748  1.2817  1.6275  1.2384
 1813TIP3    H226855   4.097   4.831  15.690 -1.2296 -1.5907 -0.5801
 1814TIP3   OH226856   6.442   6.046   2.177 -0.2358 -0.3235 -0.9203
 1814TIP3    H126857   6.455   5.960   2.217  0.0327  0.3833  0.5711
 1814TIP3    H226858   6.512   6.100   2.212  0.2693  0.2467 -2.7012
 1815TIP3   OH226859   4.598   3.553  11.312  0.3953 -0.2032 -0.1186
 1815TIP3    H126860   4.600   3.479  11.251  0.1037 -0.3906  0.0946
 1815TIP3    H226861   4.544   3.618  11.269 -0.4278 -0.6231  0.2515
 1816TIP3   OH226862   5.841   1.448  16.281 -0.0734 -0.0889 -0.2909
 1816TIP3    H126863   5.831   1.386  16.354 -3.4876  0.5760 -0.0276
 1816TIP3    H226864   5.880   1.526  16.321  0.9939 -0.8007  0.1114
 1817TIP3   OH226865   3.304   0.916   2.387 -0.3425  0.3180  0.5816
 1817TIP3    H126866   3.308   0.957   2.300  0.7786 -0.1461  0.3873
 1817TIP3    H226867   3.215   0.930   2.417 -0.4073  1.5273 -0.1410
 1818TIP3   OH226868   6.700   3.758  10.615 -1.0899  0.0052 -0.4641
 1818TIP3    H126869   6.733   3.844  10.587 -0.8170  0.9205  2.3196
 1818TIP3    H226870   6.775   3.719  10.661 -1.5243 -1.3227 -0.8587
 1819TIP3   OH226871   3.238   4.818  13.486  0.0160 -0.3288 -0.1049
 1819TIP3    H126872   3.315   4.779  13.443 -0.2097  1.7635 -2.6486
 1819TIP3    H226873   3.163   4.778  13.443 -0.2275  0.9238 -0.9021
 1820TIP3   OH226874   4.618   0.165   2.037 -0.4364  0.0540  0.2967
 1820TIP3    H126875   4.636   0.099   2.105  0.2775 -0.2163 -0.1390
 1820TIP3    H226876   4.677   0.141   1.965  0.0656  1.3672  0.2513
 1821TIP3   OH226877   5.633   6.756  10.686  0.0025 -0.1341  0.6793
 1821TIP3    H126878   5.721   6.725  10.707  1.0222  0.0233 -2.7606
 1821TIP3    H226879   5.640   6.851  10.684 -1.0148  0.0637  2.9512
 1822TIP3   OH226880   4.673   3.331  16.453 -0.4971  0.0727 -0.5130
 1822TIP3    H126881   4.678   3.406  16.512 -1.5450 -0.8341  0.7842
 1822TIP3    H226882   4.583   3.299  16.463 -0.2030 -1.0708 -1.4027
 1823TIP3   OH226883   5.829   5.332   5.440 -0.0764 -0.2478  0.1725
 1823TIP3    H126884   5.916   5.373   5.443 -0.5456  0.7581  1.0219
 1823TIP3    H226885   5.789   5.366   5.360 -0.1461  0.3199  0.4385
 1824TIP3   OH226886   4.202   2.012  16.620  0.8154 -0.4136 -0.1400
 1824TIP3    H126887   4.249   2.022  16.536 -0.2314  0.2583 -0.6670
 1824TIP3    H226888   4.261   2.051  16.684  1.2964 -0.2267 -0.6816
 1825TIP3   OH226889   5.432   4.890  16.682  0.0395  0.4202 -0.2241
 1825TIP3    H126890   5.347   4.910  16.643  0.1482  0.3912 -0.4785
 1825TIP3    H226891   5.414   4.878  16.775  0.1881  3.3965  0.3078
 1826TIP3   OH226892   2.887   2.007   5.255  0.2326 -0.2656  0.7133
 1826TIP3    H126893   2.874   2.080   5.196 -1.1126 -0.2993  0.9326
 1826TIP3    H226894   2.975   1.975   5.236  0.4691  0.8056 -0.0384
 1827TIP3   OH226895   3.109   5.881   5.809 -0.3542  0.3253 -0.0833
 1827TIP3    H126896   3.015   5.882   5.821 -0.2959  0.9211  0.3729
 1827TIP3    H226897   3.128   5.963   5.762 -0.2727 -0.6708 -1.8742
 1828TIP3   OH226898   4.661   6.465  15.754 -0.2910  0.3459 -0.6275
 1828TIP3    H126899   4.641   6.377  15.785  1.2913 -0.1248 -0.8780
 1828TIP3    H226900   4.721   6.501  15.819  1.3897  0.1242 -1.9711
 1829TIP3   OH226901   1.794   2.946  11.677 -0.5450 -0.0572  0.0480
 1829TIP3    H126902   1.782   3.007  11.750 -1.7039 -2.6377  2.1669
 1829TIP3    H226903   1.883   2.912  11.689 -0.9838 -1.0002  0.7246
 1830TIP3   OH226904   1.762   1.391  15.707  0.1846 -0.2802  0.4216
 1830TIP3    H126905   1.668   1.388  15.688  0.1157  0.9960  0.4480
 1830TIP3    H226906   1.796   1.459  15.648  1.0366 -0.5276  0.6157
 1831TIP3   OH226907   2.853   4.512   3.805 -0.3011 -0.3242  0.0913
 1831TIP3    H126908   2.921   4.560   3.757 -1.3071  0.4754 -0.5720
 1831TIP3    H226909   2.839   4.433   3.753 -0.8205  0.1578 -0.5164
 1832TIP3   OH226910   1.573   3.559   4.034 -0.2588 -0.1990  0.3492
 1832TIP3    H126911   1.540   3.641   4.073 -1.1545 -0.0165 -0.7183
 1832TIP3    H226912   1.636   3.588   3.968 -1.0257 -0.3018 -0.4582
 1833TIP3   OH226913   1.061   1.391   2.197 -0.0300  0.2481 -0.4246
 1833TIP3    H126914   1.134   1.413   2.254 -0.3391  0.1362  0.0153
 1833TIP3    H226915   0.984   1.422   2.244 -0.2514  0.5412 -0.9755
 1834TIP3   OH226916   1.277   0.247   4.463  0.3413  0.5107 -0.4280
 1834TIP3    H126917   1.267   0.338   4.493 -0.6447 -0.2219  1.5985
 1834TIP3    H226918   1.369   0.227   4.478 -0.2123 -0.0543  3.1026
 1835TIP3   OH226919   5.284   5.335  16.296 -0.2732  0.3458 -0.5573
 1835TIP3    H126920   5.315   5.266  16.237  1.4243 -0.0408  0.7215
 1835TIP3    H226921   5.193   5.348  16.270 -0.1243 -1.1057 -2.0268
 1836TIP3   OH226922   4.223   6.081  16.339 -0.4352  0.1122 -0.7857
 1836TIP3    H126923   4.160   6.143  16.302  1.3457  0.7983 -2.8404
 1836TIP3    H226924   4.245   6.023  16.267 -0.2744 -1.4878  0.4864
 1837TIP3   OH226925   0.305   0.569  12.380 -0.2076  0.4465 -0.1837
 1837TIP3    H126926   0.366   0.643  12.373  1.0505 -0.4969  0.2772
 1837TIP3    H226927   0.325   0.514  12.304 -1.3359  0.7041 -0.6859
 1838TIP3   OH226928   2.866   6.371  11.552  0.5702  0.0507  0.0096
 1838TIP3    H126929   2.861   6.285  11.512  0.7540 -0.1499  0.4120
 1838TIP3    H226930   2.849   6.432  11.480  0.5672 -0.3134 -0.3017
 1839TIP3   OH226931   6.705   2.928   2.232 -0.4372  0.4471 -0.0361
 1839TIP3    H126932   6.657   2.898   2.155 -0.4998  0.6013 -0.0577
 1839TIP3    H226933   6.703   3.023   2.226 -0.9386  0.4748  0.4595
 1840TIP3   OH226934   6.770   3.380  14.592 -0.1433 -0.3979  0.0073
 1840TIP3    H126935   6.678   3.354  14.594  0.1169 -1.3463 -0.1155
 1840TIP3    H226936   6.795   3.375  14.500  0.2133 -0.7921  0.1252
 1841TIP3   OH226937   0.194   1.286   3.879  0.2165  0.1726 -0.4850
 1841TIP3    H126938   0.132   1.308   3.809  0.5277  0.7659 -0.5837
 1841TIP3    H226939   0.266   1.349   3.868 -0.2505  1.0378  1.0461
 1842TIP3   OH226940   3.674   4.724   0.353 -0.6306 -0.0160 -0.5867
 1842TIP3    H126941   3.602   4.768   0.397  1.7803  2.5929  1.0715
 1842TIP3    H226942   3.682   4.770   0.269 -0.8977 -0.3988 -0.8323
 1843TIP3   OH226943   1.016   1.346  11.203 -0.0497  0.2354  0.0793
 1843TIP3    H126944   1.081   1.405  11.240  0.4621 -0.9101  1.0679
 1843TIP3    H226945   0.973   1.398  11.135 -1.0538  2.4268  2.2422
 1844TIP3   OH226946   2.232   1.256   1.171 -0.0672 -0.3930  0.6835
 1844TIP3    H126947   2.322   1.282   1.149  0.3672 -1.8473  0.6619
 1844TIP3    H226948   2.235   1.161   1.178 -1.7856 -0.5425 -0.0940
 1845TIP3   OH226949   4.876   5.886  15.899 -0.4999 -0.6742  0.9641
 1845TIP3    H126950   4.924   5.855  15.976 -0.7920 -0.7653  1.1107
 1845TIP3    H226951   4.823   5.812  15.872 -1.1991 -0.3138  1.3153
 1846TIP3   OH226952   0.603   0.350  15.619 -0.6519 -0.5175 -0.2712
 1846TIP3    H126953   0.545   0.315  15.550 -2.0687  0.0992  0.5660
 1846TIP3    H226954   0.604   0.282  15.686  0.4575 -0.9704 -0.7204
 1847TIP3   OH226955   2.686   3.291  15.307 -0.3023  0.3000  0.7441
 1847TIP3    H126956   2.643   3.376  15.314 -3.2965 -0.9805 -0.3248
 1847TIP3    H226957   2.777   3.312  15.286 -1.6413  3.3046 -3.4545
 1848TIP3   OH226958   4.809   2.424  11.569  0.1176 -0.3653 -0.2909
 1848TIP3    H126959   4.763   2.423  11.485  0.2505  0.6128 -0.3949
 1848TIP3    H226960   4.833   2.333  11.585 -1.8065 -0.9261 -0.2591
 1849TIP3   OH226961   6.169   2.452   6.511 -0.0254  0.4388 -0.0864
 1849TIP3    H126962   6.104   2.514   6.479 -1.0675 -1.2170 -1.2906
 1849TIP3    H226963   6.242   2.507   6.541 -1.3552  2.2635 -0.0769
 1850TIP3   OH226964   4.483   3.278   2.353  0.2405  0.1089 -0.5775
 1850TIP3    H126965   4.505   3.193   2.314  1.8514  0.4625 -0.5164
 1850TIP3    H226966   4.488   3.264   2.447  0.6392  0.3035 -0.5695
 1851TIP3   OH226967   0.822   0.653   0.728 -0.4336 -0.3676  0.4547
 1851TIP3    H126968   0.842   0.718   0.661 -0.1028 -2.0840 -1.1809
 1851TIP3    H226969   0.759   0.696   0.785 -0.7047  1.1631 -0.9315
 1852TIP3   OH226970   6.558   2.952  15.192 -0.0688  0.0217  0.2577
 1852TIP3    H126971   6.576   3.034  15.147  1.3427  0.2070  1.0902
 1852TIP3    H226972   6.517   2.978  15.274  1.0183 -0.0216  0.8395
 1853TIP3   OH226973   2.493   0.139  16.247 -0.0218 -0.3440  0.4160
 1853TIP3    H126974   2.474   0.122  16.339 -0.5755  1.8320  0.7621
 1853TIP3    H226975   2.525   0.056  16.213  2.2095 -0.7148  3.0882
 1854TIP3   OH226976   4.427   0.205  12.717  0.3407 -0.1277  0.2826
 1854TIP3    H126977   4.493   0.274  12.707  0.8442 -0.7690 -1.1194
 1854TIP3    H226978   4.397   0.214  12.807  0.3141  1.9793  0.1190
 1855TIP3   OH226979   2.729   5.186  11.212  0.4916  0.3553  0.0289
 1855TIP3    H126980   2.690   5.171  11.298  0.4973  0.9531  0.1392
 1855TIP3    H226981   2.819   5.213  11.230  0.4284  0.6994 -0.1521
 1856TIP3   OH226982   1.412   4.764   1.982 -0.0297  0.0626  0.0333
 1856TIP3    H126983   1.405   4.682   1.933  3.9517 -0.0388 -0.7137
 1856TIP3    H226984   1.327   4.807   1.969 -1.1654 -2.5325 -2.1326
 1857TIP3   OH226985   0.248   0.721  12.687  0.2024  0.0638 -0.3721
 1857TIP3    H126986   0.157   0.719  12.659  0.6916 -0.2168 -2.0724
 1857TIP3    H226987   0.249   0.674  12.771 -1.2288  0.3014 -0.2001
 1858TIP3   OH226988   4.508   4.176  11.539  0.0836  0.0585 -0.8015
 1858TIP3    H126989   4.513   4.265  11.502 -1.5017  0.7309  0.4611
 1858TIP3    H226990   4.599   4.151  11.553  0.5883  1.2883 -1.6451
 1859TIP3   OH226991   2.255   2.800   2.750 -0.1004  0.2311  0.3775
 1859TIP3    H126992   2.246   2.710   2.718 -1.0707 -0.3556  2.1738
 1859TIP3    H226993   2.199   2.852   2.692 -2.9539 -1.0086  1.8109
 1860TIP3   OH226994   2.010   1.800   4.915  0.4050  0.2997  0.2247
 1860TIP3    H126995   2.061   1.791   4.834 -0.0506  0.0605 -0.0387
 1860TIP3    H226996   2.075   1.795   4.985  0.7336 -0.1136 -0.1071
 1861TIP3   OH226997   2.751   1.439  16.521  0.4096 -0.3195 -0.9878
 1861TIP3    H126998   2.759   1.404  16.610 -0.4413  1.0364 -0.3433
 1861TIP3    H226999   2.705   1.522  16.532 -1.4928 -1.0163 -2.9202
 1862TIP3   OH227000   4.069   3.731   0.071 -0.2042 -0.5616 -0.0127
 1862TIP3    H127001   4.162   3.734   0.093 -0.1250  3.6767  0.0149
 1862TIP3    H227002   4.025   3.708   0.153  0.7370  0.4081  0.7913
 1863TIP3   OH227003   5.779   0.178  14.825 -0.4839 -0.4202  0.7549
 1863TIP3    H127004   5.776   0.108  14.890 -1.6884  0.5040  1.7512
 1863TIP3    H227005   5.716   0.243  14.857 -2.1383 -0.4980 -1.9596
 1864TIP3   OH227006   5.721   5.441  14.913 -0.3825  0.2536  0.6505
 1864TIP3    H127007   5.756   5.529  14.904 -1.5596  0.7219  0.4472
 1864TIP3    H227008   5.797   5.384  14.905  0.1495  1.1418 -1.2125
 1865TIP3   OH227009   1.159   1.477   1.949  0.1632  0.0169  0.6826
 1865TIP3    H127010   1.121   1.434   2.025 -0.6064 -0.7771 -0.1309
 1865TIP3    H227011   1.087   1.483   1.886  1.2176 -0.9522 -0.6617
 1866TIP3   OH227012   0.454   3.456  11.618 -0.1690 -0.1631 -0.9464
 1866TIP3    H127013   0.365   3.490  11.624  0.3059  1.0092 -0.0729
 1866TIP3    H227014   0.491   3.470  11.706  0.2644 -2.4476 -0.6810
 1867TIP3   OH227015   4.488   5.402  14.080 -0.3512  0.2822  0.0749
 1867TIP3    H127016   4.446   5.406  13.994  0.3518  0.9460 -0.2487
 1867TIP3    H227017   4.464   5.316  14.114 -1.1555  0.2590 -0.5169
 1868TIP3   OH227018   1.793   4.228   1.973 -0.1661  0.3403  0.0045
 1868TIP3    H127019   1.737   4.287   2.024  0.2287 -1.4635  2.7472
 1868TIP3    H227020   1.872   4.279   1.956 -0.9064  1.4849 -0.1257
 1869TIP3   OH227021   2.024   2.686   4.821  1.3707  0.0226 -0.0778
 1869TIP3    H127022   2.018   2.663   4.728  2.8345  1.4898 -0.5846
 1869TIP3    H227023   2.010   2.781   4.823 -0.0412 -0.1898  1.3871
 1870TIP3   OH227024   3.569   4.538  12.649  0.2561 -0.3109  0.9229
 1870TIP3    H127025   3.596   4.627  12.625 -2.2008  1.0724  2.7925
 1870TIP3    H227026   3.507   4.513  12.580 -2.7966  1.5570  2.7294
 1871TIP3   OH227027   6.109   3.205  11.519 -0.3524  0.0487  0.2105
 1871TIP3    H127028   6.036   3.265  11.539  0.5816  0.7413  1.7583
 1871TIP3    H227029   6.174   3.223  11.587  0.7944 -1.3684 -0.4507
 1872TIP3   OH227030   2.196   1.994  11.676  0.0433  0.3382 -0.1612
 1872TIP3    H127031   2.234   2.070  11.720  1.3507 -0.6378  0.4870
 1872TIP3    H227032   2.269   1.957  11.626 -1.0551  0.5906 -2.0400
 1873TIP3   OH227033   4.091   1.877  15.073  0.4192  0.8399 -0.5268
 1873TIP3    H127034   4.118   1.966  15.052  1.2159  1.4523  2.5549
 1873TIP3    H227035   4.160   1.843  15.130 -1.1471 -0.7585  0.5449
 1874TIP3   OH227036   2.739   1.511   2.614 -0.6273 -0.3740  0.4693
 1874TIP3    H127037   2.723   1.538   2.705  0.6226 -2.1610  1.2760
 1874TIP3    H227038   2.663   1.543   2.566 -1.3220  0.6220  2.1406
 1875TIP3   OH227039   3.658   2.589   5.664  0.2483  0.0453 -0.4836
 1875TIP3    H127040   3.654   2.494   5.677  0.8399  0.0656 -0.1167
 1875TIP3    H227041   3.609   2.605   5.584  0.1392 -0.5714 -0.5417
 1876TIP3   OH227042   1.769   4.551  12.994  0.0480  0.7243  0.7625
 1876TIP3    H127043   1.707   4.574  13.064 -0.7651  1.0415 -0.0492
 1876TIP3    H227044   1.765   4.456  12.989 -0.3262  0.7408  0.7573
 1877TIP3   OH227045   5.168   4.717  11.140 -0.6564  0.0252 -0.5702
 1877TIP3    H127046   5.103   4.652  11.114 -1.3861  0.5771 -0.2052
 1877TIP3    H227047   5.156   4.789  11.077 -1.8756  1.0206  0.7130
 1878TIP3   OH227048   3.579   0.439   6.889  0.8508  0.5937  0.7554
 1878TIP3    H127049   3.664   0.447   6.931  0.6662  1.6942  0.9626
 1878TIP3    H227050   3.573   0.516   6.831  0.1301  0.3723  0.5171
 1879TIP3   OH227051   5.439   6.050   4.927 -0.1709 -0.0579  0.5344
 1879TIP3    H127052   5.383   5.987   4.972  0.9241 -0.3538  1.5337
 1879TIP3    H227053   5.504   5.996   4.881  0.8487  0.3071  1.4983
 1880TIP3   OH227054   3.146   5.724  13.234  0.6954  0.2897  0.0574
 1880TIP3    H127055   3.120   5.697  13.146 -0.5898 -0.0001  0.5079
 1880TIP3    H227056   3.201   5.652  13.266 -3.0797 -2.2805  1.4322
 1881TIP3   OH227057   3.076   3.861   0.919 -0.3910 -0.0134 -0.3162
 1881TIP3    H127058   3.014   3.930   0.943 -1.8699 -0.6125 -2.0972
 1881TIP3    H227059   3.125   3.844   0.999 -3.0480 -0.0088  1.4559
 1882TIP3   OH227060   1.827   6.154  11.124  0.0952 -0.3973  0.1959
 1882TIP3    H127061   1.891   6.192  11.063  0.2136  0.2180  0.6839
 1882TIP3    H227062   1.766   6.106  11.068  0.5648 -0.3778 -0.3481
 1883TIP3   OH227063   4.732   0.294  12.393 -0.0526  0.5100  0.3532
 1883TIP3    H127064   4.706   0.212  12.351 -1.1313  0.4798  1.0562
 1883TIP3    H227065   4.654   0.348  12.392 -0.0168  0.6377  1.9990
 1884TIP3   OH227066   1.635   4.469   4.833 -0.3458  0.1026  0.0633
 1884TIP3    H127067   1.659   4.540   4.774  0.3531 -0.8556 -0.8278
 1884TIP3    H227068   1.621   4.393   4.777  1.0453 -1.0241  1.1431
 1885TIP3   OH227069   0.377   0.493   5.139  0.0791  0.1015 -0.4367
 1885TIP3    H127070   0.362   0.550   5.214 -2.1808 -1.4615  0.4288
 1885TIP3    H227071   0.421   0.416   5.177  2.1296  0.7575 -1.3887
 1886TIP3   OH227072   2.732   6.584   5.052  0.0923  0.1589  0.2172
 1886TIP3    H127073   2.642   6.557   5.030 -0.0575  0.9171 -0.1530
 1886TIP3    H227074   2.762   6.630   4.974 -0.3114  2.6163  1.4302
 1887TIP3   OH227075   4.612   5.120   0.018  0.2262  0.2018  0.2634
 1887TIP3    H127076   4.546   5.087   0.078  0.7997 -0.4776  0.5405
 1887TIP3    H227077   4.581   5.094  -0.069  0.5566 -0.9251  0.4582
 1888TIP3   OH227078   4.880   0.896   5.352  0.1048  0.4122  0.0163
 1888TIP3    H127079   4.857   0.961   5.418 -0.2181  2.4349 -1.9881
 1888TIP3    H227080   4.796   0.860   5.324  0.1342  0.6209 -0.3370
 1889TIP3   OH227081   0.425   5.750  15.730 -0.4574 -0.2894  0.1268
 1889TIP3    H127082   0.449   5.841  15.714 -0.6773 -0.3180 -0.3513
 1889TIP3    H227083   0.366   5.754  15.805  0.7851 -0.1860  1.1438
 1890TIP3   OH227084   2.606   5.778   5.098 -0.0822 -0.6120  0.5717
 1890TIP3    H127085   2.616   5.724   5.176 -0.2773  0.1125  1.1066
 1890TIP3    H227086   2.576   5.862   5.131  0.5781 -0.0545 -0.2153
 1891TIP3   OH227087   5.495   5.549  15.707  0.0876  0.1318 -0.2505
 1891TIP3    H127088   5.498   5.453  15.705  0.0066  0.1333 -0.4565
 1891TIP3    H227089   5.512   5.571  15.798  0.4983 -0.0640 -0.2777
 1892TIP3   OH227090   1.244   0.248  12.133 -0.2008  0.5537  0.2128
 1892TIP3    H127091   1.271   0.246  12.041 -1.7974  0.2756 -0.2845
 1892TIP3    H227092   1.301   0.184  12.177 -1.4264 -1.6353 -1.1988
 1893TIP3   OH227093   0.748   5.142   1.433 -0.4007 -0.1376  0.5918
 1893TIP3    H127094   0.656   5.161   1.454 -0.3825 -0.2193  0.7473
 1893TIP3    H227095   0.773   5.074   1.496 -0.4478 -0.6294  0.0842
 1894TIP3   OH227096   2.303   2.716  16.459  0.0109  0.4762 -0.4166
 1894TIP3    H127097   2.280   2.791  16.515 -1.2061  1.3682 -2.0402
 1894TIP3    H227098   2.392   2.736  16.430  0.2951  0.4781  0.4106
 1895TIP3   OH227099   6.644   6.324  10.310  0.2488 -0.2641 -0.0962
 1895TIP3    H127100   6.569   6.374  10.341 -1.1987 -1.9653 -0.6687
 1895TIP3    H227101   6.707   6.327  10.382 -1.4624 -1.0045  1.4969
 1896TIP3   OH227102   2.904   5.969   5.149  0.1040  0.3200 -0.3462
 1896TIP3    H127103   2.842   5.990   5.218 -0.7055 -1.0274 -0.6497
 1896TIP3    H227104   2.976   6.031   5.163 -0.1473  0.2333  1.5341
 1897TIP3   OH227105   0.314   5.742   4.266  0.1218  0.5519  0.1143
 1897TIP3    H127106   0.288   5.669   4.210 -0.8434  1.9144 -1.3168
 1897TIP3    H227107   0.285   5.716   4.353 -1.1151 -0.3689 -0.5273
 1898TIP3   OH227108   3.938   5.266   0.232  0.2978 -0.3137 -0.2621
 1898TIP3    H127109   3.992   5.308   0.299 -1.4839 -0.2728  1.2462
 1898TIP3    H227110   3.950   5.172   0.247  0.0813 -0.3056 -0.0319
 1899TIP3   OH227111   3.564   5.906  10.359 -0.7258  0.6707  0.4556
 1899TIP3    H127112   3.546   5.812  10.356 -0.4451  0.5865  1.2097
 1899TIP3    H227113   3.655   5.914  10.330 -0.6683  0.6805  0.6362
 1900TIP3   OH227114   4.373   4.589  13.633  0.2555  0.2904  0.2984
 1900TIP3    H127115   4.301   4.542  13.591  0.7447 -0.7801  0.6115
 1900TIP3    H227116   4.342   4.679  13.640 -1.9535 -0.5062  2.3358
 1901TIP3   OH227117   6.306   4.113  11.531 -0.0962  0.0858 -0.2498
 1901TIP3    H127118   6.282   4.034  11.580  0.0014  0.3007  0.1510
 1901TIP3    H227119   6.398   4.127  11.553  0.0268  0.0340 -0.7125
 1902TIP3   OH227120   4.587   6.000  15.534 -0.0694  0.1763 -0.1220
 1902TIP3    H127121   4.531   6.014  15.457 -1.4579 -2.1786  0.3842
 1902TIP3    H227122   4.532   6.024  15.608 -0.4703 -2.1128  0.3762
 1903TIP3   OH227123   0.395   3.378   1.487  0.5386 -0.3110 -0.0726
 1903TIP3    H127124   0.491   3.381   1.492  0.5036  1.1310  4.6331
 1903TIP3    H227125   0.370   3.464   1.455  0.8902  0.3248  1.2630
 1904TIP3   OH227126   3.197   0.119  16.093 -0.5690  0.2761 -0.4306
 1904TIP3    H127127   3.102   0.114  16.083 -0.4361  0.4619 -2.0670
 1904TIP3    H227128   3.230   0.038  16.054 -0.0691 -0.0982  0.7228
 1905TIP3   OH227129   2.549   3.298   1.955 -0.2613  0.1093  0.4212
 1905TIP3    H127130   2.523   3.389   1.942 -0.6155 -0.2762 -2.0368
 1905TIP3    H227131   2.640   3.294   1.925 -0.3049 -0.3827  0.3450
 1906TIP3   OH227132   0.122   4.362  13.340  0.5733 -0.1776  0.2344
 1906TIP3    H127133   0.115   4.433  13.276  2.2954  0.2768  0.4881
 1906TIP3    H227134   0.083   4.286  13.296 -1.1160  0.8385 -0.1176
 1907TIP3   OH227135   5.669   3.123   3.070 -0.5023 -0.6349  0.4414
 1907TIP3    H127136   5.687   3.122   3.164  1.1636  1.2648  0.2228
 1907TIP3    H227137   5.624   3.206   3.056 -3.1562 -2.0721 -0.1298
 1908TIP3   OH227138   3.896   0.393  13.179  0.4419 -0.2467  0.5421
 1908TIP3    H127139   3.830   0.440  13.128  2.2349  1.9270  0.0770
 1908TIP3    H227140   3.846   0.344  13.244 -1.7759 -1.2496 -1.7796
 1909TIP3   OH227141   3.119   2.540  13.432 -0.2723 -0.1329  0.2237
 1909TIP3    H127142   3.084   2.612  13.379 -0.2854 -0.3982 -0.1315
 1909TIP3    H227143   3.212   2.537  13.409 -0.1349  0.1826  0.7179
 1910TIP3   OH227144   5.177   0.631  12.440 -0.9889  0.4490  0.3476
 1910TIP3    H127145   5.222   0.653  12.522 -1.4094  1.5859  0.2896
 1910TIP3    H227146   5.095   0.592  12.467 -1.5048  1.5934  0.5012
 1911TIP3   OH227147   4.057   0.981  10.800  0.4284 -0.2561 -0.1268
 1911TIP3    H127148   4.002   0.904  10.809 -0.6325  0.6564  2.1558
 1911TIP3    H227149   3.996   1.054  10.793  1.3340  0.6144  0.6155
 1912TIP3   OH227150   2.607   3.229  10.517 -0.2221 -0.2525 -0.3606
 1912TIP3    H127151   2.527   3.189  10.481 -0.0598 -0.7724 -0.1439
 1912TIP3    H227152   2.609   3.202  10.608 -0.7753  1.2886  0.1514
 1913TIP3   OH227153   3.213   4.466   6.239  0.5461  0.4945 -0.2358
 1913TIP3    H127154   3.213   4.501   6.328 -3.0652  1.4930 -0.4385
 1913TIP3    H227155   3.189   4.374   6.249  1.2664  0.3122 -0.1443
 1914TIP3   OH227156   2.780   2.579  16.177 -0.0860  0.1281  0.9298
 1914TIP3    H127157   2.789   2.490  16.210  1.0677  0.0265  0.3794
 1914TIP3    H227158   2.831   2.632  16.239  1.3565  0.0506 -0.1424
 1915TIP3   OH227159   3.673   0.092   2.400 -0.0544  0.4021 -0.0284
 1915TIP3    H127160   3.584   0.074   2.368 -0.9201  3.9690 -0.0021
 1915TIP3    H227161   3.662   0.110   2.493  0.5913  1.2510 -0.0992
 1916TIP3   OH227162   4.560   0.352  14.502 -0.4640  0.0081 -0.1859
 1916TIP3    H127163   4.498   0.313  14.440 -1.7114 -0.0756  1.0650
 1916TIP3    H227164   4.540   0.310  14.585  0.0938  1.2672  0.6038
 1917TIP3   OH227165   0.754   0.684  11.269  0.1251  0.4430  0.3075
 1917TIP3    H127166   0.742   0.674  11.363  0.5300 -0.2151  0.2959
 1917TIP3    H227167   0.807   0.763  11.259  3.5033 -1.5500  0.8888
 1918TIP3   OH227168   0.201   1.784   3.991 -0.0069 -0.2699  0.5724
 1918TIP3    H127169   0.204   1.769   4.086 -1.2926  0.9163  0.8401
 1918TIP3    H227170   0.203   1.880   3.982  1.8787 -0.3755 -0.7207
 1919TIP3   OH227171   3.579   0.929  12.390 -0.0671  0.3626 -0.3582
 1919TIP3    H127172   3.504   0.986  12.372 -0.6366 -0.6134 -1.1451
 1919TIP3    H227173   3.608   0.956  12.477 -1.7855  0.2794  0.2792
 1920TIP3   OH227174   0.121   1.780  12.028  0.2820 -0.5893 -0.6375
 1920TIP3    H127175   0.185   1.832  12.077  0.7037 -2.4728  0.9331
 1920TIP3    H227176   0.036   1.807  12.063  0.5492 -1.5091  0.8125
 1921TIP3   OH227177   6.216   2.186   2.825 -0.5290  0.2627  0.6236
 1921TIP3    H127178   6.224   2.208   2.918 -1.9754  1.5157  0.4843
 1921TIP3    H227179   6.124   2.203   2.804 -0.1938  0.1432 -1.0669
 1922TIP3   OH227180   1.427   6.502  15.428 -0.1409  0.7882 -0.0786
 1922TIP3    H127181   1.515   6.519  15.394  0.6300 -1.3890  0.6757
 1922TIP3    H227182   1.435   6.519  15.522 -0.6350  0.9407 -0.0634
 1923TIP3   OH227183   2.491   1.004   6.624  0.0829 -0.0024  0.6049
 1923TIP3    H127184   2.564   0.944   6.641 -0.1532  0.5023  4.1653
 1923TIP3    H227185   2.433   0.993   6.700 -0.2987  4.1498  1.1668
 1924TIP3   OH227186   2.315   2.280   5.057 -0.2650 -0.2286  0.5454
 1924TIP3    H127187   2.379   2.350   5.040 -2.0965  1.2872 -0.4728
 1924TIP3    H227188   2.292   2.247   4.970 -0.7871 -0.8401  0.9077
 1925TIP3   OH227189   0.966   1.310  10.336 -0.1565  0.6112 -0.2642
 1925TIP3    H127190   1.001   1.329  10.423  3.6910  1.8976 -1.8450
 1925TIP3    H227191   0.907   1.383  10.318  0.2955  1.2358  0.6742
 1926TIP3   OH227192   4.166   0.072  15.696  0.2410 -0.0893 -0.2298
 1926TIP3    H127193   4.137   0.076  15.605  1.1149  3.0219 -0.4952
 1926TIP3    H227194   4.261   0.061  15.690  0.9226  3.9843 -0.0285
 1927TIP3   OH227195   5.068   3.549  16.181 -0.1152 -0.0413  0.1748
 1927TIP3    H127196   5.118   3.629  16.194  1.0848 -0.7637  0.0770
 1927TIP3    H227197   4.983   3.580  16.149  0.0728  1.2294  0.8202
 1928TIP3   OH227198   5.610   5.718  13.511  0.9345 -0.1140  0.0496
 1928TIP3    H127199   5.694   5.756  13.485  0.8550  0.3803  0.5217
 1928TIP3    H227200   5.549   5.791  13.511  0.8192 -0.2022  1.1314
 1929TIP3   OH227201   3.012   3.186  13.721 -0.3311  0.4522 -0.2290
 1929TIP3    H127202   2.946   3.121  13.745 -1.4272  1.7391  0.3822
 1929TIP3    H227203   3.070   3.190  13.796 -0.9703  1.0276  0.2492
 1930TIP3   OH227204   5.299   4.478   0.281 -0.3670 -0.4354 -0.1999
 1930TIP3    H127205   5.231   4.483   0.213 -0.2562 -1.4710 -0.3914
 1930TIP3    H227206   5.327   4.387   0.281 -0.9451 -0.6662  1.8200
 1931TIP3   OH227207   4.537   3.121   1.286  0.1568  0.0937  0.3879
 1931TIP3    H127208   4.465   3.132   1.224  0.0540 -0.6547  0.3645
 1931TIP3    H227209   4.520   3.036   1.327  0.6467  0.2304  0.8823
 1932TIP3   OH227210   5.270   2.266  17.123  0.1280  0.0055 -0.1507
 1932TIP3    H127211   5.252   2.355  17.090  3.3275  0.5311 -0.7566
 1932TIP3    H227212   5.279   2.278  17.217 -1.6286 -0.1523  0.0798
 1933TIP3   OH227213   0.815   4.980   0.862 -0.1094  0.0440  0.4358
 1933TIP3    H127214   0.897   5.029   0.862  1.1409 -1.8957  1.6006
 1933TIP3    H227215   0.782   4.988   0.952  0.2222 -1.3047  0.7106
 1934TIP3   OH227216   1.950   4.432   1.874  0.3896 -0.2635  0.3151
 1934TIP3    H127217   1.881   4.477   1.923  1.3095  2.0812 -0.3961
 1934TIP3    H227218   2.020   4.496   1.866  1.5336 -1.6079 -1.4055
 1935TIP3   OH227219   1.746   5.304  15.299  0.1558 -0.2941 -0.1734
 1935TIP3    H127220   1.800   5.369  15.343  0.1147 -0.5028  0.1960
 1935TIP3    H227221   1.661   5.311  15.341  0.4011 -1.2124  0.5236
 1936TIP3   OH227222   2.772   4.025  16.087 -0.5326  0.6309  0.4662
 1936TIP3    H127223   2.710   3.952  16.080  0.8309 -0.5364  0.0649
 1936TIP3    H227224   2.813   4.030  16.001  1.1988  0.2005  1.2342
 1937TIP3   OH227225   4.482   3.696   2.509  0.5029 -0.0481  0.1024
 1937TIP3    H127226   4.444   3.639   2.442  1.0877  1.4565 -1.5825
 1937TIP3    H227227   4.523   3.767   2.460  0.8314  1.2033  2.0769
 1938TIP3   OH227228   3.281   2.755   1.678 -0.1992 -0.7843  0.4396
 1938TIP3    H127229   3.333   2.677   1.657  0.1434 -0.7901  1.2734
 1938TIP3    H227230   3.255   2.790   1.593 -1.0745 -2.2898  0.0556
 1939TIP3   OH227231   0.800   0.575  12.425  0.4162 -0.0363 -0.4406
 1939TIP3    H127232   0.783   0.488  12.389 -0.5065 -0.2344  0.4396
 1939TIP3    H227233   0.770   0.636  12.357 -1.4524 -0.4048  0.0055
 1940TIP3   OH227234   5.178   1.430   3.218  0.6680 -0.3989  0.1072
 1940TIP3    H127235   5.139   1.343   3.216 -1.2840  0.4294 -0.9491
 1940TIP3    H227236   5.233   1.433   3.140  0.2228 -0.4735 -0.2129
 1941TIP3   OH227237   1.438   0.242   3.982  0.0661  0.2179 -0.0321
 1941TIP3    H127238   1.466   0.151   3.976 -1.5656 -0.2228 -2.5729
 1941TIP3    H227239   1.343   0.237   3.993 -0.5975  1.4857 -3.8354
 1942TIP3   OH227240   3.492   6.482  11.153 -0.6395 -0.4791 -0.3567
 1942TIP3    H127241   3.560   6.415  11.149 -0.7371 -0.6412  0.5571
 1942TIP3    H227242   3.455   6.483  11.065  1.7343  0.8857 -1.4381
 1943TIP3   OH227243   2.074   2.434   2.614  0.6264  0.1177  0.3915
 1943TIP3    H127244   2.005   2.487   2.654  0.3641 -0.5358  0.8173
 1943TIP3    H227245   2.117   2.493   2.552 -0.3418  0.5166  0.0848
 1944TIP3   OH227246   0.723   4.735  15.416  0.3166 -0.1978 -0.1834
 1944TIP3    H127247   0.666   4.678  15.467 -0.9937 -2.2697 -3.5842
 1944TIP3    H227248   0.664   4.798  15.374  0.5859 -1.4373 -2.5939
 1945TIP3   OH227249   5.636   5.248   5.666 -0.0651  0.6415 -0.1708
 1945TIP3    H127250   5.612   5.159   5.691 -0.7225  0.2455 -2.1038
 1945TIP3    H227251   5.731   5.249   5.670  0.0089 -0.4685 -1.1042
 1946TIP3   OH227252   4.144   0.212  15.364 -0.8096 -0.6143 -0.7165
 1946TIP3    H127253   4.101   0.261  15.294  1.8866 -1.0184 -2.8191
 1946TIP3    H227254   4.224   0.262  15.383  0.1318 -2.2315 -0.2496
 1947TIP3   OH227255   2.365   0.427   4.484  0.0668  0.9583  0.5349
 1947TIP3    H127256   2.372   0.336   4.513  2.3688  0.1808 -1.9978
 1947TIP3    H227257   2.379   0.479   4.563 -0.0123 -0.8817  1.8184
 1948TIP3   OH227258   6.449   5.627   3.639 -0.2737 -0.4092 -0.4065
 1948TIP3    H127259   6.458   5.718   3.611  1.8407 -0.6386 -0.6275
 1948TIP3    H227260   6.490   5.576   3.569  0.7682 -1.3452  0.8378
 1949TIP3   OH227261   4.003   4.550   2.188 -0.2909 -0.4583  0.0923
 1949TIP3    H127262   3.913   4.571   2.161 -0.2623 -1.9682 -1.2817
 1949TIP3    H227263   4.000   4.556   2.283 -1.7464 -0.0648  0.0581
 1950TIP3   OH227264   6.684   1.460   1.752 -0.4412 -0.1573  0.1294
 1950TIP3    H127265   6.598   1.472   1.793 -0.2752 -0.0044  0.4265
 1950TIP3    H227266   6.724   1.389   1.801  0.0715  0.5421  0.7263
 1951TIP3   OH227267   5.681   2.769  11.136  0.3392  0.1735 -0.5806
 1951TIP3    H127268   5.609   2.760  11.073  0.8977 -1.3502 -1.0404
 1951TIP3    H227269   5.717   2.681  11.144  1.5326  0.7267  0.4026
 1952TIP3   OH227270   3.552   4.125   2.312 -0.2605  0.3020 -0.3065
 1952TIP3    H127271   3.559   4.039   2.354 -0.8438  0.6029  0.4460
 1952TIP3    H227272   3.630   4.132   2.258  0.3628 -0.2536  0.4896
 1953TIP3   OH227273   0.599   2.419   0.801 -0.7354 -0.8149 -0.1031
 1953TIP3    H127274   0.513   2.400   0.838 -1.4796  1.0836 -0.7330
 1953TIP3    H227275   0.649   2.455   0.875 -1.5888  1.1413 -0.4134
 1954TIP3   OH227276   6.470   4.692   2.128 -0.3990 -0.3712  0.3647
 1954TIP3    H127277   6.380   4.689   2.097  0.0490 -1.6642 -0.9521
 1954TIP3    H227278   6.468   4.653   2.215 -0.9072 -1.8149 -0.2678
 1955TIP3   OH227279   6.525   2.651  11.432 -0.3570 -0.2396 -0.2728
 1955TIP3    H127280   6.607   2.607  11.412 -0.8149 -0.9153 -0.6992
 1955TIP3    H227281   6.542   2.697  11.515 -0.0595 -1.7414  0.5376
 1956TIP3   OH227282   6.228   3.141   1.501 -0.0436  0.1075  0.5490
 1956TIP3    H127283   6.241   3.121   1.594  0.5912  2.7193  1.1009
 1956TIP3    H227284   6.281   3.075   1.455  2.5513  0.8564  2.2259
 1957TIP3   OH227285   3.264   0.806  12.050  0.0574  0.4157 -0.8896
 1957TIP3    H127286   3.279   0.718  12.015  0.1594 -0.1898  0.6314
 1957TIP3    H227287   3.350   0.836  12.077 -0.3393 -0.1555  1.1456
 1958TIP3   OH227288   2.458   5.053  16.414  0.6330  0.3535 -0.2897
 1958TIP3    H127289   2.432   4.982  16.472 -0.1747  1.8409  1.2761
 1958TIP3    H227290   2.419   5.030  16.329 -0.1312 -0.7625  0.3365
 1959TIP3   OH227291   3.714   1.193   4.146  0.2453  0.6810 -0.0213
 1959TIP3    H127292   3.765   1.157   4.218 -2.9837  0.5070  2.4004
 1959TIP3    H227293   3.647   1.127   4.127 -0.0572  1.4711 -2.0328
 1960TIP3   OH227294   2.192   0.986  15.521  0.5051  0.0295  0.1146
 1960TIP3    H127295   2.157   0.999  15.433  0.1751 -1.1391  0.0599
 1960TIP3    H227296   2.141   1.046  15.576 -0.4492 -0.4549 -0.2261
 1961TIP3   OH227297   4.574   3.968   3.358  0.3217 -0.2153 -0.4587
 1961TIP3    H127298   4.638   3.979   3.429  0.7326 -0.7362 -0.7378
 1961TIP3    H227299   4.628   3.960   3.279 -0.1644  1.8566 -1.0577
 1962TIP3   OH227300   3.903   4.120  15.251 -0.1587 -0.8507 -0.0101
 1962TIP3    H127301   3.955   4.055  15.203  0.1402 -0.3028 -0.4376
 1962TIP3    H227302   3.960   4.196  15.259 -0.8746 -0.2477 -0.4593
 1963TIP3   OH227303   3.804   0.077  11.311  0.3731  0.4839  0.5906
 1963TIP3    H127304   3.876   0.050  11.253 -1.3331 -1.9066 -0.5932
 1963TIP3    H227305   3.740   0.117  11.252 -1.1012 -1.3760  0.8595
 1964TIP3   OH227306   6.073   6.195   0.004 -0.5713  0.1616  0.3461
 1964TIP3    H127307   6.163   6.197   0.036 -0.3168  3.1318 -0.2906
 1964TIP3    H227308   6.061   6.106  -0.027  1.5096 -0.8351  2.1110
 1965TIP3   OH227309   3.621   3.917   0.744  0.7318  0.0941 -0.1725
 1965TIP3    H127310   3.711   3.916   0.775  0.6010 -1.8577  0.2537
 1965TIP3    H227311   3.568   3.899   0.822 -0.2654  3.3258  0.0474
 1966TIP3   OH227312   1.884   5.526  12.178  0.6248 -0.7152 -0.0754
 1966TIP3    H127313   1.873   5.592  12.109 -1.5580 -0.2638  0.6201
 1966TIP3    H227314   1.927   5.574  12.249 -1.3417  0.1718  0.5945
 1967TIP3   OH227315   1.233   0.409  13.389 -1.1245 -0.3918 -0.5771
 1967TIP3    H127316   1.200   0.328  13.349 -0.2346 -1.0801  0.0429
 1967TIP3    H227317   1.236   0.471  13.317 -3.6383 -0.3094 -0.6917
 1968TIP3   OH227318   0.948   3.726  13.733  0.1694 -0.0918 -0.1284
 1968TIP3    H127319   0.853   3.735  13.726  0.1605 -0.8577 -1.3842
 1968TIP3    H227320   0.962   3.686  13.819 -0.7194 -0.8629 -0.3277
 1969TIP3   OH227321   4.021   0.602  12.313 -0.0819 -0.5633  0.3035
 1969TIP3    H127322   4.109   0.621  12.345 -0.7105 -0.3092  2.0062
 1969TIP3    H227323   4.033   0.574  12.222  1.4689  2.5671 -0.6104
 1970TIP3   OH227324   5.717   2.644  10.637 -0.4514 -0.5066 -0.6117
 1970TIP3    H127325   5.756   2.672  10.720 -2.2093  1.3226 -0.3213
 1970TIP3    H227326   5.785   2.660  10.572  0.7923 -1.5463  0.3709
 1971TIP3   OH227327   0.657   0.968  13.538 -0.3038 -0.3356 -0.2665
 1971TIP3    H127328   0.588   0.902  13.528 -0.6952 -0.0264  0.3630
 1971TIP3    H227329   0.715   0.953  13.462 -0.0586 -1.7720  0.1601
 1972TIP3   OH227330   0.683   0.670  15.489  0.3755 -0.0530  0.1021
 1972TIP3    H127331   0.719   0.611  15.556 -0.6184 -1.5473 -0.6114
 1972TIP3    H227332   0.744   0.662  15.416 -1.5011 -3.0233 -1.3209
 1973TIP3   OH227333   3.421   4.807   0.449  0.2646 -0.7481  0.7472
 1973TIP3    H127334   3.376   4.888   0.425 -0.7596 -0.9694  1.8204
 1973TIP3    H227335   3.362   4.765   0.511  0.1047 -3.0353 -0.8621
 1974TIP3   OH227336   5.705   2.206   1.508  0.1445  0.5093 -1.0007
 1974TIP3    H127337   5.663   2.180   1.590  0.6688 -0.8328 -1.1358
 1974TIP3    H227338   5.790   2.241   1.534  1.2816 -1.9758 -1.0387
 1975TIP3   OH227339   2.384   6.218  12.133  0.0414  0.4279  0.0569
 1975TIP3    H127340   2.428   6.135  12.154 -0.0013  0.3780 -0.0498
 1975TIP3    H227341   2.291   6.197  12.136  0.0443  0.1638 -1.1906
 1976TIP3   OH227342   2.195   0.990   3.413 -0.1555 -0.5044  0.3851
 1976TIP3    H127343   2.179   0.977   3.320  0.0551 -1.6804  0.4989
 1976TIP3    H227344   2.111   1.023   3.447 -0.3151 -0.3242 -0.1622
 1977TIP3   OH227345   0.092   2.108   1.453 -0.2940  0.3847 -0.0100
 1977TIP3    H127346   0.155   2.153   1.509  1.6819 -1.2233 -0.7661
 1977TIP3    H227347   0.147   2.052   1.397 -2.3328  0.0599 -1.8070
 1978TIP3   OH227348   2.631   2.093   4.615 -0.0933  0.1230 -0.2310
 1978TIP3    H127349   2.596   2.087   4.527  0.1142 -0.4669 -0.2805
 1978TIP3    H227350   2.632   2.187   4.635 -1.1194  0.1919 -0.4559
 1979TIP3   OH227351   5.594   5.490   2.111  0.3964  0.2487 -0.1654
 1979TIP3    H127352   5.507   5.493   2.152  0.8002  0.4877  0.6927
 1979TIP3    H227353   5.576   5.471   2.019 -0.5843  0.5656 -0.0531
 1980TIP3   OH227354   4.124   5.058  15.897  0.6450  0.4316 -0.2552
 1980TIP3    H127355   4.098   5.144  15.929  1.4261 -0.5434  3.4941
 1980TIP3    H227356   4.042   5.009  15.888  0.3888  0.8149  0.0166
 1981TIP3   OH227357   0.019   6.469  11.854 -0.0238  0.3767  0.1044
 1981TIP3    H127358  -0.019   6.434  11.773  0.1404 -0.3591  0.3368
 1981TIP3    H227359   0.113   6.473  11.836  0.3033 -1.8677  0.9741
 1982TIP3   OH227360   6.468   2.701  16.057  0.3668 -0.1040 -0.3437
 1982TIP3    H127361   6.441   2.792  16.044  0.1955 -0.0996  0.0438
 1982TIP3    H227362   6.557   2.707  16.091  0.5128 -0.0964 -0.7130
 1983TIP3   OH227363   3.889   4.652  15.785  0.1968 -0.2375 -0.1467
 1983TIP3    H127364   3.939   4.663  15.705  0.0143 -0.8542 -0.3533
 1983TIP3    H227365   3.888   4.738  15.826  0.3131  0.0702 -0.7936
 1984TIP3   OH227366   5.768   4.797  11.204 -0.5446  0.2041  0.1685
 1984TIP3    H127367   5.828   4.813  11.132 -2.2808  1.4117 -1.0921
 1984TIP3    H227368   5.765   4.701  11.212  0.5015  0.0944 -0.6282
 1985TIP3   OH227369   3.776   3.455  14.099  0.4923  0.0531  0.3457
 1985TIP3    H127370   3.827   3.444  14.179 -0.2128  0.3233  0.8387
 1985TIP3    H227371   3.815   3.393  14.037  0.6911 -0.5476  1.0638
 1986TIP3   OH227372   1.781   6.485  14.063 -0.1056  0.0044  0.0690
 1986TIP3    H127373   1.748   6.498  13.974 -0.7296 -0.5994  0.1989
 1986TIP3    H227374   1.722   6.419  14.101  0.9974 -0.7764  0.4681
 1987TIP3   OH227375   2.882   6.219  11.182 -0.7459  0.1915 -0.3122
 1987TIP3    H127376   2.825   6.259  11.116 -0.7158  0.8029  0.0210
 1987TIP3    H227377   2.826   6.204  11.257 -0.7931 -0.5632 -0.4989
 1988TIP3   OH227378   5.475   3.685  16.601 -0.0193  0.0899 -0.4969
 1988TIP3    H127379   5.514   3.673  16.688 -2.7040 -2.3769  0.5141
 1988TIP3    H227380   5.493   3.604  16.555  1.0838  1.2514 -2.2530
 1989TIP3   OH227381   2.559   5.128  14.266 -0.4997 -0.5547  0.4003
 1989TIP3    H127382   2.507   5.204  14.241 -0.4861  0.0442  2.0529
 1989TIP3    H227383   2.644   5.164  14.291 -0.6065 -1.0630  1.5405
 1990TIP3   OH227384   4.644   0.226  11.944 -0.5300  0.4079 -0.2292
 1990TIP3    H127385   4.590   0.305  11.941 -0.2230  0.6746  0.8313
 1990TIP3    H227386   4.641   0.198  12.035  0.2874 -0.1676 -0.3653
 1991TIP3   OH227387   1.414   5.871   2.108 -0.0115  0.2834 -0.0029
 1991TIP3    H127388   1.419   5.786   2.152  1.9816  1.0513  1.4243
 1991TIP3    H227389   1.468   5.929   2.162 -2.2953  2.8045 -0.2113
 1992TIP3   OH227390   0.400   2.603   3.646 -0.0167  0.5043  0.3521
 1992TIP3    H127391   0.448   2.634   3.723  1.0530  0.2101 -0.1806
 1992TIP3    H227392   0.458   2.539   3.605 -0.3042  1.1127 -1.0562
 1993TIP3   OH227393   6.083   1.080  11.881  0.1075 -0.1238 -0.1355
 1993TIP3    H127394   6.062   0.987  11.872  0.1426 -0.2126  0.6492
 1993TIP3    H227395   6.177   1.081  11.899  0.2091  0.1000 -0.6607
 1994TIP3   OH227396   0.922   4.827   4.680  0.1654  0.3719 -0.3725
 1994TIP3    H127397   0.954   4.914   4.701 -1.9129  1.1661 -0.2268
 1994TIP3    H227398   0.930   4.821   4.584  3.2875 -0.6040 -0.1624
 1995TIP3   OH227399   4.521   3.688  15.443 -0.3843  0.0969 -0.2785
 1995TIP3    H127400   4.562   3.604  15.421  0.4336  0.6747 -1.0394
 1995TIP3    H227401   4.435   3.686  15.401 -0.6122 -0.5897  0.2086
 1996TIP3   OH227402   0.742   3.973  17.062  0.2457  0.0380 -0.7080
 1996TIP3    H127403   0.727   3.902  17.000 -1.2801  1.2675 -1.7898
 1996TIP3    H227404   0.685   4.044  17.033 -0.2745  0.7967  1.8811
 1997TIP3   OH227405   0.384   0.003   5.338 -0.5166 -0.2644  0.2953
 1997TIP3    H127406   0.382  -0.049   5.257 -0.2827  0.2587 -0.0557
 1997TIP3    H227407   0.439  -0.048   5.397  1.0562  0.3226 -0.5920
 1998TIP3   OH227408   1.439   2.199   3.193 -0.1648 -0.9844  0.1532
 1998TIP3    H127409   1.402   2.213   3.280 -1.2055 -2.2485 -0.0444
 1998TIP3    H227410   1.398   2.266   3.138  0.9912  0.2334  0.7443
 1999TIP3   OH227411   1.127   4.705   1.607  0.1992  0.2320  0.1858
 1999TIP3    H127412   1.057   4.771   1.605 -0.4636 -0.4618 -0.1614
 1999TIP3    H227413   1.155   4.696   1.516 -0.7122 -0.9801 -0.0005
 2000TIP3   OH227414   5.054   6.207  11.629 -0.6927 -0.2099 -0.5446
 2000TIP3    H127415   4.978   6.252  11.592 -0.0146 -0.0784 -1.8435
 2000TIP3    H227416   5.085   6.266  11.697 -2.0060 -0.4772  0.3075
 2001TIP3   OH227417   4.235   4.887  16.875 -0.1088 -0.1484  0.4301
 2001TIP3    H127418   4.162   4.844  16.920  1.0086 -2.1906  0.4185
 2001TIP3    H227419   4.260   4.826  16.806  0.9402  0.9930 -0.2461
 2002TIP3   OH227420   0.674   3.005  13.574 -1.0627  0.4884  0.0244
 2002TIP3    H127421   0.650   3.025  13.484 -1.0187 -0.2831 -0.1653
 2002TIP3    H227422   0.607   2.943  13.603 -0.0692 -0.6721 -0.0769
 2003TIP3   OH227423   5.720   3.905  13.690  0.3747  0.7222  0.3588
 2003TIP3    H127424   5.795   3.923  13.746  2.6035  1.1198 -2.5200
 2003TIP3    H227425   5.671   3.987  13.688 -0.7961  0.1997  2.9696
 2004TIP3   OH227426   5.809   6.437  11.516 -0.3353 -0.1349  0.8384
 2004TIP3    H127427   5.717   6.435  11.543 -0.2315 -0.3047  1.1972
 2004TIP3    H227428   5.808   6.411  11.424 -0.7230  0.6990  0.6079
 2005TIP3   OH227429   0.093   1.286   0.452  0.4583 -0.5493 -0.3538
 2005TIP3    H127430   0.070   1.356   0.391  0.3830 -0.4393 -0.2014
 2005TIP3    H227431   0.185   1.302   0.474  0.7038 -1.0327 -1.0205
 2006TIP3   OH227432   4.901   6.513  13.118  0.5496  0.3079  0.3833
 2006TIP3    H127433   4.845   6.541  13.190  0.7031 -0.0425  0.6395
 2006TIP3    H227434   4.957   6.445  13.156  0.8657  0.3657  0.0234
 2007TIP3   OH227435   2.722   1.484  11.525  0.1481  0.2103 -0.0572
 2007TIP3    H127436   2.733   1.574  11.556  0.0010 -0.1402  1.0537
 2007TIP3    H227437   2.649   1.450  11.575 -0.1427 -0.3721 -0.8566
 2008TIP3   OH227438   4.853   3.512   2.823 -0.5930  0.0155 -0.8291
 2008TIP3    H127439   4.773   3.548   2.784 -0.4822  1.8838  0.5173
 2008TIP3    H227440   4.920   3.522   2.755 -1.0606  0.3572 -1.2410
 2009TIP3   OH227441   6.628   6.502  12.210 -0.3528 -0.2119  0.3368
 2009TIP3    H127442   6.709   6.543  12.237 -0.1767 -0.8234  0.7608
 2009TIP3    H227443   6.655   6.424  12.162 -0.6544  0.8235 -1.6165
 2010TIP3   OH227444   3.372   6.391  16.588  0.1058  0.3039 -0.6072
 2010TIP3    H127445   3.459   6.353  16.600  0.1088  0.1241 -1.1685
 2010TIP3    H227446   3.389   6.479  16.556  0.0892  0.5369  0.0167
 2011TIP3   OH227447   4.381   2.029  11.136 -0.6211 -0.5902  0.1200
 2011TIP3    H127448   4.476   2.042  11.131 -0.9013  1.8326 -0.7015
 2011TIP3    H227449   4.359   2.044  11.227 -0.2873 -0.4189  0.1742
 2012TIP3   OH227450   5.381   0.128   2.341  0.4576  0.0940  0.3993
 2012TIP3    H127451   5.447   0.160   2.402 -0.2253 -1.1532  1.8633
 2012TIP3    H227452   5.425   0.061   2.289  0.8634  0.7038 -0.0633
 2013TIP3   OH227453   6.050   2.950  11.073  0.3626 -0.0540  0.2691
 2013TIP3    H127454   6.081   2.891  11.004  0.5605  1.5867 -1.1105
 2013TIP3    H227455   5.972   2.991  11.036 -0.7214 -0.6023  1.8433
 2014TIP3   OH227456   5.530   3.749   1.741 -0.1276  0.2857  1.2578
 2014TIP3    H127457   5.457   3.808   1.723 -0.0140  0.3237  0.9074
 2014TIP3    H227458   5.522   3.729   1.834  0.2798  1.4766  1.5744
 2015TIP3   OH227459   0.252   1.054  14.052 -0.0726  0.1196  0.2059
 2015TIP3    H127460   0.232   0.968  14.088  0.3367 -1.1069 -2.2550
 2015TIP3    H227461   0.167   1.097  14.042 -0.1300  1.0026  3.5192
 2016TIP3   OH227462   2.103   3.714  11.193 -0.9301  0.1243 -0.3451
 2016TIP3    H127463   2.150   3.760  11.262 -1.7389 -0.4943  0.6561
 2016TIP3    H227464   2.025   3.679  11.236 -0.9950 -1.0663 -1.3620
 2017TIP3   OH227465   0.544   2.453  16.893  0.3800  0.1855 -0.0369
 2017TIP3    H127466   0.462   2.501  16.881  1.3329  2.3949  1.4232
 2017TIP3    H227467   0.523   2.387  16.959 -0.1777  0.9723  0.6048
 2018TIP3   OH227468   4.801   0.531  11.836 -0.0971 -0.5359 -0.8815
 2018TIP3    H127469   4.721   0.577  11.811 -0.6239 -0.1936  1.2991
 2018TIP3    H227470   4.807   0.458  11.774 -1.4900  0.0561 -1.7468
 2019TIP3   OH227471   5.828   3.254   0.268 -0.0964 -0.8713  0.0059
 2019TIP3    H127472   5.748   3.236   0.318  1.1034  0.6082  2.6155
 2019TIP3    H227473   5.815   3.342   0.232  0.6700 -0.2680  1.1656
 2020TIP3   OH227474   0.157   0.254   2.824  0.2447  0.5203  0.0758
 2020TIP3    H127475   0.200   0.170   2.839  1.6210  1.0585 -0.6342
 2020TIP3    H227476   0.097   0.237   2.752 -0.4045 -0.1394  0.7626
 2021TIP3   OH227477   3.009   6.222   2.852 -0.8658 -0.5942 -0.1102
 2021TIP3    H127478   3.031   6.269   2.771  0.6877 -1.2510 -0.1172
 2021TIP3    H227479   3.039   6.133   2.836  0.8998 -0.3960  1.7024
 2022TIP3   OH227480   3.151   4.725  16.666  0.5347 -0.0408  0.2761
 2022TIP3    H127481   3.094   4.648  16.664  0.3218  0.0751 -2.5451
 2022TIP3    H227482   3.102   4.792  16.618  1.7655  1.0452  0.4956
 2023TIP3   OH227483   0.739   1.539  14.964  0.1329 -0.0314 -0.3900
 2023TIP3    H127484   0.693   1.623  14.970  0.2924  0.1309 -1.2519
 2023TIP3    H227485   0.715   1.505  14.877  0.7168 -0.4841 -0.3813
 2024TIP3   OH227486   6.544   6.351  13.979 -0.0099  0.2663  0.9222
 2024TIP3    H127487   6.506   6.420  13.925 -1.2882  0.3228  1.8608
 2024TIP3    H227488   6.633   6.340  13.944 -1.2318 -0.7824 -2.2321
 2025TIP3   OH227489   6.709   2.616   5.861 -0.1230  0.4640 -0.3632
 2025TIP3    H127490   6.630   2.665   5.837 -0.6067  0.2482  0.7130
 2025TIP3    H227491   6.735   2.652   5.946 -1.8230 -2.5523  1.6409
 2026TIP3   OH227492   0.921   3.870   6.316  0.2987  0.5302 -0.5297
 2026TIP3    H127493   0.873   3.820   6.382 -1.0262  0.7493 -1.2850
 2026TIP3    H227494   0.967   3.938   6.365  0.5441 -0.2312  0.3067
 2027TIP3   OH227495   0.865   6.705  14.420  0.2462 -0.3317 -0.0308
 2027TIP3    H127496   0.927   6.698  14.348 -0.3855 -1.0529 -0.5177
 2027TIP3    H227497   0.896   6.643  14.486  0.9113  0.4396  0.3996
 2028TIP3   OH227498   5.160   6.381  16.788  0.3022  0.0943  0.4488
 2028TIP3    H127499   5.083   6.327  16.771  0.3751 -0.1713  0.9244
 2028TIP3    H227500   5.127   6.452  16.844  0.4303 -0.1094  0.7865
 2029TIP3   OH227501   1.397   5.043  16.076 -0.3184 -0.1830  0.0339
 2029TIP3    H127502   1.463   5.038  16.007 -0.4524  0.0189 -0.1091
 2029TIP3    H227503   1.383   4.952  16.103 -1.4526 -0.4463 -1.3286
 2030TIP3   OH227504   1.717   3.168  16.413 -0.1594 -0.3135  0.0947
 2030TIP3    H127505   1.728   3.218  16.332 -0.8695 -0.2535  0.0332
 2030TIP3    H227506   1.629   3.188  16.442 -0.0935 -0.7467  0.6099
 2031TIP3   OH227507   1.226   2.847   6.510  0.7013  0.1265  0.7381
 2031TIP3    H127508   1.168   2.902   6.561 -1.7891  0.4770 -2.1714
 2031TIP3    H227509   1.193   2.758   6.523  0.4347  0.1480  0.2347
 2032TIP3   OH227510   6.628   0.022  14.393 -0.1030  0.0404  0.1142
 2032TIP3    H127511   6.698   0.064  14.343 -0.0577 -0.0451  0.1056
 2032TIP3    H227512   6.605  -0.055  14.341  0.2092 -0.2632  0.4153
 2033TIP3   OH227513   4.032   3.300   3.681 -0.1488 -0.5241 -0.4576
 2033TIP3    H127514   4.052   3.262   3.596 -0.7139 -1.2340 -0.2877
 2033TIP3    H227515   4.092   3.256   3.742 -0.5645 -0.8993 -0.3135
 2034TIP3   OH227516   4.758   4.014   5.277 -0.1892 -0.0557 -0.1017
 2034TIP3    H127517   4.679   4.022   5.224 -0.2409 -0.7727 -0.1444
 2034TIP3    H227518   4.829   4.041   5.219 -0.2664 -0.6484 -0.4855
 2035TIP3   OH227519   5.100   0.599   0.056 -0.1188  0.2016 -0.0323
 2035TIP3    H127520   5.008   0.574   0.053 -0.4185  1.2954 -0.3256
 2035TIP3    H227521   5.138   0.541   0.122 -1.0347 -0.1965  0.1612
 2036TIP3   OH227522   6.182   4.683   2.091 -0.2630  0.6771 -0.0075
 2036TIP3    H127523   6.138   4.738   2.026  0.3592  1.1464 -0.0373
 2036TIP3    H227524   6.116   4.668   2.159 -0.8180  0.4494 -0.5819
 2037TIP3   OH227525   1.778   3.656  16.148 -0.2909 -0.1382  0.1156
 2037TIP3    H127526   1.756   3.659  16.241  0.6999  1.1025  0.3389
 2037TIP3    H227527   1.731   3.580  16.114 -0.7492 -0.5412  1.6033
 2038TIP3   OH227528   3.644   2.276  14.559 -0.2007 -0.4236  0.4909
 2038TIP3    H127529   3.685   2.213  14.618 -1.4681 -1.3507  0.4239
 2038TIP3    H227530   3.689   2.263  14.475 -1.7913 -2.7855 -0.1073
 2039TIP3   OH227531   3.288   4.944   2.686  0.0434  0.3069  0.0347
 2039TIP3    H127532   3.330   4.858   2.680 -0.5736  0.0617 -1.0720
 2039TIP3    H227533   3.241   4.953   2.603 -2.6099  0.3100  1.4330
 2040TIP3   OH227534   5.379   3.297  14.281  0.4467 -0.2668 -0.6026
 2040TIP3    H127535   5.450   3.294  14.346  0.3911  1.4420 -0.4317
 2040TIP3    H227536   5.300   3.279  14.332  0.3591  1.4360 -0.0685
 2041TIP3   OH227537   1.630   0.531  14.492  0.1161  0.1538 -0.3503
 2041TIP3    H127538   1.681   0.545  14.571  0.7573  0.6964 -0.8560
 2041TIP3    H227539   1.666   0.592  14.428 -0.4100 -0.2566 -1.0568
 2042TIP3   OH227540   0.022   5.067   1.033  0.0312  0.1575 -0.1638
 2042TIP3    H127541   0.059   5.013   1.102  2.1741  2.4210  0.6255
 2042TIP3    H227542   0.098   5.097   0.983 -0.8816  3.0170 -0.0316
 2043TIP3   OH227543   4.798   5.381  15.024 -0.1262 -0.2171 -0.1049
 2043TIP3    H127544   4.829   5.438  14.953 -0.8572  1.3552  0.7735
 2043TIP3    H227545   4.825   5.427  15.104 -1.3516 -0.7503  0.6369
 2044TIP3   OH227546   2.759   5.701   2.925  0.8782 -0.1186  0.2031
 2044TIP3    H127547   2.681   5.644   2.920  1.3504 -0.9081  1.2922
 2044TIP3    H227548   2.729   5.786   2.893 -0.2110 -0.6336 -0.1983
 2045TIP3   OH227549   4.947   6.609   1.593  0.1204 -0.2885 -0.3457
 2045TIP3    H127550   4.891   6.547   1.640  0.3168 -1.3121 -1.4244
 2045TIP3    H227551   4.949   6.687   1.649  0.7924 -1.6509  1.6320
 2046TIP3   OH227552   5.151   0.946  10.730 -0.1451 -0.5133  0.4826
 2046TIP3    H127553   5.217   0.916  10.668  2.5179  3.0331  1.2367
 2046TIP3    H227554   5.196   0.949  10.815 -2.2503 -0.7869  1.7071
 2047TIP3   OH227555   4.172   0.647   4.814 -0.2437  0.3230 -0.5882
 2047TIP3    H127556   4.248   0.613   4.861 -1.2566 -1.7327 -0.3133
 2047TIP3    H227557   4.132   0.710   4.875 -0.2140 -0.5455  0.3603
 2048TIP3   OH227558   2.641   4.488   0.284  0.2393  0.2712  0.2567
 2048TIP3    H127559   2.660   4.575   0.250  1.8868  0.4429  1.4714
 2048TIP3    H227560   2.610   4.503   0.373 -2.1003 -0.2784 -0.4002
 2049TIP3   OH227561   3.073   0.227   5.093  0.2280 -0.8760 -0.1125
 2049TIP3    H127562   3.132   0.235   5.168  1.6473 -2.9203 -0.9356
 2049TIP3    H227563   3.131   0.227   5.016 -1.1727  0.9931 -1.2595
 2050TIP3   OH227564   5.059   3.638   2.589 -0.7989  0.0863  0.2956
 2050TIP3    H127565   4.969   3.654   2.562 -0.8659 -1.2441 -0.3726
 2050TIP3    H227566   5.095   3.581   2.521  0.1980 -0.2977  1.1135
 2051TIP3   OH227567   3.267   0.285  14.546  1.4655 -0.2347 -0.2284
 2051TIP3    H127568   3.205   0.257  14.614 -0.3551 -0.4505 -1.8820
 2051TIP3    H227569   3.328   0.342  14.592 -0.8139  1.1611  1.2900
 2052TIP3   OH227570   1.093   4.285  15.422  0.4986 -0.8094  0.3004
 2052TIP3    H127571   1.120   4.196  15.400  1.0184 -0.3083 -1.2357
 2052TIP3    H227572   1.174   4.327  15.451  0.4320 -0.6013  0.1823
 2053TIP3   OH227573   2.825   6.252   1.978 -0.0549  0.3699 -0.3183
 2053TIP3    H127574   2.738   6.291   1.983  0.0058  0.4391  0.2728
 2053TIP3    H227575   2.865   6.271   2.063  1.3328  2.2165 -1.2910
 2054TIP3   OH227576   3.960   1.127  16.841 -0.1015  0.1933  0.4906
 2054TIP3    H127577   4.054   1.119  16.859  0.3178 -0.4847 -1.7203
 2054TIP3    H227578   3.952   1.207  16.790 -0.6419 -0.0603  0.1699
 2055TIP3   OH227579   1.650   2.086  13.235 -0.3032  1.6380  0.0326
 2055TIP3    H127580   1.613   2.169  13.206 -0.3561  1.7790  0.4929
 2055TIP3    H227581   1.665   2.098  13.329  0.2725  1.3451 -0.0172
 2056TIP3   OH227582   1.666   4.414   3.007  0.2587  0.9486  0.3696
 2056TIP3    H127583   1.746   4.383   3.050  0.7455  0.7787 -0.6368
 2056TIP3    H227584   1.645   4.345   2.944 -1.3996  0.3872  1.4739
 2057TIP3   OH227585   5.416   1.693   3.164  0.2112  0.1970  0.2124
 2057TIP3    H127586   5.404   1.769   3.107 -2.4792 -0.1505  0.2293
 2057TIP3    H227587   5.333   1.682   3.209  0.8831 -2.1174  1.0529
 2058TIP3   OH227588   6.696   6.026  10.647 -0.0484 -0.0566  0.0245
 2058TIP3    H127589   6.712   6.016  10.554 -2.2630  0.5168 -0.4679
 2058TIP3    H227590   6.643   5.950  10.671  1.5002 -0.8376  1.1077
 2059TIP3   OH227591   4.860   2.113   5.047  0.2824  0.4326  0.2376
 2059TIP3    H127592   4.953   2.110   5.023  0.3559  3.1933 -0.2130
 2059TIP3    H227593   4.816   2.138   4.965 -0.7203  0.2926  0.7232
 2060TIP3   OH227594   4.748   0.164  15.689  0.2778  0.0626  0.4237
 2060TIP3    H127595   4.789   0.248  15.709  0.0428  0.6174 -1.2184
 2060TIP3    H227596   4.656   0.176  15.713  0.0368  0.6511 -0.7055
 2061TIP3   OH227597   3.870   0.692  11.851 -0.1407  0.1930  0.2641
 2061TIP3    H127598   3.859   0.653  11.764  2.6402  2.9240 -1.5585
 2061TIP3    H227599   3.784   0.685  11.892 -2.0092  0.0139 -3.3076
 2062TIP3   OH227600   1.742   3.385  14.237 -0.4593  0.2035 -0.2134
 2062TIP3    H127601   1.660   3.433  14.234  0.1548  1.3384  0.3814
 2062TIP3    H227602   1.795   3.432  14.302 -0.1546 -1.8124  1.0997
 2063TIP3   OH227603   2.408   5.732   2.163 -0.8311 -1.1410 -0.0302
 2063TIP3    H127604   2.399   5.711   2.256 -1.4094  2.4982  0.8837
 2063TIP3    H227605   2.319   5.752   2.134 -0.4027 -0.2012 -0.7703
 2064TIP3   OH227606   6.769   6.327   0.651 -0.3854 -0.6582  0.3734
 2064TIP3    H127607   6.700   6.340   0.716  0.1311  0.5582  0.7127
 2064TIP3    H227608   6.845   6.371   0.689 -0.2942  0.8415 -1.4174
 2065TIP3   OH227609   1.663   4.558   4.564 -0.4565  0.3163 -0.1025
 2065TIP3    H127610   1.652   4.574   4.470 -1.4969  0.6829  0.0656
 2065TIP3    H227611   1.623   4.473   4.578 -0.2762  0.2498  0.0057
 2066TIP3   OH227612   3.065   1.088  12.720 -0.3947 -0.0444 -0.0546
 2066TIP3    H127613   3.085   1.153  12.653  1.3531  0.6816  1.0971
 2066TIP3    H227614   3.093   1.005  12.682  2.3818  0.5808  0.3657
 2067TIP3   OH227615   2.219   3.867   3.110  0.2329 -0.1838  0.2937
 2067TIP3    H127616   2.276   3.943   3.125 -1.1451  1.0342 -0.3158
 2067TIP3    H227617   2.262   3.817   3.041  0.3531  0.9667 -0.4930
 2068TIP3   OH227618   2.055   1.708   1.370 -0.2882  0.2024 -0.0191
 2068TIP3    H127619   2.015   1.697   1.456  1.0246  0.4164  0.6336
 2068TIP3    H227620   2.005   1.779   1.329 -0.4596  0.5913  0.8499
 2069TIP3   OH227621   0.298   4.183   0.886  0.1547  0.2552  0.1241
 2069TIP3    H127622   0.363   4.240   0.928  0.3533  0.9288 -1.0399
 2069TIP3    H227623   0.291   4.217   0.796  1.4987 -2.5046 -1.1593
 2070TIP3   OH227624   0.712   2.768  15.190  0.1415  0.0295  0.3977
 2070TIP3    H127625   0.743   2.856  15.169  2.8117 -0.7534  0.7337
 2070TIP3    H227626   0.695   2.727  15.105 -0.3653  0.5868  0.2201
 2071TIP3   OH227627   5.894   1.404  16.590  0.2227  0.3250  0.3639
 2071TIP3    H127628   5.947   1.329  16.619 -1.4688 -0.7319  0.8714
 2071TIP3    H227629   5.811   1.366  16.563 -0.7370  2.0355  0.7486
 2072TIP3   OH227630   5.200   5.235   1.095 -0.2978  0.0307  0.0059
 2072TIP3    H127631   5.225   5.226   1.187 -1.6666  3.5887  0.8663
 2072TIP3    H227632   5.254   5.306   1.062 -0.1750 -0.8795 -1.8527
 2073TIP3   OH227633   3.393   3.258   6.629  0.3533  0.3893 -0.1657
 2073TIP3    H127634   3.436   3.342   6.643  0.5594  0.2946 -0.2195
 2073TIP3    H227635   3.442   3.217   6.558 -0.4410  0.6906 -0.8966
 2074TIP3   OH227636   1.738   2.271   3.643  0.0454  0.1059  0.1242
 2074TIP3    H127637   1.669   2.239   3.702  0.5573 -0.1209  0.6069
 2074TIP3    H227638   1.754   2.196   3.585  1.2892 -0.5769  1.2961
 2075TIP3   OH227639   3.764   6.538   4.986  0.1011  0.5583  0.0595
 2075TIP3    H127640   3.829   6.593   4.943  0.3680 -0.0474 -0.3304
 2075TIP3    H227641   3.784   6.449   4.956 -1.4378  0.4427 -0.7776
 2076TIP3   OH227642   6.637   0.654  14.955 -0.0302 -0.9288 -0.3738
 2076TIP3    H127643   6.672   0.651  15.044  1.5459  0.2471 -0.8972
 2076TIP3    H227644   6.563   0.594  14.956 -0.2198 -0.7404  1.7963
 2077TIP3   OH227645   5.054   4.518   0.442  0.3364 -0.0177  0.1951
 2077TIP3    H127646   4.995   4.447   0.414  0.9258 -0.3269 -0.2822
 2077TIP3    H227647   5.090   4.552   0.360  2.0340 -0.8903  0.5524
 2078TIP3   OH227648   1.947   2.614   6.604 -0.3312 -0.6360 -0.4732
 2078TIP3    H127649   1.961   2.692   6.550 -0.9421 -1.3508 -1.7115
 2078TIP3    H227650   2.033   2.570   6.604  0.0341  0.0460  0.2870
 2079TIP3   OH227651   1.020   2.776  13.042 -0.1360  0.1438  0.0818
 2079TIP3    H127652   0.979   2.767  13.128 -1.8334  3.6046 -0.2213
 2079TIP3    H227653   0.959   2.734  12.982 -1.0267  1.2612  0.1680
 2080TIP3   OH227654   5.325   0.869   6.414 -0.4211 -0.6060 -0.0262
 2080TIP3    H127655   5.291   0.822   6.490  0.2900 -1.3593 -0.1682
 2080TIP3    H227656   5.256   0.933   6.394  0.2660  1.0959  2.5287
 2081TIP3   OH227657   5.305   2.709   0.737  0.8324 -0.1614 -0.3043
 2081TIP3    H127658   5.303   2.732   0.830 -1.6511 -2.1470  0.2459
 2081TIP3    H227659   5.270   2.620   0.733  1.1419 -0.2563 -3.1335
 2082TIP3   OH227660   3.540   4.503   0.288 -0.1837 -0.6753  0.2679
 2082TIP3    H127661   3.458   4.548   0.308  0.1110 -0.0920  0.1917
 2082TIP3    H227662   3.608   4.570   0.300  0.1096 -0.5775 -1.6588
 2083TIP3   OH227663   1.667   6.214   3.110 -0.2094 -0.9288 -0.4028
 2083TIP3    H127664   1.651   6.135   3.059  2.5183 -1.5942 -0.4052
 2083TIP3    H227665   1.601   6.213   3.179 -1.1338 -2.4150 -1.2812
 2084TIP3   OH227666   2.522   5.390   1.763  0.0767  0.1763  0.1575
 2084TIP3    H127667   2.433   5.405   1.732  0.1749 -1.3117 -0.9331
 2084TIP3    H227668   2.511   5.355   1.852 -0.4361 -0.2188 -0.0612
 2085TIP3   OH227669   4.048   2.185   4.201 -0.0264 -0.0896  0.4192
 2085TIP3    H127670   4.101   2.120   4.247  0.1018 -0.1128  0.2377
 2085TIP3    H227671   3.977   2.134   4.162 -1.3690  0.1598  2.3341
 2086TIP3   OH227672   6.523   5.287  15.116  0.2090  0.2804 -0.2675
 2086TIP3    H127673   6.574   5.252  15.189 -1.8880  0.2126  1.2618
 2086TIP3    H227674   6.527   5.382  15.128  0.0306  0.2771 -0.1821
 2087TIP3   OH227675   3.548   5.703   5.062 -0.6567 -0.0104 -0.4391
 2087TIP3    H127676   3.609   5.630   5.055 -0.7725 -0.0940 -0.5970
 2087TIP3    H227677   3.509   5.694   5.149  0.2423  0.5917  0.0331
 2088TIP3   OH227678   4.219   1.514  16.908  0.0015  0.4853 -0.2705
 2088TIP3    H127679   4.178   1.552  16.830 -0.5448  2.1641  0.7845
 2088TIP3    H227680   4.313   1.513  16.888 -0.2183 -0.0990 -1.3438
 2089TIP3   OH227681   4.996   2.536  15.715  0.3264  0.3563 -0.2730
 2089TIP3    H127682   5.005   2.615  15.769 -0.4023  1.9049 -2.2594
 2089TIP3    H227683   5.019   2.566  15.626 -0.3826 -1.5667 -1.1536
 2090TIP3   OH227684   3.007   1.291  16.410 -0.1110 -0.1252  0.2759
 2090TIP3    H127685   3.076   1.351  16.436 -0.3519  0.5650 -0.6290
 2090TIP3    H227686   2.926   1.336  16.433 -0.3242  0.3671 -1.2741
 2091TIP3   OH227687   2.898   0.780  11.711 -0.1511  0.4188 -0.3895
 2091TIP3    H127688   2.832   0.767  11.779  0.0905  2.4360  0.2831
 2091TIP3    H227689   2.847   0.804  11.633 -0.2856  0.7662 -0.1974
 2092TIP3   OH227690   4.108   5.295  11.988  0.0505 -0.4843  0.1065
 2092TIP3    H127691   4.040   5.240  11.949 -0.2424  0.2239 -0.4158
 2092TIP3    H227692   4.074   5.318  12.074 -1.2978  1.4392 -0.8725
 2093TIP3   OH227693   4.391   2.415  14.737 -0.0100 -0.3129 -0.1533
 2093TIP3    H127694   4.482   2.387  14.743  0.0608  0.1588  1.4273
 2093TIP3    H227695   4.340   2.338  14.761 -0.0543 -0.6274 -1.2084
 2094TIP3   OH227696   4.432   2.453  16.942 -0.6890  0.0871  0.2742
 2094TIP3    H127697   4.493   2.395  16.896 -0.0537  1.5283 -0.7614
 2094TIP3    H227698   4.349   2.405  16.942  0.0878 -1.3113  0.4756
 2095TIP3   OH227699   1.954   0.052  11.400  0.2017 -0.7088  0.4820
 2095TIP3    H127700   2.017   0.097  11.343  0.0079 -2.2749 -1.0772
 2095TIP3    H227701   1.950   0.105  11.479  1.8248  0.6170 -0.2681
 2096TIP3   OH227702   2.221   0.602  13.022  0.0439 -0.0014 -0.0542
 2096TIP3    H127703   2.234   0.665  13.093  0.4295  1.3314 -1.2558
 2096TIP3    H227704   2.306   0.598  12.977 -0.5113  0.1121 -1.1526
 2097TIP3   OH227705   5.807   1.634  10.691  0.1472 -0.0028 -0.0093
 2097TIP3    H127706   5.759   1.693  10.634 -0.0176  0.9989  1.1141
 2097TIP3    H227707   5.818   1.554  10.640 -1.9678  0.0317 -0.6024
 2098TIP3   OH227708   3.228   4.080  12.531  0.4214  0.3895  0.0319
 2098TIP3    H127709   3.238   3.995  12.488 -3.2337 -0.9763  1.4698
 2098TIP3    H227710   3.274   4.070  12.615  0.7567  0.1906 -0.1731
 2099TIP3   OH227711   6.078   4.987   0.848  0.5800 -0.5073  0.4768
 2099TIP3    H127712   6.071   5.082   0.843 -1.2642 -0.6698 -2.2218
 2099TIP3    H227713   6.029   4.963   0.926  0.8991  0.7156  1.0764
 2100TIP3   OH227714   6.488   0.833   5.987 -0.0084  0.4923  0.0595
 2100TIP3    H127715   6.436   0.820   6.066 -2.1990  0.1524 -1.3371
 2100TIP3    H227716   6.574   0.797   6.008 -0.9016 -0.7445  1.8549
 2101TIP3   OH227717   0.486   3.629   2.470 -0.6387 -0.3500 -0.3534
 2101TIP3    H127718   0.439   3.555   2.434 -2.6974  1.1392 -0.8972
 2101TIP3    H227719   0.449   3.640   2.558  0.6590 -0.7854  0.2756
 2102TIP3   OH227720   5.443   6.007   2.373  0.1515  0.4660 -0.3364
 2102TIP3    H127721   5.515   5.955   2.408  0.0127  0.8540  0.5543
 2102TIP3    H227722   5.484   6.066   2.310  0.1804 -1.3229 -2.0619
 2103TIP3   OH227723   0.684   4.396   2.531  0.5441 -0.7886  0.0079
 2103TIP3    H127724   0.686   4.322   2.591  1.1294  0.0539  1.0698
 2103TIP3    H227725   0.610   4.449   2.560  0.4493 -0.6900 -0.4085
 2104TIP3   OH227726   6.446   3.716  12.896 -0.3436 -0.5455 -0.2111
 2104TIP3    H127727   6.491   3.646  12.943 -1.3494 -0.4641  0.9162
 2104TIP3    H227728   6.485   3.715  12.808 -0.6689 -2.8220 -0.3787
 2105TIP3   OH227729   2.542   1.703  16.814  0.3324  0.4816 -0.3050
 2105TIP3    H127730   2.576   1.792  16.807 -1.0682  0.9975 -0.8088
 2105TIP3    H227731   2.616   1.652  16.847  0.9377  1.9542  0.6942
 2106TIP3   OH227732   1.650   4.373   5.349  0.5012 -0.4487 -0.7019
 2106TIP3    H127733   1.557   4.357   5.361  0.2034  2.3760  1.7632
 2106TIP3    H227734   1.657   4.413   5.262 -0.6844 -0.0255 -0.6102
 2107TIP3   OH227735   6.731   4.618   0.040  0.0049 -0.2470 -0.5236
 2107TIP3    H127736   6.643   4.594   0.009  0.1825 -0.0620 -1.1742
 2107TIP3    H227737   6.749   4.703  -0.000  0.3119 -0.0823 -0.0497
 2108TIP3   OH227738   2.376   2.433  13.770 -0.4849  0.3708 -0.5949
 2108TIP3    H127739   2.457   2.450  13.819 -0.2394  1.6955 -1.4048
 2108TIP3    H227740   2.391   2.476  13.686 -1.9180  0.3569 -0.8685
 2109TIP3   OH227741   1.500   2.282   6.640 -0.1626  0.2900 -0.5418
 2109TIP3    H127742   1.556   2.355   6.669 -0.6584 -0.0322  1.4167
 2109TIP3    H227743   1.559   2.224   6.593  1.2406 -0.0670  1.5013
 2110TIP3   OH227744   4.391   3.992  13.453 -0.4751 -1.1348 -0.4506
 2110TIP3    H127745   4.321   4.033  13.401 -2.6583 -3.2083  0.6592
 2110TIP3    H227746   4.395   3.903  13.419 -1.4617 -2.3362  2.3532
 2111TIP3   OH227747   5.954   3.478  15.070  0.6831 -0.3726 -0.2404
 2111TIP3    H127748   5.965   3.415  15.141  0.2150  0.6187  0.7185
 2111TIP3    H227749   6.038   3.524  15.066 -0.0998  1.2837  1.3612
 2112TIP3   OH227750   0.377   3.620  13.886 -0.4566  0.8872 -0.0776
 2112TIP3    H127751   0.394   3.706  13.848 -0.5919  0.0537 -2.2301
 2112TIP3    H227752   0.404   3.559  13.817  0.4547 -0.8297  1.7219
 2113TIP3   OH227753   2.881   4.396   0.334  0.5375 -0.4145  0.5770
 2113TIP3    H127754   2.830   4.463   0.288  0.1797 -1.5015 -0.6855
 2113TIP3    H227755   2.879   4.422   0.426  0.9558  1.6412  0.0425
 2114TIP3   OH227756   1.964   1.224  15.783 -0.7125  0.3181  0.0705
 2114TIP3    H127757   2.010   1.295  15.739  0.3441 -0.7682 -0.6470
 2114TIP3    H227758   1.873   1.230  15.752 -0.6364  1.3449  0.0370
 2115TIP3   OH227759   0.742   0.797  11.886  0.0446 -0.9571 -0.2763
 2115TIP3    H127760   0.756   0.747  11.806 -0.0605 -1.5799  0.0862
 2115TIP3    H227761   0.809   0.865  11.885 -1.3087  0.4588 -1.9969
 2116TIP3   OH227762   4.928   1.275   2.204 -0.0347 -0.3565  0.9883
 2116TIP3    H127763   4.896   1.255   2.116  1.5998 -1.0361  0.4999
 2116TIP3    H227764   4.862   1.334   2.241 -0.4494  0.4656 -0.9359
 2117TIP3   OH227765   2.873   2.377   3.152  0.6533  0.0117 -0.3375
 2117TIP3    H127766   2.937   2.429   3.103  0.3371  1.3140  0.5897
 2117TIP3    H227767   2.887   2.401   3.243 -1.0664  0.2164 -0.1007
 2118TIP3   OH227768   2.223   6.560  15.893 -0.1548 -0.2654  0.1582
 2118TIP3    H127769   2.147   6.587  15.841  0.8758  2.6438 -0.0182
 2118TIP3    H227770   2.186   6.530  15.976 -1.5413  0.0085 -0.3262
 2119TIP3   OH227771   6.642   3.322  11.414  0.0728  0.1004 -1.0210
 2119TIP3    H127772   6.694   3.281  11.345 -1.0379 -0.5531 -1.4904
 2119TIP3    H227773   6.598   3.249  11.458  3.4043  0.0229  2.7828
 2120TIP3   OH227774   2.744   0.288   4.734  0.3519  0.2397  0.1230
 2120TIP3    H127775   2.771   0.364   4.682  0.2694  0.3159  0.1900
 2120TIP3    H227776   2.661   0.315   4.774 -1.7187 -1.2279 -2.8362
 2121TIP3   OH227777   1.188   0.509  11.348 -0.2626  0.1049 -0.0776
 2121TIP3    H127778   1.135   0.562  11.408 -1.0252  1.3202 -1.7365
 2121TIP3    H227779   1.232   0.573  11.292 -1.0438 -0.9711 -2.0113
 2122TIP3   OH227780   1.558   6.104  11.547 -0.1241 -0.4466  0.3217
 2122TIP3    H127781   1.596   6.058  11.472  0.5003  0.1533  0.2571
 2122TIP3    H227782   1.528   6.188  11.511  1.0069  0.2310  0.8983
 2123TIP3   OH227783   4.295   5.286   0.987 -0.2409 -0.0420  0.0225
 2123TIP3    H127784   4.239   5.356   0.955 -0.8244 -1.5761 -2.6350
 2123TIP3    H227785   4.384   5.317   0.968 -0.4752  0.1151 -0.8816
 2124TIP3   OH227786   0.531   0.917  10.690  0.9677  0.2915  0.6251
 2124TIP3    H127787   0.507   0.912  10.597  0.1612 -0.6464  0.8755
 2124TIP3    H227788   0.533   1.011  10.709  0.4322  0.4745 -0.1610
 2125TIP3   OH227789   3.250   6.500   1.841 -0.0769  0.2523 -0.1066
 2125TIP3    H127790   3.268   6.586   1.803 -0.9695 -0.7421 -3.0309
 2125TIP3    H227791   3.166   6.510   1.885 -0.8958  0.5577 -1.6889
 2126TIP3   OH227792   3.727   5.675  12.634  0.0572 -0.3021 -0.1146
 2126TIP3    H127793   3.780   5.754  12.625 -0.2254  0.0806  1.3178
 2126TIP3    H227794   3.638   5.704  12.611  0.2469 -0.6460 -1.3188
 2127TIP3   OH227795   3.821   3.293   0.743 -0.1463  0.4910  0.4959
 2127TIP3    H127796   3.871   3.334   0.813 -0.4627  0.2573  0.8641
 2127TIP3    H227797   3.873   3.215   0.720 -0.1896  0.4070  0.6766
 2128TIP3   OH227798   0.209   4.786  13.354  0.0481  0.0551 -0.3057
 2128TIP3    H127799   0.291   4.836  13.353  1.5028 -2.1930  0.0735
 2128TIP3    H227800   0.236   4.695  13.347 -2.4056 -0.8185  0.5360
 2129TIP3   OH227801   2.496   2.898   4.699 -0.2537 -0.1817 -0.3939
 2129TIP3    H127802   2.461   2.840   4.766 -0.8166  0.5543 -0.0405
 2129TIP3    H227803   2.591   2.899   4.715 -0.3687 -0.1066  0.3113
 2130TIP3   OH227804   0.780   5.971  13.646  0.0234  0.7178  0.1168
 2130TIP3    H127805   0.755   5.910  13.716 -0.1937  1.2485  0.5062
 2130TIP3    H227806   0.820   5.915  13.579 -0.9861  0.0172  0.0628
 2131TIP3   OH227807   3.209   5.218   2.786  0.3073  0.0300  0.0443
 2131TIP3    H127808   3.130   5.201   2.836  0.5415 -0.8758  0.1328
 2131TIP3    H227809   3.216   5.144   2.726  0.1606  0.9683 -1.1775
 2132TIP3   OH227810   0.504   0.544  12.733  0.1219  0.1025 -0.1246
 2132TIP3    H127811   0.494   0.611  12.665 -2.7528  1.8262  1.7839
 2132TIP3    H227812   0.436   0.480  12.714 -1.1679  0.9512  1.4069
 2133TIP3   OH227813   5.453   4.786   6.036 -0.1666 -0.2013  0.0739
 2133TIP3    H127814   5.500   4.704   6.053 -0.9309 -0.8677 -0.8589
 2133TIP3    H227815   5.521   4.852   6.025  0.6082 -1.2483 -1.7709
 2134TIP3   OH227816   2.473   5.889  11.142 -0.3584  0.1939 -0.0765
 2134TIP3    H127817   2.528   5.831  11.089  0.1411  0.7164 -0.1362
 2134TIP3    H227818   2.385   5.877  11.106  0.2543  2.0636 -2.4836
 2135TIP3   OH227819   5.844   6.363   4.260  0.4055  0.3073 -0.1037
 2135TIP3    H127820   5.878   6.434   4.315  0.4502 -0.3803  0.7726
 2135TIP3    H227821   5.760   6.340   4.300  0.9867 -1.0080  0.4221
 2136TIP3   OH227822   0.852   2.938   0.286 -0.1410 -0.3453 -0.1905
 2136TIP3    H127823   0.904   3.002   0.238 -0.0667  0.9023  1.4453
 2136TIP3    H227824   0.892   2.936   0.373 -1.6826 -0.7434  0.5447
 2137TIP3   OH227825   1.596   0.592   1.905 -0.7224 -0.2413 -0.2257
 2137TIP3    H127826   1.585   0.535   1.829  0.2299 -0.1084 -0.4746
 2137TIP3    H227827   1.558   0.676   1.878 -0.0852 -0.0955 -0.6814
 2138TIP3   OH227828   1.512   5.989   4.957 -0.4014  0.4838  0.2203
 2138TIP3    H127829   1.435   6.034   4.923 -0.2401  0.6927  0.1310
 2138TIP3    H227830   1.578   6.057   4.966  0.0172  0.1686 -0.4364
 2139TIP3   OH227831   3.842   2.427  13.727 -0.0430 -0.4766  0.4249
 2139TIP3    H127832   3.862   2.365  13.797 -0.8998 -1.0109  0.2167
 2139TIP3    H227833   3.903   2.499  13.740 -0.0697 -0.6493  1.6221
 2140TIP3   OH227834   5.402   5.995  14.136  0.3823 -0.2631  0.4473
 2140TIP3    H127835   5.494   5.981  14.155  0.1023 -0.0969  2.1167
 2140TIP3    H227836   5.385   6.085  14.165 -0.1047  0.0539 -0.7478
 2141TIP3   OH227837   1.240   4.930   6.131  0.4500 -0.1999  0.0652
 2141TIP3    H127838   1.274   4.938   6.220 -1.6370  1.5264  0.8008
 2141TIP3    H227839   1.159   4.982   6.132  0.3550 -0.1456 -2.8353
 2142TIP3   OH227840   0.217   2.488   5.550 -0.2777  0.4202  0.7731
 2142TIP3    H127841   0.285   2.479   5.483 -0.3495  1.1614  0.5851
 2142TIP3    H227842   0.257   2.453   5.630  0.7764  1.8941  0.9374
 2143TIP3   OH227843   1.949   6.735   2.954  0.2766 -0.0197 -0.3500
 2143TIP3    H127844   1.911   6.649   2.933 -1.0259  0.5146 -0.2806
 2143TIP3    H227845   1.898   6.766   3.028  0.9728  0.6817 -0.1526
 2144TIP3   OH227846   4.957   2.452  14.772  0.2817  0.2154  0.1580
 2144TIP3    H127847   4.958   2.526  14.712  0.5601  2.1820  2.4152
 2144TIP3    H227848   5.040   2.406  14.757 -0.3577 -0.3620 -2.0048
 2145TIP3   OH227849   0.822   2.538  16.958  0.0273 -0.6423 -0.0892
 2145TIP3    H127850   0.729   2.514  16.959 -0.0046 -0.5509  1.8179
 2145TIP3    H227851   0.831   2.591  16.879 -1.4824 -0.8462 -0.4480
 2146TIP3   OH227852   1.999   2.035   4.249  0.9260 -0.4274  0.3572
 2146TIP3    H127853   2.021   2.072   4.164  2.4462 -2.3329 -0.1656
 2146TIP3    H227854   1.935   2.095   4.286  1.5878  1.4247 -1.3422
 2147TIP3   OH227855   2.592   6.662  11.598  0.0231 -0.3446  0.3187
 2147TIP3    H127856   2.518   6.630  11.547  0.2157  0.0649 -0.2359
 2147TIP3    H227857   2.631   6.584  11.637 -1.1749 -0.4889  1.2860
 2148TIP3   OH227858   6.552   2.949   1.555  0.1223  0.2062 -0.2121
 2148TIP3    H127859   6.557   3.015   1.625  0.2287  0.3285 -0.3357
 2148TIP3    H227860   6.594   2.990   1.480 -0.3581  0.2353 -0.4717
 2149TIP3   OH227861   3.800   4.833   3.590 -0.0334 -0.6677 -0.1865
 2149TIP3    H127862   3.741   4.892   3.637 -0.2492 -2.4175  1.9426
 2149TIP3    H227863   3.743   4.779   3.536 -0.2413 -1.2767  0.6237
 2150TIP3   OH227864   4.969   0.679  13.461 -0.3885  0.0651 -0.9166
 2150TIP3    H127865   4.933   0.626  13.532 -0.3234  2.0604  0.6837
 2150TIP3    H227866   4.926   0.764  13.471  2.2348  1.4990 -1.0191
 2151TIP3   OH227867   2.856   4.691  14.045  0.5139  0.0059 -0.3851
 2151TIP3    H127868   2.766   4.672  14.021 -0.1111  0.0856  1.6656
 2151TIP3    H227869   2.850   4.769  14.100  1.6186 -0.8453  1.0126
 2152TIP3   OH227870   5.538   1.666  13.142 -0.4368 -0.7143 -0.1649
 2152TIP3    H127871   5.609   1.718  13.179 -1.4305  0.3332  0.3412
 2152TIP3    H227872   5.460   1.720  13.154 -1.2176 -1.5191 -1.3596
 2153TIP3   OH227873   4.804   0.040  11.845 -0.4585 -0.6988 -0.5676
 2153TIP3    H127874   4.763   0.125  11.861  1.0765 -0.4449  2.6649
 2153TIP3    H227875   4.758  -0.020  11.904  2.2718 -0.7966  1.6581
 2154TIP3   OH227876   4.080   6.654  13.763  0.3943  0.7589 -0.5599
 2154TIP3    H127877   4.174   6.655  13.745  0.2512  0.7135 -1.3638
 2154TIP3    H227878   4.061   6.743  13.794  0.9720  0.3089  1.1540
 2155TIP3   OH227879   3.215   4.820   0.074  0.6388  0.3204  1.0017
 2155TIP3    H127880   3.248   4.840   0.161  1.2082 -0.5877  1.0133
 2155TIP3    H227881   3.142   4.760   0.089  0.7979  0.0866  0.8562
 2156TIP3   OH227882   3.405   2.410  12.256  0.1628  0.2794  0.0912
 2156TIP3    H127883   3.432   2.499  12.278  0.1243  0.2085  0.4227
 2156TIP3    H227884   3.395   2.411  12.160  0.2097  0.6162  0.0904
 2157TIP3   OH227885   0.276   2.913   3.276  0.9006 -0.4542  0.2005
 2157TIP3    H127886   0.262   2.937   3.368  0.9842  1.8529 -0.3264
 2157TIP3    H227887   0.315   2.826   3.280  3.2662  0.5545  2.5230
 2158TIP3   OH227888   4.653   1.009  13.489  0.3815 -0.2137  0.0789
 2158TIP3    H127889   4.557   1.005  13.485  0.3217 -3.8417  1.5431
 2158TIP3    H227890   4.679   1.033  13.400 -1.8803 -1.1546 -0.9208
 2159TIP3   OH227891   0.601   3.515  17.115  0.2057  0.1712 -0.1744
 2159TIP3    H127892   0.577   3.581  17.180  0.1483 -0.8302  0.8626
 2159TIP3    H227893   0.525   3.511  17.057  0.2698  1.1053 -0.3418
 2160TIP3   OH227894   2.402   2.954   3.351 -0.4616 -0.3281  0.4362
 2160TIP3    H127895   2.442   2.870   3.329 -1.9190 -1.2293  1.0380
 2160TIP3    H227896   2.391   2.999   3.267  0.6876 -0.5542  0.1500
 2161TIP3   OH227897   3.735   5.024   4.359 -0.4050 -0.1733 -0.1289
 2161TIP3    H127898   3.683   5.092   4.401  0.1085  0.0335  0.1818
 2161TIP3    H227899   3.764   5.063   4.276 -0.8251 -0.3221 -0.3437
 2162TIP3   OH227900   5.662   0.886  11.503 -0.0233 -0.0652 -0.0679
 2162TIP3    H127901   5.621   0.844  11.427  1.2461  1.0455 -1.4395
 2162TIP3    H227902   5.592   0.938  11.542 -0.2623  0.8823 -1.6662
 2163TIP3   OH227903   2.884   6.467   4.433 -0.6143  0.1784  0.2982
 2163TIP3    H127904   2.924   6.552   4.451  0.0687 -0.0652 -0.0343
 2163TIP3    H227905   2.956   6.412   4.402 -1.1125 -0.4220  0.1699
 2164TIP3   OH227906   2.342   6.123   3.378 -0.4288  0.4804  0.1890
 2164TIP3    H127907   2.260   6.133   3.428 -1.6633  1.6632 -1.9355
 2164TIP3    H227908   2.351   6.029   3.365 -0.6858  0.2322  1.5981
 2165TIP3   OH227909   2.384   1.951   3.009  0.6606 -0.1139 -0.3373
 2165TIP3    H127910   2.327   1.977   2.937 -0.8330 -1.2287  0.3803
 2165TIP3    H227911   2.380   1.855   3.010  0.9757 -0.1406  0.9515
 2166TIP3   OH227912   6.135   4.786   2.918  0.0587 -0.0619  0.1818
 2166TIP3    H127913   6.179   4.703   2.937  1.8710  0.5004 -1.3852
 2166TIP3    H227914   6.133   4.831   3.003 -0.5545 -1.4628  0.9636
 2167TIP3   OH227915   1.217   0.527   4.480 -0.3812  0.0389 -0.5706
 2167TIP3    H127916   1.172   0.502   4.561 -0.0730 -0.3204 -0.5107
 2167TIP3    H227917   1.149   0.569   4.427 -0.0165  2.8708  0.9858
 2168TIP3   OH227918   0.895   4.184  16.189  0.2954 -0.0751 -0.0479
 2168TIP3    H127919   0.855   4.117  16.243 -1.0106 -0.4711 -1.4496
 2168TIP3    H227920   0.943   4.239  16.251 -0.6367 -0.8592  1.4221
 2169TIP3   OH227921   4.766   3.626  13.667 -0.5135 -0.7386  0.1051
 2169TIP3    H127922   4.846   3.620  13.615  0.0362  0.0264  0.8239
 2169TIP3    H227923   4.795   3.663  13.751 -1.3792 -1.7942  0.9153
 2170TIP3   OH227924   5.743   5.097  14.039  0.1250 -0.0175  0.0918
 2170TIP3    H127925   5.808   5.144  14.092  1.7558 -0.8761 -1.0887
 2170TIP3    H227926   5.675   5.162  14.022  0.3080  0.7180  1.9148
 2171TIP3   OH227927   0.976   4.372   2.802  0.2085  0.0155 -0.2351
 2171TIP3    H127928   1.026   4.314   2.745  2.9088  1.1459  0.8215
 2171TIP3    H227929   0.938   4.314   2.868  0.4492 -0.8441 -0.8430
 2172TIP3   OH227930   0.145   2.169  13.815 -0.4874 -0.7303 -0.2473
 2172TIP3    H127931   0.214   2.229  13.841 -1.3597  0.0997  0.1900
 2172TIP3    H227932   0.171   2.140  13.727 -0.5087  0.9968 -0.8588
 2173TIP3   OH227933   5.297   4.693  13.214  0.6207 -0.0607  0.2201
 2173TIP3    H127934   5.319   4.771  13.163  1.0793 -1.7914 -2.4286
 2173TIP3    H227935   5.201   4.695  13.221  0.2057 -1.1032 -3.2705
 2174TIP3   OH227936   2.704   2.247  12.052  0.1287 -0.0516 -0.5324
 2174TIP3    H127937   2.733   2.310  11.986  1.0168  0.1625  0.0409
 2174TIP3    H227938   2.713   2.294  12.136  1.0368 -1.0084 -0.0765
 2175TIP3   OH227939   3.726   6.429  15.796  0.0455 -0.2187  0.3459
 2175TIP3    H127940   3.704   6.480  15.875 -2.2502 -1.9241  0.9421
 2175TIP3    H227941   3.692   6.481  15.724  1.8892  1.2190  0.4682
 2176TIP3   OH227942   4.990   6.065  12.938  0.6272 -0.5368  0.5539
 2176TIP3    H127943   4.896   6.078  12.941  0.5323 -1.0976  0.2844
 2176TIP3    H227944   5.004   6.011  12.860  1.2145 -0.0989  0.3475
 2177TIP3   OH227945   4.839   1.428   3.845  0.6180 -0.3640  0.1964
 2177TIP3    H127946   4.799   1.515   3.855 -0.6073 -0.2977 -3.7100
 2177TIP3    H227947   4.777   1.368   3.886 -1.0309  0.2542 -1.2578
 2178TIP3   OH227948   0.989   1.703  15.559  0.4368  0.0217 -0.2718
 2178TIP3    H127949   0.952   1.642  15.496  2.1350  0.1070 -1.4547
 2178TIP3    H227950   1.041   1.763  15.505  0.0322  1.5861  0.9999
 2179TIP3   OH227951   3.070   1.165   3.260 -1.0164 -0.7416  0.1634
 2179TIP3    H127952   2.988   1.189   3.303  0.3994  1.4422  1.8611
 2179TIP3    H227953   3.088   1.237   3.200 -0.4505 -1.3211 -0.3818
 2180TIP3   OH227954   5.716   0.731  13.365  0.0812 -0.0581  0.1082
 2180TIP3    H127955   5.629   0.757  13.335 -0.8530 -0.7872  2.0433
 2180TIP3    H227956   5.710   0.637  13.377  0.8984 -0.0129  0.9802
 2181TIP3   OH227957   3.173   2.200   2.810 -0.7416  0.2804 -0.5262
 2181TIP3    H127958   3.132   2.242   2.733 -0.7159 -0.6280 -1.0544
 2181TIP3    H227959   3.263   2.185   2.783 -1.2159 -1.9056 -1.1500
 2182TIP3   OH227960   0.578   3.882  15.136 -0.2427 -0.1296  0.3105
 2182TIP3    H127961   0.602   3.937  15.210 -0.9200 -0.3495  0.7017
 2182TIP3    H227962   0.499   3.923  15.100  0.8925  0.8340 -1.2165
 2183TIP3   OH227963   0.580   4.732  11.357  0.0639 -0.4313  0.1791
 2183TIP3    H127964   0.579   4.713  11.263 -1.5493  2.0991 -0.4342
 2183TIP3    H227965   0.646   4.673  11.393  0.7695 -1.4621 -2.5426
 2184TIP3   OH227966   0.400   2.217  16.387  0.1333 -0.2091  0.5240
 2184TIP3    H127967   0.495   2.214  16.393  0.1725  0.5106  0.3393
 2184TIP3    H227968   0.370   2.152  16.451  0.7346  0.0773  1.1095
 2185TIP3   OH227969   1.198   1.086   3.370 -0.5930 -0.0043  0.2570
 2185TIP3    H127970   1.153   1.151   3.315  0.6209  0.3635 -0.3461
 2185TIP3    H227971   1.178   1.112   3.460 -4.4776 -1.8849  0.1589
 2186TIP3   OH227972   2.461   0.216  10.900 -0.4103 -0.6626 -0.3077
 2186TIP3    H127973   2.391   0.262  10.854 -0.0051 -0.3165 -0.5904
 2186TIP3    H227974   2.457   0.126  10.867 -0.6685 -0.6230 -0.3823
 2187TIP3   OH227975   5.365   1.209   4.028 -0.3678  0.4226  0.2936
 2187TIP3    H127976   5.283   1.175   4.063 -0.3112 -0.0281 -0.0009
 2187TIP3    H227977   5.365   1.302   4.051 -1.2398  0.5611 -0.2347
 2188TIP3   OH227978   5.643   4.849  12.519  0.3598  0.3460 -0.1695
 2188TIP3    H127979   5.644   4.865  12.613 -0.7214 -1.4688  0.2139
 2188TIP3    H227980   5.607   4.760  12.511  4.5919 -1.4644 -2.0355
 2189TIP3   OH227981   2.740   5.157  16.956 -0.2846 -0.0080  0.0837
 2189TIP3    H127982   2.660   5.156  16.903  0.9820 -1.9351 -1.9973
 2189TIP3    H227983   2.780   5.242  16.937 -1.5592  0.7469  0.7213
 2190TIP3   OH227984   2.189   3.661   3.924 -0.3802  0.1880  0.3979
 2190TIP3    H127985   2.282   3.677   3.934 -0.7459  1.8094  1.7082
 2190TIP3    H227986   2.153   3.746   3.897 -1.4222 -0.5583 -0.7045
 2191TIP3   OH227987   5.069   0.088  14.337  0.5152  0.1146  0.0344
 2191TIP3    H127988   5.108   0.164  14.379  0.0737  0.1650  0.3539
 2191TIP3    H227989   4.994   0.123  14.288  0.9535  0.0435 -0.7117
 2192TIP3   OH227990   6.005   5.730   0.551  0.2860  0.2473  0.1322
 2192TIP3    H127991   6.063   5.696   0.482  0.4351 -0.6218  0.6699
 2192TIP3    H227992   5.967   5.810   0.514 -0.6488 -0.8892 -1.4565
 2193TIP3   OH227993   3.001   2.609   2.396  0.4048  0.2489 -0.8082
 2193TIP3    H127994   3.003   2.704   2.388  0.5798  0.1862 -1.5805
 2193TIP3    H227995   2.970   2.578   2.311 -0.4188 -0.3537 -0.3059
 2194TIP3   OH227996   4.171   1.555   2.858 -0.9568 -0.5530 -0.2068
 2194TIP3    H127997   4.172   1.635   2.806 -0.3398 -1.4240 -1.6061
 2194TIP3    H227998   4.240   1.568   2.924 -2.3660  0.9321  1.0518
 2195TIP3   OH227999   0.520   5.863   2.849 -0.2468 -0.1522 -0.4499
 2195TIP3    H128000   0.562   5.937   2.891  1.1662  0.6103 -2.9966
 2195TIP3    H228001   0.439   5.898   2.812  0.0726 -0.0034 -1.0350
 2196TIP3   OH228002   6.101   5.909  15.831  0.1732  0.0809 -0.3580
 2196TIP3    H128003   6.107   5.932  15.924  0.9498 -4.2396  0.8996
 2196TIP3    H228004   6.018   5.945  15.802 -1.0253 -0.0402  2.5957
 2197TIP3   OH228005   0.356   1.790   3.711 -0.0271  0.0118  0.1950
 2197TIP3    H128006   0.261   1.794   3.725 -0.3431 -0.5405 -1.5718
 2197TIP3    H228007   0.371   1.844   3.634  1.2096  0.5649  0.7925
 2198TIP3   OH228008   3.176   0.246   5.601  0.3140 -0.0271 -0.5268
 2198TIP3    H128009   3.147   0.181   5.665 -2.1145  1.0054 -0.4515
 2198TIP3    H228010   3.252   0.288   5.641  0.3905 -1.1244  0.5315
 2199TIP3   OH228011   1.936   4.814  14.112 -0.5057  0.1268  0.1802
 2199TIP3    H128012   1.959   4.864  14.190  1.5694  0.3336 -0.5038
 2199TIP3    H228013   2.006   4.749  14.104 -0.4392  0.3723 -1.7017
 2200TIP3   OH228014   1.966   0.079  12.787  0.0300  0.8924 -0.2125
 2200TIP3    H128015   1.937  -0.012  12.780  1.7281  0.1349  1.6971
 2200TIP3    H228016   1.930   0.121  12.709 -1.7659 -1.1202 -0.5727
 2201TIP3   OH228017   4.543   1.097  17.089 -0.1640  0.2950  0.1060
 2201TIP3    H128018   4.495   1.115  17.169  0.7250 -0.2591  0.7839
 2201TIP3    H228019   4.630   1.069  17.118 -0.4837 -2.0420 -0.9489
 2202TIP3   OH228020   5.993   5.117  14.965 -0.0925  0.3464 -0.1579
 2202TIP3    H128021   6.085   5.127  14.989 -0.4019  0.3794  1.0532
 2202TIP3    H228022   5.958   5.206  14.970 -0.0612  0.4391 -1.2538
 2203TIP3   OH228023   4.308   4.954   1.731 -0.0505 -0.2413  0.4679
 2203TIP3    H128024   4.339   5.022   1.792  0.6883 -0.0282 -0.1274
 2203TIP3    H228025   4.388   4.915   1.697 -0.4482 -0.0472 -0.7195
 2204TIP3   OH228026   3.921   0.979   4.965 -0.1602  0.0696  0.1977
 2204TIP3    H128027   4.002   0.933   4.988  0.2911 -0.1961 -1.7216
 2204TIP3    H228028   3.908   1.043   5.035  0.1853 -1.7349  2.0021
 2205TIP3   OH228029   2.617   4.992   0.969  0.5553 -0.0890 -0.3745
 2205TIP3    H128030   2.677   4.920   0.952  0.3382 -0.4137  0.2167
 2205TIP3    H228031   2.641   5.023   1.057 -0.0921 -0.1838 -0.1572
 2206TIP3   OH228032   3.631   5.124   2.021 -0.4017  0.4767 -0.5783
 2206TIP3    H128033   3.577   5.195   1.987  1.8528  2.2878 -0.6090
 2206TIP3    H228034   3.647   5.068   1.945 -3.9174 -1.4369 -0.1436
 2207TIP3   OH228035   1.060   0.633   3.738  0.1241  0.3405  0.0766
 2207TIP3    H128036   1.065   0.703   3.674  1.1237  0.2899  0.0741
 2207TIP3    H228037   0.995   0.573   3.703 -0.0698  0.8131 -0.3855
 2208TIP3   OH228038   0.978   1.962  12.129 -0.2346  0.4796 -0.5160
 2208TIP3    H128039   1.026   2.030  12.081 -0.5608  1.5785  0.6759
 2208TIP3    H228040   0.886   1.976  12.105 -0.2502  0.0936 -0.6946
 2209TIP3   OH228041   6.207   5.124   4.309 -0.7000  0.5943  0.3491
 2209TIP3    H128042   6.162   5.072   4.376 -0.0763  0.2337  0.4970
 2209TIP3    H228043   6.158   5.206   4.306 -2.4856 -0.4294 -0.7613
 2210TIP3   OH228044   0.893   1.433  15.161  0.3929 -0.3963  0.0797
 2210TIP3    H128045   0.849   1.349  15.173  2.1482 -1.8957 -2.8309
 2210TIP3    H228046   0.843   1.478  15.093  0.2439  0.3061  0.6481
 2211TIP3   OH228047   3.111   6.360  13.008  0.0808  0.3536  0.0632
 2211TIP3    H128048   3.157   6.430  12.960  1.2275 -0.6782 -0.4066
 2211TIP3    H228049   3.078   6.302  12.939  0.0635 -0.1240  0.4685
 2212TIP3   OH228050   2.070   6.509  13.087 -0.5494  0.2269  0.2565
 2212TIP3    H128051   2.132   6.565  13.133  0.7507 -1.0055  0.0760
 2212TIP3    H228052   2.019   6.468  13.156 -0.1898  0.1673  0.4898
 2213TIP3   OH228053   0.566   6.702  15.018 -0.2438 -0.0708  0.2447
 2213TIP3    H128054   0.626   6.689  14.945  0.4803 -1.2957  1.0208
 2213TIP3    H228055   0.532   6.614  15.036 -1.6404  0.4699  0.3655
 2214TIP3   OH228056   3.122   4.379  15.127  0.1373  0.0688  0.2051
 2214TIP3    H128057   3.151   4.292  15.154  1.4105  0.5382  0.4116
 2214TIP3    H228058   3.027   4.378  15.140  0.1436 -1.2764  0.2171
 2215TIP3   OH228059   0.049   0.682   3.709  0.0455  0.4772 -0.4069
 2215TIP3    H128060   0.016   0.730   3.785  1.2495  1.0576 -0.2096
 2215TIP3    H228061   0.099   0.748   3.660 -0.1515 -0.0538 -1.3426
 2216TIP3   OH228062   1.273   5.607   1.466 -0.2736 -0.0192 -0.6380
 2216TIP3    H128063   1.335   5.670   1.504 -1.1653 -0.0600  0.9668
 2216TIP3    H228064   1.277   5.624   1.372  0.5884  1.4363 -0.3769
 2217TIP3   OH228065   3.105   5.115   1.732  0.4810  0.4838 -0.8614
 2217TIP3    H128066   3.095   5.135   1.639 -0.7350  1.6070 -0.5209
 2217TIP3    H228067   3.031   5.159   1.774  1.4330  0.6447  0.7349
 2218TIP3   OH228068   1.242   1.839  12.245 -0.2472  0.1650 -0.3165
 2218TIP3    H128069   1.180   1.900  12.205  1.2059  1.7027 -0.3585
 2218TIP3    H228070   1.209   1.752  12.223 -2.6706  0.9119  0.1760
 2219TIP3   OH228071   4.247   1.105  15.564  0.2991 -0.4002  0.6118
 2219TIP3    H128072   4.161   1.064  15.562  0.7004 -1.2594 -1.4918
 2219TIP3    H228073   4.235   1.188  15.518  0.5460 -0.4526  0.4492
 2220TIP3   OH228074   2.151   4.308   1.215 -0.2013 -0.4951 -0.3939
 2220TIP3    H128075   2.166   4.356   1.296 -4.3200  0.6452 -0.0995
 2220TIP3    H228076   2.170   4.217   1.238  1.9004  0.1634  0.7940
 2221TIP3   OH228077   4.627   4.481   1.861  0.4823 -0.5713 -0.4355
 2221TIP3    H128078   4.668   4.556   1.817  0.1304 -0.6921 -0.9876
 2221TIP3    H228079   4.695   4.445   1.917  1.4596 -1.3567 -2.0578
 2222TIP3   OH228080   5.538   5.425   4.914 -0.5642 -0.3990  0.4280
 2222TIP3    H128081   5.482   5.502   4.927  1.6379  1.3061  0.4023
 2222TIP3    H228082   5.571   5.404   5.001  2.9668  2.1145 -0.0978
 2223TIP3   OH228083   5.392   1.008  12.369 -0.2389  0.1385  0.2256
 2223TIP3    H128084   5.375   1.062  12.446 -0.8004 -1.9032  1.6069
 2223TIP3    H228085   5.434   1.068  12.307 -0.8625  2.1475  1.6300
 2224TIP3   OH228086   2.103   4.473   4.350  0.2542 -0.5993  0.0117
 2224TIP3    H128087   2.015   4.508   4.364  0.3805  0.3935 -1.4644
 2224TIP3    H228088   2.159   4.522   4.409 -0.0819 -0.7918  0.4957
 2225TIP3   OH228089   5.110   4.057  14.445  0.4831  0.2099  0.5398
 2225TIP3    H128090   5.205   4.050  14.457  0.5963  0.2288 -0.2657
 2225TIP3    H228091   5.094   4.151  14.438  0.3931  0.2115  0.7723
 2226TIP3   OH228092   3.753   6.298  11.108 -0.0006  0.2290 -0.0467
 2226TIP3    H128093   3.747   6.211  11.070 -0.3343 -0.8146  2.2543
 2226TIP3    H228094   3.735   6.286  11.201 -0.4112  2.8095  0.2991
 2227TIP3   OH228095   4.795   0.501   1.527  0.2389  0.1384 -0.0361
 2227TIP3    H128096   4.795   0.542   1.613 -0.1359  3.1577 -1.3653
 2227TIP3    H228097   4.709   0.519   1.491 -0.2828 -2.6771 -0.4345
 2228TIP3   OH228098   5.114   4.096  16.389  0.1795  0.8944  1.0022
 2228TIP3    H128099   5.200   4.056  16.378 -0.1065  0.7680 -1.5529
 2228TIP3    H228100   5.131   4.187  16.412  0.9098  0.3674  2.6796
 2229TIP3   OH228101   6.061   0.177  11.473 -0.6462  0.4884  0.1092
 2229TIP3    H128102   6.008   0.119  11.528 -1.4525  0.6646 -0.4709
 2229TIP3    H228103   6.011   0.185  11.392  1.8049 -2.0518 -1.8539
 2230TIP3   OH228104   0.842   1.132   0.515  0.0762 -0.3792  0.1485
 2230TIP3    H128105   0.884   1.216   0.530  1.5218 -1.0071 -0.1939
 2230TIP3    H228106   0.768   1.151   0.459  0.7138  0.5994 -0.3845
 2231TIP3   OH228107   4.853   4.357   5.068  0.5364  0.1907  0.4714
 2231TIP3    H128108   4.760   4.379   5.070  0.9050  1.8222  2.2027
 2231TIP3    H228109   4.890   4.414   5.001  0.4215  0.0926  0.3241
 2232TIP3   OH228110   2.532   4.941   3.044  0.3632 -0.5693  0.1777
 2232TIP3    H128111   2.556   4.914   2.955  1.4526  0.1286  0.2386
 2232TIP3    H228112   2.614   4.975   3.081 -0.0608 -0.9199  1.4756
 2233TIP3   OH228113   6.449   3.564  15.820 -0.0857  0.2426  0.7155
 2233TIP3    H128114   6.431   3.578  15.727 -3.1315  1.0159  1.3322
 2233TIP3    H228115   6.425   3.473  15.837  1.5055 -0.2383  0.5926
 2234TIP3   OH228116   5.914   0.756   1.325  0.1737 -0.3641  0.1553
 2234TIP3    H128117   5.962   0.792   1.400 -0.5710 -0.9091  0.9137
 2234TIP3    H228118   5.978   0.752   1.255  1.8457 -2.8858  1.6554
 2235TIP3   OH228119   1.285   6.455   0.859 -0.1442  0.1506 -0.3905
 2235TIP3    H128120   1.189   6.458   0.865 -0.1000  0.8210  0.0741
 2235TIP3    H228121   1.302   6.414   0.774 -0.8347 -0.5425 -0.2167
 2236TIP3   OH228122   2.870   2.766  14.944 -0.0847  0.7744 -0.1210
 2236TIP3    H128123   2.796   2.801  14.894  1.0675  1.5719 -1.3258
 2236TIP3    H228124   2.907   2.842  14.988 -0.0508  0.3573  0.5806
 2237TIP3   OH228125   2.966   2.067   3.106  0.7537  0.6136 -0.1545
 2237TIP3    H128126   2.902   2.006   3.070  0.2953  0.8798  0.2057
 2237TIP3    H228127   2.958   2.146   3.052  0.0714  1.0103  0.5102
 2238TIP3   OH228128   1.060   3.939  13.974 -0.8067 -0.3922  0.2087
 2238TIP3    H128129   1.024   4.013  13.926  0.9422  1.2975  1.3776
 2238TIP3    H228130   1.155   3.953  13.973 -0.4310 -2.5407  0.6109
 2239TIP3   OH228131   5.950   5.227  14.169  0.7328  0.4198  0.1770
 2239TIP3    H128132   6.035   5.189  14.193 -0.4928 -2.3148  0.5703
 2239TIP3    H228133   5.932   5.290  14.239  1.3546 -0.7610  1.4678
 2240TIP3   OH228134   0.690   4.225   5.387 -0.0981  0.4543  0.4150
 2240TIP3    H128135   0.750   4.261   5.452  0.2074  1.2230 -0.2634
 2240TIP3    H228136   0.609   4.209   5.434  0.5631 -0.3745  1.2957
 2241TIP3   OH228137   2.793   4.903   2.787  0.1375 -0.0231 -0.1263
 2241TIP3    H128138   2.729   4.841   2.821  0.5713 -0.5992 -0.3374
 2241TIP3    H228139   2.799   4.882   2.693  0.4999  0.1386 -0.1426
 2242TIP3   OH228140   0.400   3.175  12.692  0.2660 -0.2299  0.4158
 2242TIP3    H128141   0.336   3.105  12.677  1.5194 -1.0503 -1.4852
 2242TIP3    H228142   0.464   3.135  12.752 -0.0021 -0.0343  0.8417
 2243TIP3   OH228143   4.140   5.829   5.006  0.2194  0.1555  0.1382
 2243TIP3    H128144   4.163   5.761   4.943  2.1440 -0.1523  1.0754
 2243TIP3    H228145   4.158   5.790   5.091 -1.7920  0.7428  0.9007
 2244TIP3   OH228146   2.743   3.637   4.479 -0.3512 -0.8123 -0.4622
 2244TIP3    H128147   2.823   3.673   4.518 -0.4844  1.5793 -2.1632
 2244TIP3    H228148   2.770   3.604   4.394 -1.2619  1.0702 -1.5596
 2245TIP3   OH228149   0.154   4.489   0.130  0.3420 -0.2547  0.1229
 2245TIP3    H128150   0.096   4.534   0.069  1.0485 -2.9075 -2.7608
 2245TIP3    H228151   0.096   4.461   0.202 -1.1667  0.3784 -0.7916
 2246TIP3   OH228152   5.040   0.734   4.479 -0.0910  0.1544  0.1404
 2246TIP3    H128153   5.077   0.647   4.465 -1.4192 -0.4091 -0.0390
 2246TIP3    H228154   5.012   0.733   4.571  2.0400  1.2669  0.8576
 2247TIP3   OH228155   0.791   6.482   0.322  0.0841 -0.1641 -0.1538
 2247TIP3    H128156   0.804   6.524   0.237  0.0894  0.3257  0.0837
 2247TIP3    H228157   0.778   6.390   0.302 -0.4272  0.0306 -0.7213
 2248TIP3   OH228158   1.783   3.000   1.980 -0.3911  0.3755 -0.3900
 2248TIP3    H128159   1.762   2.991   1.887  0.2184  1.0863 -0.6014
 2248TIP3    H228160   1.815   3.090   1.990 -1.1562  0.5619  0.6481
 2249TIP3   OH228161   0.936   3.294   4.048  0.5257 -0.3039 -0.6092
 2249TIP3    H128162   0.856   3.297   4.101  0.5707  1.2736 -0.5755
 2249TIP3    H228163   0.924   3.218   3.992 -0.0740 -1.3039  0.7959
 2250TIP3   OH228164   1.574   5.564   4.009  0.0367  0.5774 -0.4089
 2250TIP3    H128165   1.608   5.625   3.942  0.7914 -0.5095 -1.0525
 2250TIP3    H228166   1.496   5.526   3.969 -0.7679  1.5033  0.2223
 2251TIP3   OH228167   2.244   2.190  16.077  0.3443  0.5399 -0.1680
 2251TIP3    H128168   2.157   2.196  16.036  0.4264  3.7453 -0.1051
 2251TIP3    H228169   2.305   2.218  16.008  1.1743 -0.1316  0.2790
 2252TIP3   OH228170   4.604   0.949  11.512  0.6544  0.3912 -0.2619
 2252TIP3    H128171   4.603   0.863  11.469 -1.4635  0.6315 -0.8403
 2252TIP3    H228172   4.616   1.011  11.440  1.9709  0.6034  0.1307
 2253TIP3   OH228173   6.407   3.818  10.849 -0.5457  0.4477 -0.0318
 2253TIP3    H128174   6.453   3.796  10.930 -1.4529 -2.8442 -0.2629
 2253TIP3    H228175   6.314   3.806  10.870 -0.8093 -0.1410 -1.4233
 2254TIP3   OH228176   4.017   1.416   2.284  0.3783 -0.3442  0.2227
 2254TIP3    H128177   4.082   1.351   2.259 -0.1049 -1.4738  1.7638
 2254TIP3    H228178   4.067   1.495   2.303  1.0905 -0.6081 -0.5614
 2255TIP3   OH228179   3.528   0.785  12.147  0.3115  0.4128  0.2540
 2255TIP3    H128180   3.542   0.812  12.238 -0.1530 -0.1923  0.5093
 2255TIP3    H228181   3.604   0.730  12.126  0.2343  0.2528  0.3945
 2256TIP3   OH228182   5.598   1.659  15.124  0.1318 -0.2157  0.1503
 2256TIP3    H128183   5.597   1.587  15.061  2.3671 -0.5850  0.4427
 2256TIP3    H228184   5.563   1.621  15.205 -1.9232  0.0227 -0.5780
 2257TIP3   OH228185   0.338   1.494  16.838 -0.5343 -0.4579  0.0769
 2257TIP3    H128186   0.265   1.539  16.794  0.6504  1.1299 -0.3641
 2257TIP3    H228187   0.416   1.535  16.802  0.5851 -1.7982  0.8866
 2258TIP3   OH228188   0.682   4.653  12.938  0.3065  0.1828 -0.3460
 2258TIP3    H128189   0.716   4.566  12.959 -0.1352 -0.1376 -0.9328
 2258TIP3    H228190   0.724   4.711  13.002  0.1431 -0.5450  0.4401
 2259TIP3   OH228191   5.414   5.677  11.716 -0.7143 -0.5707  0.0635
 2259TIP3    H128192   5.474   5.627  11.661 -1.0642 -0.8820 -0.0371
 2259TIP3    H228193   5.390   5.754  11.663 -1.4098 -1.0997 -0.4123
 2260TIP3   OH228194   6.305   0.524   3.549  0.5537  0.2937 -0.3389
 2260TIP3    H128195   6.256   0.604   3.531 -0.3586 -0.1730  0.0089
 2260TIP3    H228196   6.361   0.546   3.623  1.6439  1.1268 -1.3529
 2261TIP3   OH228197   4.152   4.402   0.440  0.1192  0.9843 -0.3141
 2261TIP3    H128198   4.158   4.306   0.440  1.6541  1.0279 -1.6481
 2261TIP3    H228199   4.156   4.426   0.532 -0.6699 -0.2472  0.0646
 2262TIP3   OH228200   5.872   0.595   1.551 -0.0891 -0.5452  0.0627
 2262TIP3    H128201   5.866   0.655   1.477  0.7436 -0.3596  0.1417
 2262TIP3    H228202   5.890   0.510   1.511  1.9242 -0.1874  0.1028
 2263TIP3   OH228203   1.792   1.142  11.649 -0.1625  0.0311 -0.2370
 2263TIP3    H128204   1.733   1.187  11.589 -0.2420  1.2996  0.7648
 2263TIP3    H228205   1.805   1.203  11.722  0.4965 -1.1746  0.7049
 2264TIP3   OH228206   2.501   3.061   6.598 -0.4527  0.0973 -1.1696
 2264TIP3    H128207   2.559   3.081   6.671  0.8295  1.8536 -2.5879
 2264TIP3    H228208   2.533   2.978   6.564  0.1057  0.1778 -0.8486
 2265TIP3   OH228209   0.564   2.903  11.826 -0.1633  0.2840 -0.0458
 2265TIP3    H128210   0.618   2.977  11.800  0.6066  0.0657  0.8636
 2265TIP3    H228211   0.618   2.826  11.810 -0.9086 -0.0886 -0.8672
 2266TIP3   OH228212   5.179   3.365   0.667  0.2892  0.7758  0.0390
 2266TIP3    H128213   5.092   3.381   0.703 -0.5084 -0.6198 -1.1575
 2266TIP3    H228214   5.239   3.386   0.739 -1.0040  1.9633  0.8173
 2267TIP3   OH228215   2.676   2.665   4.843  0.9563  0.1683 -0.0800
 2267TIP3    H128216   2.758   2.643   4.886  0.6450 -0.2944  0.2844
 2267TIP3    H228217   2.683   2.758   4.824  1.1016  0.3842  0.9789
 2268TIP3   OH228218   3.437   0.760  13.828 -0.0432  0.6176 -0.9652
 2268TIP3    H128219   3.448   0.808  13.910 -3.2307  0.6545 -0.4410
 2268TIP3    H228220   3.439   0.827  13.760 -1.1143  1.1210 -0.5269
 2269TIP3   OH228221   3.053   5.438  13.667 -0.2346  0.2690 -0.1903
 2269TIP3    H128222   3.029   5.346  13.674 -1.0284  0.4110 -0.9186
 2269TIP3    H228223   3.018   5.479  13.747 -1.4074  0.2502 -0.6753
 2270TIP3   OH228224   0.795   1.782   2.280 -1.1941  0.2949 -0.6167
 2270TIP3    H128225   0.828   1.839   2.211 -2.0845 -0.4851 -1.7114
 2270TIP3    H228226   0.832   1.818   2.361  1.2439  0.2322 -1.6354
 2271TIP3   OH228227   5.233   1.655  16.397 -0.0091  0.1954 -0.2331
 2271TIP3    H128228   5.243   1.685  16.307 -1.1727 -0.0064 -0.4483
 2271TIP3    H228229   5.283   1.573  16.401  0.4552  0.4574 -0.5432
 2272TIP3   OH228230   3.279   6.346   0.949  0.5425  0.2145  0.2162
 2272TIP3    H128231   3.223   6.407   0.995 -0.3675  0.5472 -1.2644
 2272TIP3    H228232   3.223   6.307   0.882  2.0582  0.6298 -1.3759
 2273TIP3   OH228233   0.553   2.199  14.617  0.2465 -0.2004  0.3610
 2273TIP3    H128234   0.550   2.224  14.709 -0.7269  4.2026 -0.6636
 2273TIP3    H228235   0.463   2.207  14.587  1.0052  1.9013 -1.6406
 2274TIP3   OH228236   6.589   2.162  11.743  0.2652  0.4375 -0.1933
 2274TIP3    H128237   6.620   2.235  11.688 -0.2263 -0.5704 -1.8738
 2274TIP3    H228238   6.577   2.089  11.682 -1.5820 -0.3613  1.0270
 2275TIP3   OH228239   0.134   5.694   0.665 -0.3016 -0.0924 -0.4747
 2275TIP3    H128240   0.220   5.678   0.703 -0.3411  0.0329 -0.3311
 2275TIP3    H228241   0.150   5.763   0.600 -0.1960 -0.4559 -0.8409
 2276TIP3   OH228242   0.076   2.890   3.823 -0.3155  0.0460  0.4273
 2276TIP3    H128243   0.168   2.884   3.846 -0.0724 -0.7454 -0.6632
 2276TIP3    H228244   0.048   2.976   3.856  0.7578  0.2276  0.8963
 2277TIP3   OH228245   4.967   2.630  11.285 -0.1696 -0.4016 -0.1787
 2277TIP3    H128246   4.906   2.560  11.308 -0.6422  0.1655  0.3287
 2277TIP3    H228247   4.917   2.688  11.228 -0.8474  1.1865  1.8774
 2278TIP3   OH228248   5.837   0.297   2.774 -0.6640  0.4248 -0.2149
 2278TIP3    H128249   5.784   0.368   2.739 -1.8320 -0.0743  0.4502
 2278TIP3    H228250   5.781   0.258   2.842  0.2290 -0.6673 -0.0862
 2279TIP3   OH228251   0.823   5.063  15.776 -0.0094  0.2364  0.2019
 2279TIP3    H128252   0.867   5.029  15.854 -1.6899 -0.6880  0.7835
 2279TIP3    H228253   0.738   5.019  15.775 -1.6109  3.1170  0.0151
 2280TIP3   OH228254   2.088   3.182  14.132 -0.6100  0.4537 -0.1267
 2280TIP3    H128255   2.011   3.238  14.127 -2.6600 -1.9872  1.7989
 2280TIP3    H228256   2.077   3.120  14.060  1.4721  2.0991 -2.0311
 2281TIP3   OH228257   3.185   4.401  13.597  0.4034 -0.2159 -0.1437
 2281TIP3    H128258   3.170   4.409  13.691  0.3810 -2.4720  0.1115
 2281TIP3    H228259   3.269   4.356  13.590 -0.9304 -2.7749 -1.0310
 2282TIP3   OH228260   4.166   0.721  15.072  0.1905  0.1614  0.1136
 2282TIP3    H128261   4.179   0.642  15.019 -1.1437  0.1753 -0.2853
 2282TIP3    H228262   4.198   0.697  15.159  3.2513  0.4185 -0.8415
 2283TIP3   OH228263   2.653   2.913  15.210 -0.0291  0.2284 -0.0852
 2283TIP3    H128264   2.650   2.921  15.306  1.8457 -1.1532  0.1428
 2283TIP3    H228265   2.631   2.822  15.193 -0.9971  0.6223 -1.0557
 2284TIP3   OH228266   3.032   2.496  12.101  0.2051 -0.0077  0.2963
 2284TIP3    H128267   3.071   2.556  12.038  1.1860  1.5710  2.2782
 2284TIP3    H228268   2.945   2.478  12.067  0.8211  0.4719 -1.6565
 2285TIP3   OH228269   1.272   3.468   0.292 -0.5823  0.1559  0.2153
 2285TIP3    H128270   1.201   3.522   0.256 -2.7157 -1.4199  1.8299
 2285TIP3    H228271   1.231   3.385   0.314  2.2527 -1.6265 -0.6598
 2286TIP3   OH228272   3.741   4.824   0.953 -0.2187  0.5177  0.2910
 2286TIP3    H128273   3.826   4.849   0.990 -0.3427 -0.3494  1.2068
 2286TIP3    H228274   3.720   4.741   0.996 -0.6674 -0.2271 -1.2978
 2287TIP3   OH228275   1.417   0.221  13.459  0.5593 -0.1638 -0.1649
 2287TIP3    H128276   1.397   0.314  13.456  1.3358 -0.0001 -0.6968
 2287TIP3    H228277   1.441   0.199  13.369 -0.5658 -1.1042 -0.2611
 2288TIP3   OH228278   6.364   0.458   4.725 -0.5395  0.5222 -0.2487
 2288TIP3    H128279   6.296   0.422   4.667 -0.9427  0.6481  0.1348
 2288TIP3    H228280   6.421   0.384   4.745 -3.4125 -1.0633  3.5422
 2289TIP3   OH228281   4.670   5.942   2.687 -0.5239 -0.0938  0.2663
 2289TIP3    H128282   4.698   5.934   2.596  0.9489 -0.6942  0.7381
 2289TIP3    H228283   4.625   6.026   2.691  0.7272  0.6569 -0.7044
 2290TIP3   OH228284   4.102   3.722  12.971 -0.2040 -0.0831 -0.3221
 2290TIP3    H128285   4.106   3.788  12.901 -0.2898 -0.1195 -0.3623
 2290TIP3    H228286   4.114   3.639  12.925 -2.0038 -0.2658 -0.5500
 2291TIP3   OH228287   5.277   3.977  15.497 -0.8043 -0.0131 -0.1158
 2291TIP3    H128288   5.355   3.954  15.447 -0.7466 -0.3315  0.1196
 2291TIP3    H228289   5.310   4.027  15.571 -0.7987 -0.3645  0.1203
 2292TIP3   OH228290   1.641   1.837   5.143 -0.2909  0.4631 -0.3312
 2292TIP3    H128291   1.684   1.922   5.126 -2.0656  1.3047 -0.8672
 2292TIP3    H228292   1.712   1.773   5.137  1.1152  1.9135  0.1592
 2293TIP3   OH228293   3.482   1.437   0.817 -0.1997 -0.7616 -0.2061
 2293TIP3    H128294   3.445   1.516   0.856 -2.5194 -1.9304  0.1388
 2293TIP3    H228295   3.540   1.401   0.884 -0.4011 -0.2102  0.2629
 2294TIP3   OH228296   6.288   1.850   4.150 -0.1571 -0.0622  0.3362
 2294TIP3    H128297   6.280   1.761   4.184 -0.7776 -0.4702 -0.8410
 2294TIP3    H228298   6.373   1.852   4.106 -0.4733 -0.3071 -0.2921
 2295TIP3   OH228299   6.032   1.644  13.372 -0.5261  0.3930  0.3334
 2295TIP3    H128300   6.030   1.556  13.335 -0.7563  1.3101 -2.0159
 2295TIP3    H228301   6.113   1.647  13.422  0.5028 -0.5907 -1.1647
 2296TIP3   OH228302   5.520   5.157   4.819 -0.0656  0.0909  0.1241
 2296TIP3    H128303   5.550   5.228   4.876  0.9489 -1.4787  1.6485
 2296TIP3    H228304   5.449   5.116   4.868 -0.4883 -0.1164 -0.6441
 2297TIP3   OH228305   3.670   2.374  16.187  0.0307 -0.0895  0.3966
 2297TIP3    H128306   3.687   2.416  16.103  0.6540  0.0662  0.5907
 2297TIP3    H228307   3.631   2.290  16.165 -0.5066  0.2656 -0.0204
 2298TIP3   OH228308   0.295   1.832   3.150 -0.0735  0.2589 -0.6229
 2298TIP3    H128309   0.323   1.771   3.082  0.0594  1.2249 -1.4664
 2298TIP3    H228310   0.303   1.919   3.109  1.1994  0.9712  1.0342
 2299TIP3   OH228311   0.836   1.908   1.599  0.2963  0.0299 -0.0829
 2299TIP3    H128312   0.779   1.831   1.606  0.6602 -0.1816  0.6343
 2299TIP3    H228313   0.920   1.879   1.635 -0.1006  1.2872  1.9700
 2300TIP3   OH228314   1.147   0.729   0.506 -0.3446  0.5781 -0.5009
 2300TIP3    H128315   1.227   0.682   0.530 -0.9758 -0.5304 -0.5216
 2300TIP3    H228316   1.146   0.727   0.410  0.0312  1.3548 -0.5324
 2301TIP3   OH228317   4.890   0.787  14.183 -0.4432 -0.3040 -0.0860
 2301TIP3    H128318   4.955   0.811  14.117 -0.3782  1.2440  0.5198
 2301TIP3    H228319   4.941   0.754  14.256 -0.4616 -0.9669 -0.3613
 2302TIP3   OH228320   6.694   6.015  14.393  0.5291  0.1144 -0.5106
 2302TIP3    H128321   6.788   6.033  14.398  0.4521  0.9283 -1.5401
 2302TIP3    H228322   6.656   6.064  14.465  0.6697  1.6695 -1.4512
 2303TIP3   OH228323   5.738   1.239  13.985 -0.1589  0.0484 -0.1059
 2303TIP3    H128324   5.692   1.167  13.943 -0.8132  0.3970  0.0063
 2303TIP3    H228325   5.765   1.297  13.913 -0.8595  0.4007 -0.0940
 2304TIP3   OH228326   1.416   3.489  17.074  0.4460  0.5689  0.4416
 2304TIP3    H128327   1.439   3.558  17.013 -2.7724  2.1352  0.8363
 2304TIP3    H228328   1.389   3.534  17.154 -0.6275 -1.1739  1.1393
 2305TIP3   OH228329   0.344   4.593   4.469 -0.5354  0.1334  0.3052
 2305TIP3    H128330   0.375   4.641   4.545  1.2482 -0.9504  0.3114
 2305TIP3    H228331   0.267   4.546   4.500 -1.5141  1.8718  0.6440
 2306TIP3   OH228332   4.647   6.308   6.217 -0.8472 -0.1315  0.0462
 2306TIP3    H128333   4.693   6.376   6.267 -0.5176  0.7806 -1.4323
 2306TIP3    H228334   4.586   6.270   6.280  1.4657 -0.9860  1.8992
 2307TIP3   OH228335   6.325   3.271   0.066 -0.7531 -0.1530 -0.2295
 2307TIP3    H128336   6.233   3.285   0.089 -1.0909 -1.7255 -0.5197
 2307TIP3    H228337   6.367   3.246   0.149 -0.3498  1.4717  0.0981
 2308TIP3   OH228338   0.847   0.744  13.731  0.3450  0.0256  0.3883
 2308TIP3    H128339   0.936   0.773  13.750  0.3625 -0.2127  0.6750
 2308TIP3    H228340   0.794   0.823  13.742  0.6132  0.3467 -0.5377
 2309TIP3   OH228341   4.116   5.301   5.571  0.0466  0.2485  0.4627
 2309TIP3    H128342   4.174   5.226   5.557 -0.4447 -0.8940  3.5893
 2309TIP3    H228343   4.163   5.356   5.633 -0.3564  1.6420 -0.4338
 2310TIP3   OH228344   6.684   2.468   0.581 -0.2763  0.3549 -0.6099
 2310TIP3    H128345   6.779   2.481   0.578 -0.0743 -1.1533 -1.8305
 2310TIP3    H228346   6.666   2.450   0.673  0.7834 -0.3101 -0.5081
 2311TIP3   OH228347   5.159   4.564   1.479  0.2431 -0.0842  0.1748
 2311TIP3    H128348   5.252   4.551   1.460  0.3353  1.5984 -0.7114
 2311TIP3    H228349   5.129   4.622   1.410 -0.9454  1.1980  1.7024
 2312TIP3   OH228350   5.086   6.359   0.534 -0.2925  0.8223  0.7634
 2312TIP3    H128351   5.092   6.444   0.576 -0.8100  0.8576  0.7727
 2312TIP3    H228352   5.022   6.311   0.586  0.9666 -0.0569  1.5675
 2313TIP3   OH228353   0.082   0.867   4.678 -0.3827 -0.0265 -0.1122
 2313TIP3    H128354   0.172   0.875   4.646 -0.1501 -2.7055 -0.3630
 2313TIP3    H228355   0.050   0.957   4.682  2.4750  1.0889  0.5319
 2314TIP3   OH228356   4.359   1.476  12.805  0.1583  0.4537 -0.3799
 2314TIP3    H128357   4.435   1.534  12.809  2.1602 -2.0504  0.1998
 2314TIP3    H228358   4.364   1.436  12.718  0.3916 -0.8374  0.2191
 2315TIP3   OH228359   4.454   4.053  15.134 -0.4917 -0.1739 -0.5023
 2315TIP3    H128360   4.407   4.124  15.090 -0.7163  1.5090  2.2135
 2315TIP3    H228361   4.394   4.021  15.201  0.4908 -1.2852 -0.1117
 2316TIP3   OH228362   3.463   3.331   1.855 -0.5469 -0.6092  0.2214
 2316TIP3    H128363   3.551   3.319   1.890 -0.4630  0.7637  0.5409
 2316TIP3    H228364   3.442   3.423   1.874 -1.7537 -0.7150 -0.5067
 2317TIP3   OH228365   0.468   3.397   4.501  0.4956  0.1844  0.2009
 2317TIP3    H128366   0.461   3.455   4.425 -0.9727 -0.4062 -0.1466
 2317TIP3    H228367   0.384   3.407   4.546  0.8295 -0.5076  0.9903
 2318TIP3   OH228368   4.684   0.879  10.540 -0.2085  0.0166 -0.1049
 2318TIP3    H128369   4.619   0.816  10.509  0.1707 -0.5819  0.2934
 2318TIP3    H228370   4.635   0.960  10.555 -0.6552 -0.1029 -0.8662
 2319TIP3   OH228371   6.020   0.550   0.388 -0.8920  0.2277 -0.3539
 2319TIP3    H128372   5.965   0.508   0.454  0.0445 -0.3561  0.0833
 2319TIP3    H228373   6.063   0.622   0.433 -0.3309 -0.1055 -0.3438
 2320TIP3   OH228374   5.781   3.074   1.035 -0.7620  0.7974 -0.4379
 2320TIP3    H128375   5.784   3.110   0.947 -0.4072  0.8744 -0.3982
 2320TIP3    H228376   5.847   3.125   1.083 -1.0947  0.8960 -0.0797
 2321TIP3   OH228377   4.831   2.510  12.016  0.1118 -0.3176  0.0578
 2321TIP3    H128378   4.896   2.455  12.061 -0.6912 -1.1043  0.2656
 2321TIP3    H228379   4.782   2.450  11.961 -1.5050 -0.0236  1.1057
 2322TIP3   OH228380   3.613   0.131   5.583  0.6669 -0.1497 -0.2575
 2322TIP3    H128381   3.674   0.204   5.575  1.1388 -0.6129 -0.9551
 2322TIP3    H228382   3.565   0.130   5.501 -0.9113  0.7390  0.6058
 2323TIP3   OH228383   1.813   2.250   0.310 -0.1103 -0.5943  0.5411
 2323TIP3    H128384   1.718   2.237   0.317 -0.5531  0.4167 -2.1999
 2323TIP3    H228385   1.833   2.231   0.218  1.8440  1.8429  0.3487
 2324TIP3   OH228386   3.182   3.248  15.423  1.2974  0.2098  0.2082
 2324TIP3    H128387   3.139   3.328  15.451 -0.7584 -0.2935 -1.2809
 2324TIP3    H228388   3.251   3.277  15.363 -1.1499  0.8879 -2.5109
 2325TIP3   OH228389   6.331   3.218  14.906 -0.7154 -0.0841 -0.2809
 2325TIP3    H128390   6.350   3.311  14.901  0.2873 -0.2114  0.7568
 2325TIP3    H228391   6.240   3.210  14.876 -1.0841  1.3274  0.3873
 2326TIP3   OH228392   3.034   0.633  11.446 -0.1952  0.2049  0.0614
 2326TIP3    H128393   2.948   0.606  11.413 -0.0917 -2.2800  1.5872
 2326TIP3    H228394   3.078   0.551  11.468  2.3007  1.4590  0.0607
 2327TIP3   OH228395   4.473   3.016  13.063 -0.0783  0.5506  0.4617
 2327TIP3    H128396   4.544   2.956  13.042  0.2150  1.3742 -1.0619
 2327TIP3    H228397   4.395   2.976  13.024  0.2884  1.5667 -1.4810
 2328TIP3   OH228398   3.207   1.947  12.093  0.2809 -0.3974 -0.1669
 2328TIP3    H128399   3.143   2.008  12.131  1.4793 -0.3297  1.8953
 2328TIP3    H228400   3.184   1.943  12.000  0.2147  3.3442 -0.4699
 2329TIP3   OH228401   3.549   0.722  15.921  0.2504  0.1653 -0.0299
 2329TIP3    H128402   3.586   0.659  15.984 -0.9408 -2.3196 -1.6372
 2329TIP3    H228403   3.593   0.700  15.838 -1.5137  0.1574 -1.0174
 2330TIP3   OH228404   0.490   5.374  11.555  0.0368  0.0937  0.1089
 2330TIP3    H128405   0.490   5.326  11.472 -1.5089 -1.7052  1.0447
 2330TIP3    H228406   0.498   5.466  11.531 -0.4218 -0.3808 -2.0304
 2331TIP3   OH228407   2.414   4.849  15.563  0.3310 -0.2878  0.3398
 2331TIP3    H128408   2.482   4.880  15.624  1.9768 -1.2166 -0.9420
 2331TIP3    H228409   2.409   4.918  15.497 -0.1732 -0.1041  0.5669
 2332TIP3   OH228410   2.260   2.079   4.863 -0.3995 -0.5658 -0.2044
 2332TIP3    H128411   2.273   2.108   4.773 -2.1590 -0.2937 -0.4222
 2332TIP3    H228412   2.307   1.996   4.869 -0.3592 -0.6550 -1.4134
 2333TIP3   OH228413   0.422   5.503   6.142 -0.2296 -0.2183  0.0831
 2333TIP3    H128414   0.412   5.573   6.206 -0.6223  0.7672 -1.0088
 2333TIP3    H228415   0.334   5.465   6.134 -0.0441 -0.7692  0.5809
 2334TIP3   OH228416   0.392   2.994  12.051 -0.1785 -0.0377 -0.1572
 2334TIP3    H128417   0.419   2.955  12.134  0.1248 -0.1384 -0.3014
 2334TIP3    H228418   0.444   2.949  11.985 -0.4877 -0.0236 -0.4128
 2335TIP3   OH228419   0.481   2.650   0.669 -0.0198  0.3972  0.5080
 2335TIP3    H128420   0.539   2.725   0.658 -1.6133  2.1328  2.8643
 2335TIP3    H228421   0.534   2.584   0.714  0.9347  0.7456 -0.0812
 2336TIP3   OH228422   4.749   6.389  10.661  0.3544  0.5952 -0.1115
 2336TIP3    H128423   4.774   6.464  10.715  0.1907  0.9320 -0.4982
 2336TIP3    H228424   4.693   6.426  10.594  1.2642  0.3229 -1.0420
 2337TIP3   OH228425   1.660   3.874  11.254  0.0265  0.0205  0.4829
 2337TIP3    H128426   1.723   3.816  11.211 -0.2213 -0.6358  0.9841
 2337TIP3    H228427   1.641   3.941  11.189  0.1142 -0.6131 -0.2076
 2338TIP3   OH228428   4.065   6.754   6.460  0.0367  0.0371 -0.3591
 2338TIP3    H128429   4.139   6.802   6.496 -0.2305 -0.7812  1.4006
 2338TIP3    H228430   3.990   6.812   6.476 -0.0167 -0.1195 -0.0440
 2339TIP3   OH228431   4.007   3.163  12.002 -0.0355  0.2762 -0.2995
 2339TIP3    H128432   4.002   3.249  11.959  3.8510  1.4795  1.1768
 2339TIP3    H228433   4.074   3.116  11.953 -0.5539 -1.0812  0.2625
 2340TIP3   OH228434   1.428   3.706  14.911  0.3843 -0.0997 -0.6633
 2340TIP3    H128435   1.436   3.781  14.852  1.1552 -0.2035 -0.6985
 2340TIP3    H228436   1.509   3.656  14.898  0.6058 -0.0835  0.5289
 2341TIP3   OH228437   2.267   3.998  12.065 -0.2416 -0.1124  0.1990
 2341TIP3    H128438   2.283   3.919  12.117  0.2651 -0.3568 -0.3109
 2341TIP3    H228439   2.281   4.070  12.126  1.6215 -0.3450  0.1233
 2342TIP3   OH228440   5.507   1.445  16.157 -0.1829  0.7783  0.1606
 2342TIP3    H128441   5.555   1.457  16.075  0.1347 -1.2519  0.0157
 2342TIP3    H228442   5.433   1.390  16.133 -0.6660  1.0157  1.0646
 2343TIP3   OH228443   6.303   0.945  13.469 -0.3607 -0.0535 -0.0548
 2343TIP3    H128444   6.294   0.875  13.404 -1.6548 -0.3645  0.4115
 2343TIP3    H228445   6.397   0.954  13.483 -0.1215 -0.7968 -1.0873
 2344TIP3   OH228446   5.792   5.029   1.632  0.2310 -0.2974 -0.0227
 2344TIP3    H128447   5.742   5.109   1.613 -0.6794 -0.8225  0.1049
 2344TIP3    H228448   5.878   5.060   1.659 -0.2840  0.6593  0.5432
 2345TIP3   OH228449   0.139   4.822  14.714 -0.1778  0.2561  0.2391
 2345TIP3    H128450   0.131   4.865  14.800 -1.6670 -0.2887  0.4080
 2345TIP3    H228451   0.125   4.893  14.651  0.7519  0.6277  0.4344
 2346TIP3   OH228452   5.398   2.250  13.940 -0.1319 -0.0271  0.8384
 2346TIP3    H128453   5.453   2.327  13.952 -0.9427  0.3460  2.3745
 2346TIP3    H228454   5.456   2.176  13.957  1.0952  0.0900 -2.2826
 2347TIP3   OH228455   2.482   3.195   2.210 -0.9809  0.2743 -0.2546
 2347TIP3    H128456   2.391   3.177   2.187 -1.2344  0.5164  0.5199
 2347TIP3    H228457   2.525   3.214   2.127 -1.6228  0.0859 -0.6336
 2348TIP3   OH228458   6.546   5.791  11.175 -0.5325  0.2866 -0.2724
 2348TIP3    H128459   6.507   5.856  11.117  0.3179  1.7691  0.7436
 2348TIP3    H228460   6.638   5.785  11.148  0.1070  1.6572  1.3931
 2349TIP3   OH228461   6.402   1.204   5.542 -0.4511  0.0622 -0.1359
 2349TIP3    H128462   6.331   1.199   5.606  0.2287  0.5351  0.6665
 2349TIP3    H228463   6.358   1.192   5.457 -1.1410 -2.3348  0.4847
 2350TIP3   OH228464   0.600   5.618  15.406 -0.2674  0.3169 -0.0595
 2350TIP3    H128465   0.650   5.634  15.486  1.4391  0.8422 -1.1750
 2350TIP3    H228466   0.509   5.639  15.429  0.4218  2.0362  1.3070
 2351TIP3   OH228467   3.602   5.249   4.456  0.0493 -0.1379  0.3004
 2351TIP3    H128468   3.592   5.289   4.542  2.7780  0.1689  0.5489
 2351TIP3    H228469   3.645   5.316   4.403  1.1450 -1.3481 -0.4055
 2352TIP3   OH228470   0.898   4.781  16.179 -0.2136 -0.0484  0.2467
 2352TIP3    H128471   0.927   4.793  16.269  0.0368 -0.1690  0.1832
 2352TIP3    H228472   0.810   4.745  16.186 -0.5186  0.7045  0.4439
 2353TIP3   OH228473   0.029   5.420  14.617 -0.1632  0.0381 -0.1361
 2353TIP3    H128474  -0.036   5.434  14.686  0.3461  1.8926  0.0186
 2353TIP3    H228475  -0.016   5.449  14.537 -0.1184 -0.3595 -0.3078
 2354TIP3   OH228476   2.781   6.583  16.439 -0.1590 -0.9989  0.1723
 2354TIP3    H128477   2.808   6.547  16.354  0.2032  0.2490 -0.2679
 2354TIP3    H228478   2.863   6.596  16.486 -0.0923  0.8063 -0.3453
 2355TIP3   OH228479   0.374   4.802   5.584 -0.2053 -0.0902  0.6612
 2355TIP3    H128480   0.308   4.735   5.603 -0.8303  0.1773 -0.4411
 2355TIP3    H228481   0.454   4.769   5.625 -0.2767 -1.9633 -0.5503
 2356TIP3   OH228482   1.427   5.499  14.755  0.0461  0.8584 -0.0054
 2356TIP3    H128483   1.414   5.466  14.666  2.0522  3.2643 -1.3184
 2356TIP3    H228484   1.355   5.561  14.768 -0.1453  0.6399 -0.0170
 2357TIP3   OH228485   2.171   6.101  15.220 -0.2876  0.5428  0.5860
 2357TIP3    H128486   2.100   6.154  15.255 -0.0304  1.0104  0.4036
 2357TIP3    H228487   2.159   6.015  15.261 -0.5773  0.8019  1.0522
 2358TIP3   OH228488   1.749   3.899   4.369  0.3367  0.8820 -0.0664
 2358TIP3    H128489   1.815   3.854   4.317 -1.5669 -0.1350 -1.7564
 2358TIP3    H228490   1.749   3.853   4.453  0.6861 -0.1439 -0.6133
 2359TIP3   OH228491   1.460   3.736   3.784 -0.2330 -0.0805  0.0804
 2359TIP3    H128492   1.519   3.807   3.807 -1.1741  0.6197  0.3884
 2359TIP3    H228493   1.491   3.661   3.835 -0.7829  0.7961  1.7569
 2360TIP3   OH228494   3.353   6.185  10.606  0.0020  0.5009  0.2901
 2360TIP3    H128495   3.393   6.270  10.586 -0.8974  0.6818 -0.8833
 2360TIP3    H228496   3.265   6.208  10.637 -0.5994 -0.0149 -0.9744
 2361TIP3   OH228497   2.007   4.385   4.762 -0.0295  0.0922 -0.0741
 2361TIP3    H128498   2.037   4.457   4.707 -0.2646  0.1403 -0.1392
 2361TIP3    H228499   2.066   4.312   4.741 -0.7083 -0.1924 -1.1087
 2362TIP3   OH228500   5.667   6.345  14.119  0.3911 -0.0811  0.1848
 2362TIP3    H128501   5.609   6.410  14.080  2.6794  2.2005  0.2585
 2362TIP3    H228502   5.651   6.265  14.070 -2.0584  0.6693 -0.4016
 2363TIP3   OH228503   4.591   0.463  11.497 -0.1756 -0.0254  0.0568
 2363TIP3    H128504   4.600   0.558  11.487  0.4187  0.1437  1.7157
 2363TIP3    H228505   4.676   0.435  11.531 -0.7576 -0.9337  0.8208
 2364TIP3   OH228506   4.239   2.824  11.873 -0.3935 -0.5981  0.0322
 2364TIP3    H128507   4.226   2.766  11.948 -0.8204  0.6820  0.9694
 2364TIP3    H228508   4.333   2.843  11.874 -0.7822  1.6950  2.0368
 2365TIP3   OH228509   6.542   4.610  11.070  0.1969  0.3818  0.1284
 2365TIP3    H128510   6.530   4.583  10.979  2.8009 -1.1927  0.1414
 2365TIP3    H228511   6.491   4.547  11.121  2.0791 -1.4447 -0.1144
 2366TIP3   OH228512   0.090   0.886  11.230  0.2523 -0.1068  0.5103
 2366TIP3    H128513   0.022   0.907  11.293  0.6730 -0.0757  0.9573
 2366TIP3    H228514   0.088   0.791  11.223  0.2862 -0.1188  0.6636
 2367TIP3   OH228515   1.978   0.778   6.417 -0.0712  0.2744  0.6256
 2367TIP3    H128516   2.008   0.688   6.407 -0.5695  0.1683  0.0248
 2367TIP3    H228517   1.996   0.800   6.509 -0.2761 -0.5589  0.8687
 2368TIP3   OH228518   5.238   0.916   4.338 -0.2019  0.0331 -0.0976
 2368TIP3    H128519   5.317   0.882   4.380 -0.4121 -0.0206  0.2543
 2368TIP3    H228520   5.168   0.856   4.366 -0.4879  0.4787  0.1423
 2369TIP3   OH228521   5.130   1.068  12.909 -0.1082  1.1267  0.2198
 2369TIP3    H128522   5.159   1.139  12.966 -0.6678  0.7803  0.9654
 2369TIP3    H228523   5.035   1.069  12.916 -0.2464  1.6152 -1.4033
 2370TIP3   OH228524   5.519   3.166  12.214  0.0543 -0.0916 -0.4878
 2370TIP3    H128525   5.612   3.147  12.229 -0.0247  0.3642  0.6398
 2370TIP3    H228526   5.483   3.083  12.181  0.7291 -0.4418 -0.3682
 2371TIP3   OH228527   1.671   0.181   3.816  0.1424  0.1617 -0.0343
 2371TIP3    H128528   1.689   0.224   3.900  2.2265 -0.3850 -0.1370
 2371TIP3    H228529   1.600   0.120   3.835  0.4183  0.2087  1.2957
 2372TIP3   OH228530   5.720   0.037  11.571 -0.2627 -0.0289  0.3036
 2372TIP3    H128531   5.642   0.064  11.618 -0.9389  1.8609 -1.7490
 2372TIP3    H228532   5.778   0.113  11.574  0.1703 -0.2885 -0.8566
 2373TIP3   OH228533   3.659   4.701  13.470  0.0867  0.1118  0.2055
 2373TIP3    H128534   3.707   4.757  13.531 -1.7471  1.5622  0.4156
 2373TIP3    H228535   3.709   4.706  13.388  2.7496 -2.0906  1.5184
 2374TIP3   OH228536   5.398   6.427   1.659 -0.0100  0.0831  0.3562
 2374TIP3    H128537   5.473   6.475   1.623 -0.4165  1.3920  1.1683
 2374TIP3    H228538   5.431   6.339   1.674  1.4818  0.7158  0.9984
 2375TIP3   OH228539   3.106   3.430  11.633  0.3399 -0.2416 -0.2926
 2375TIP3    H128540   3.047   3.401  11.564 -1.3119  0.4577  0.7723
 2375TIP3    H228541   3.122   3.352  11.686 -1.3946 -0.0062  0.6411
 2376TIP3   OH228542   4.485   0.193  10.907  0.2195  0.5958 -0.0071
 2376TIP3    H128543   4.515   0.102  10.903  0.5729  0.5935  1.7197
 2376TIP3    H228544   4.539   0.239  10.843  1.9428  0.0466  0.9732
 2377TIP3   OH228545   5.980   1.238  15.648  0.1843 -0.0481  0.5723
 2377TIP3    H128546   6.002   1.146  15.666  2.8008  0.2057 -0.7449
 2377TIP3    H228547   5.929   1.266  15.724 -0.1552 -2.4089  1.3049
 2378TIP3   OH228548   3.714   6.210  15.622  0.2198 -0.5586 -0.4191
 2378TIP3    H128549   3.629   6.247  15.599  0.4312  0.4156  0.2880
 2378TIP3    H228550   3.740   6.257  15.701  1.0283 -1.4464 -0.1297
 2379TIP3   OH228551   5.951   6.474  13.920  0.5257  0.1592 -0.0904
 2379TIP3    H128552   5.859   6.448  13.920 -0.2405  2.6102  0.8607
 2379TIP3    H228553   5.995   6.407  13.867 -1.4935 -1.9929  0.7797
 2380TIP3   OH228554   4.473   6.388  16.933  0.0511 -0.8462 -0.1210
 2380TIP3    H128555   4.434   6.311  16.890 -0.3732 -0.8648  0.2876
 2380TIP3    H228556   4.410   6.458  16.917  0.3134 -0.6414 -0.2692
 2381TIP3   OH228557   2.369   3.142  12.063  0.2620  0.0337  0.5203
 2381TIP3    H128558   2.281   3.176  12.047  0.7613  1.1290  0.0067
 2381TIP3    H228559   2.427   3.199  12.012  1.2724 -0.6652  0.8512
 2382TIP3   OH228560   6.771   5.807  11.931  0.0628 -0.2557  0.0393
 2382TIP3    H128561   6.824   5.747  11.878 -0.8053 -1.3766  0.3934
 2382TIP3    H228562   6.681   5.790  11.904 -0.3424 -0.3938  1.4070
 2383TIP3   OH228563   4.403   5.993  14.893  0.2173 -0.4108 -0.0070
 2383TIP3    H128564   4.459   6.024  14.821  0.3559  0.9945  0.6707
 2383TIP3    H228565   4.430   6.045  14.968 -2.0485  0.4037  0.3223
 2384TIP3   OH228566   4.064   5.794  16.369  0.0240 -0.3285 -0.6541
 2384TIP3    H128567   4.078   5.754  16.455 -1.2049 -0.1385 -0.3589
 2384TIP3    H228568   4.113   5.737  16.309 -0.9131 -1.7739 -0.1183
 2385TIP3   OH228569   1.654   5.112   3.425  0.0876 -0.2339 -0.2430
 2385TIP3    H128570   1.601   5.032   3.431  2.8312 -2.1310  0.4597
 2385TIP3    H228571   1.732   5.085   3.376  1.7369  1.6345  1.2399
 2386TIP3   OH228572   6.390   6.337   5.836  0.4514  0.2129 -0.3415
 2386TIP3    H128573   6.456   6.386   5.786  2.1152 -0.7329  0.7978
 2386TIP3    H228574   6.367   6.263   5.780  0.6179  0.3795 -0.6305
 2387TIP3   OH228575   0.952   5.097  15.079  0.2276  0.4460 -0.3780
 2387TIP3    H128576   0.965   5.079  15.172 -0.9739  2.3091  0.2134
 2387TIP3    H228577   0.859   5.120  15.072  0.1219 -0.4033 -2.1896
 2388TIP3   OH228578   5.375   2.259   0.448 -0.3042 -0.2438  0.0812
 2388TIP3    H128579   5.392   2.167   0.427  0.3271  0.1284 -1.1373
 2388TIP3    H228580   5.454   2.305   0.418 -0.8732  0.7708  0.1115
 2389TIP3   OH228581   1.874   1.106   3.808  0.0219 -0.0409  0.0944
 2389TIP3    H128582   1.904   1.088   3.897 -0.8957 -1.4015  0.1561
 2389TIP3    H228583   1.951   1.092   3.753  0.8849  1.8546  0.7275
 2390TIP3   OH228584   3.663   3.243  15.264 -0.0297  0.4762  0.6051
 2390TIP3    H128585   3.758   3.229  15.264 -0.1176 -0.1418  0.6230
 2390TIP3    H228586   3.626   3.156  15.248 -0.5687  0.9896 -1.1654
 2391TIP3   OH228587   4.636   2.439  13.144  0.1077 -0.4760  0.6465
 2391TIP3    H128588   4.584   2.453  13.223  1.1563  2.3446  0.9475
 2391TIP3    H228589   4.692   2.365  13.165 -0.1491 -0.2453  2.2883
 2392TIP3   OH228590   2.380   0.670  15.215  0.3878  0.4845  0.2493
 2392TIP3    H128591   2.397   0.649  15.307  0.7844  0.7474  0.2404
 2392TIP3    H228592   2.324   0.748  15.218  0.1575  0.3184  0.2701
 2393TIP3   OH228593   3.439   1.544  11.296  0.3445  0.0025 -0.7228
 2393TIP3    H128594   3.439   1.448  11.303 -1.9989 -0.0250 -0.1031
 2393TIP3    H228595   3.435   1.561  11.202 -0.9192 -0.5950 -0.8041
 2394TIP3   OH228596   1.778   4.600   5.139  0.0611  0.5525  0.4054
 2394TIP3    H128597   1.711   4.668   5.131 -0.5311 -0.1483 -1.0203
 2394TIP3    H228598   1.805   4.584   5.049 -1.3936 -2.6255  0.4080
 2395TIP3   OH228599   4.370   5.084  11.892 -0.4082  0.4089 -0.0740
 2395TIP3    H128600   4.310   5.132  11.835 -0.4317  1.8853  1.1377
 2395TIP3    H228601   4.324   5.078  11.975  0.3679 -0.1257  0.3286
 2396TIP3   OH228602   1.382   3.763   3.271 -0.8139 -0.6350 -0.2253
 2396TIP3    H128603   1.477   3.775   3.265 -1.0061  0.7718 -1.0402
 2396TIP3    H228604   1.367   3.735   3.361  0.2219  1.2176  0.5933
 2397TIP3   OH228605   2.745   0.075   2.593 -0.7225 -0.2140  0.2490
 2397TIP3    H128606   2.726   0.027   2.512 -0.9865  0.0241  0.1660
 2397TIP3    H228607   2.830   0.116   2.577  0.0518 -1.5875  0.7612
 2398TIP3   OH228608   6.476   5.725   2.127  0.2769 -0.6366  0.2183
 2398TIP3    H128609   6.482   5.741   2.221 -0.5619  1.9076 -0.0921
 2398TIP3    H228610   6.567   5.727   2.097  0.5186 -1.0447  0.8927
 2399TIP3   OH228611   2.503   3.930  15.359 -0.1416 -0.2939  0.0418
 2399TIP3    H128612   2.493   3.951  15.452 -1.2101 -1.6284  0.2688
 2399TIP3    H228613   2.414   3.914  15.328  0.3011 -1.0685 -0.8990
 2400TIP3   OH228614   4.169   4.123  14.431 -0.0183 -0.1830 -0.3509
 2400TIP3    H128615   4.160   4.080  14.345  0.2969  0.0457 -0.4998
 2400TIP3    H228616   4.080   4.127  14.465 -0.1005 -0.5921 -0.5157
 2401TIP3   OH228617   2.918   3.783   2.180  0.5846 -0.1514 -0.8002
 2401TIP3    H128618   2.917   3.771   2.275  0.4312  2.3023 -0.4276
 2401TIP3    H228619   2.827   3.772   2.154  0.4859  0.0392 -0.5365
 2402TIP3   OH228620   3.295   6.686  15.938 -0.4892 -0.2158  0.1412
 2402TIP3    H128621   3.238   6.610  15.938 -0.8553  0.0574  0.1818
 2402TIP3    H228622   3.362   6.666  15.873 -0.0979 -0.9285  0.7489
 2403TIP3   OH228623   6.784   0.845  13.705 -0.1181  0.3633  0.1538
 2403TIP3    H128624   6.787   0.940  13.701  1.1937  0.3047 -0.5466
 2403TIP3    H228625   6.759   0.825  13.795  0.8086  1.3593  0.6473
 2404TIP3   OH228626   3.959   3.546  12.163  0.2939 -0.0855  0.2396
 2404TIP3    H128627   3.884   3.604  12.154  1.2648  1.1512 -0.1303
 2404TIP3    H228628   3.943   3.499  12.245 -0.1946  1.1844  0.9032
 2405TIP3   OH228629   2.673   6.101   1.786  0.0673 -0.4592 -0.0495
 2405TIP3    H128630   2.719   6.155   1.849 -0.3337  0.7778 -0.7708
 2405TIP3    H228631   2.741   6.047   1.746  0.0188 -3.3751  3.2948
 2406TIP3   OH228632   1.664   1.303  14.283 -0.1761  0.1735 -0.0249
 2406TIP3    H128633   1.598   1.267  14.343 -0.4759 -1.9590 -1.5371
 2406TIP3    H228634   1.615   1.324  14.204  0.8771 -1.3650 -1.1408
 2407TIP3   OH228635   4.466   0.642   6.015  0.1309 -0.0140 -0.2552
 2407TIP3    H128636   4.550   0.638   6.061  0.1773 -1.1114 -0.4050
 2407TIP3    H228637   4.485   0.607   5.927 -0.5717 -0.7528 -0.1262
 2408TIP3   OH228638   3.038   4.704  13.147 -0.1777  0.0497 -0.3792
 2408TIP3    H128639   3.083   4.666  13.223  3.4584  2.2902 -1.1567
 2408TIP3    H228640   3.037   4.634  13.082  0.1868 -0.7391  0.4430
 2409TIP3   OH228641   1.494   6.438  10.658  0.5489 -0.0240 -0.4544
 2409TIP3    H128642   1.563   6.404  10.715  0.3461  0.9892  0.4318
 2409TIP3    H228643   1.535   6.507  10.607  0.5976 -0.5756 -1.1845
 2410TIP3   OH228644   0.191   5.453   3.668 -0.0552 -0.3947  0.2652
 2410TIP3    H128645   0.109   5.450   3.619  0.1238 -0.4099 -0.0382
 2410TIP3    H228646   0.203   5.364   3.701  1.2389 -1.1699 -2.0408
 2411TIP3   OH228647   3.976   5.543  11.144 -0.2684 -0.0351 -0.6116
 2411TIP3    H128648   3.906   5.485  11.175  0.3516 -1.3241 -1.5114
 2411TIP3    H228649   4.040   5.544  11.215 -0.1303 -0.7608 -0.7145
 2412TIP3   OH228650   2.932   3.794  11.753  0.1429  0.5313 -0.0203
 2412TIP3    H128651   2.992   3.779  11.681  0.3492 -0.4329  0.3318
 2412TIP3    H228652   2.986   3.830  11.823  0.0584  0.9045 -0.1485
 2413TIP3   OH228653   0.591   3.502   3.029 -0.0662 -0.6808 -0.3764
 2413TIP3    H128654   0.511   3.452   3.042 -1.2330  1.1674 -0.1582
 2413TIP3    H228655   0.613   3.537   3.116 -0.1042  0.3703 -0.7748
 2414TIP3   OH228656   1.837   6.075  11.829 -0.1250 -0.0445 -0.0730
 2414TIP3    H128657   1.824   5.998  11.884 -0.2857  0.3429  0.4365
 2414TIP3    H228658   1.786   6.144  11.871  2.0467  1.0355  0.9774
 2415TIP3   OH228659   5.834   3.431   2.701  0.0838 -0.7246  0.0351
 2415TIP3    H128660   5.892   3.356   2.685  0.5559 -0.4496  0.4177
 2415TIP3    H228661   5.888   3.507   2.682  0.0782 -0.4424  1.0607
 2416TIP3   OH228662   5.295   6.536   5.535  0.0129 -0.2100  0.2972
 2416TIP3    H128663   5.288   6.445   5.506 -0.0895 -0.0879 -0.0730
 2416TIP3    H228664   5.361   6.574   5.477 -0.2326  0.0514  0.1898
 2417TIP3   OH228665   0.542   4.635  12.705 -0.4231 -0.2403  0.0056
 2417TIP3    H128666   0.600   4.626  12.781  1.3821 -1.0790 -1.4205
 2417TIP3    H228667   0.566   4.719  12.666  2.0051 -1.8333 -2.2347
 2418TIP3   OH228668   5.796   2.571   5.376 -0.3235  0.0304 -0.1163
 2418TIP3    H128669   5.885   2.561   5.410  0.3699 -0.7472 -1.9969
 2418TIP3    H228670   5.758   2.484   5.381 -0.0588 -0.1956 -1.6237
 2419TIP3   OH228671   0.072   0.434  11.047  0.3773  0.2087  0.2435
 2419TIP3    H128672   0.113   0.508  11.002  0.9414  1.3930  2.5124
 2419TIP3    H228673   0.129   0.359  11.027  0.1064  0.4755 -1.6468
 2420TIP3   OH228674   0.923   3.192  11.357  0.0090  0.0904  0.2949
 2420TIP3    H128675   0.931   3.105  11.397  0.8379  0.6127  1.3151
 2420TIP3    H228676   0.843   3.229  11.395 -0.8583 -0.5504 -0.8365
 2421TIP3   OH228677   4.963   6.779  15.101  0.2723 -0.3296 -0.4093
 2421TIP3    H128678   5.046   6.813  15.068 -0.3072  1.7477  0.1718
 2421TIP3    H228679   4.975   6.684  15.100  2.4365 -0.1116 -0.8785
 2422TIP3   OH228680   6.624   6.290   3.612  0.4896  0.2941  0.0017
 2422TIP3    H128681   6.549   6.319   3.561  0.2021 -1.2938 -0.5447
 2422TIP3    H228682   6.622   6.343   3.691 -0.3674  1.2525 -0.6473
 2423TIP3   OH228683   3.060   6.156  12.090 -0.7888 -0.1683 -0.6858
 2423TIP3    H128684   2.976   6.201  12.091 -1.0520 -0.6584 -0.2500
 2423TIP3    H228685   3.122   6.222  12.058 -1.2758  0.3035 -0.6740
 2424TIP3   OH228686   1.992   4.053  15.231  0.2027 -0.1458  0.3706
 2424TIP3    H128687   1.989   4.069  15.325 -0.3393 -0.7325  0.4618
 2424TIP3    H228688   2.050   4.121  15.197 -0.5047  0.7889  0.9749
 2425TIP3   OH228689   2.455   6.421  17.047  0.0505 -0.3068  0.4247
 2425TIP3    H128690   2.495   6.476  16.980 -1.1682 -1.2123 -1.1065
 2425TIP3    H228691   2.527   6.368  17.080  0.9996  1.2884  1.0697
 2426TIP3   OH228692   0.310   0.619  17.039  0.4472 -0.0894 -0.2359
 2426TIP3    H128693   0.363   0.543  17.017 -1.3451 -1.3331 -0.4964
 2426TIP3    H228694   0.323   0.631  17.133  0.1398 -1.2274 -0.0360
 2427TIP3   OH228695   2.831   1.725  14.566 -0.0593 -0.7726  0.4593
 2427TIP3    H128696   2.779   1.652  14.534 -1.3755  1.3341 -2.7613
 2427TIP3    H228697   2.915   1.715  14.521  0.1574 -0.8976  0.8910
 2428TIP3   OH228698   0.301   3.148  11.847  0.0137 -0.3756  0.3692
 2428TIP3    H128699   0.347   3.082  11.899  0.3837  0.1026  0.6601
 2428TIP3    H228700   0.333   3.135  11.758  2.2218  1.1521  0.8289
 2429TIP3   OH228701   2.036   6.463  14.113 -0.3226  0.3065 -0.1148
 2429TIP3    H128702   1.942   6.474  14.101 -0.3772 -1.2795 -1.3891
 2429TIP3    H228703   2.074   6.479  14.027  0.3626 -0.9153 -0.0652
 2430TIP3   OH228704   5.843   3.025   5.731 -0.6153 -0.1017  0.3809
 2430TIP3    H128705   5.759   3.006   5.772 -0.6545 -1.6030 -0.3447
 2430TIP3    H228706   5.907   3.017   5.801 -0.6595 -2.7936  0.1915
 2431TIP3   OH228707   2.230   4.019   0.603  0.0590  0.3301 -1.1291
 2431TIP3    H128708   2.180   4.047   0.679 -0.1940 -0.1204 -1.1263
 2431TIP3    H228709   2.288   3.951   0.636 -0.2627 -0.0794 -1.3938
 2432TIP3   OH228710   0.672   6.680   1.269 -0.7064 -0.1512  0.4834
 2432TIP3    H128711   0.671   6.600   1.322  1.4076 -0.2728  0.3995
 2432TIP3    H228712   0.621   6.743   1.321 -0.4575 -0.8708  1.6465
 2433TIP3   OH228713   4.419   6.782  15.595  0.2342  0.1955 -0.2432
 2433TIP3    H128714   4.393   6.696  15.629  0.1170 -0.3259 -1.6064
 2433TIP3    H228715   4.389   6.782  15.505  1.4810  1.1270 -0.6814
 2434TIP3   OH228716   0.579   1.767   4.349 -0.4191 -0.9320 -0.1865
 2434TIP3    H128717   0.657   1.743   4.300  1.8417  3.2467  0.9133
 2434TIP3    H228718   0.578   1.708   4.424  1.5508 -1.2827 -0.3928
 2435TIP3   OH228719   2.359   5.193   4.609  0.2940  0.4285 -0.2475
 2435TIP3    H128720   2.360   5.249   4.686 -1.6169  0.3009 -0.0619
 2435TIP3    H228721   2.392   5.109   4.639  1.4611  0.9378 -0.0809
 2436TIP3   OH228722   0.571   5.896  11.454  0.3286 -0.1207 -0.0620
 2436TIP3    H128723   0.604   5.806  11.453  0.5274 -0.0455 -0.7582
 2436TIP3    H228724   0.476   5.887  11.443  0.3576 -0.2456 -0.2232
 2437TIP3   OH228725   5.443   1.723  16.724  0.1593  0.4614  0.2014
 2437TIP3    H128726   5.536   1.744  16.737  0.3267 -0.2858  0.2385
 2437TIP3    H228727   5.412   1.694  16.810 -0.1978  1.0186  0.2658
 2438TIP3   OH228728   3.094   5.089  16.019  0.3307  0.4129  0.0852
 2438TIP3    H128729   3.167   5.127  15.969 -0.4793  0.1552 -1.3585
 2438TIP3    H228730   3.058   5.022  15.961  0.2535 -0.9533  1.6464
 2439TIP3   OH228731   6.276   5.442   0.014 -0.5769  0.1265  0.3594
 2439TIP3    H128732   6.303   5.496  -0.061  0.1407  0.3089  0.7339
 2439TIP3    H228733   6.306   5.492   0.090  0.5117 -1.0087  0.7061
 2440TIP3   OH228734   4.837   2.777  10.529 -0.1008  0.2059 -0.5787
 2440TIP3    H128735   4.924   2.797  10.495 -0.2070 -0.0668 -1.0346
 2440TIP3    H228736   4.824   2.837  10.602  1.6414 -1.6822  1.4003
 2441TIP3   OH228737   2.447   5.839   0.864 -0.7071 -0.3473 -0.0005
 2441TIP3    H128738   2.432   5.932   0.844  1.9466  0.6212  1.8375
 2441TIP3    H228739   2.459   5.798   0.778 -1.7769  1.0421 -0.8490
 2442TIP3   OH228740   2.893   5.977   1.624 -0.2161  0.4730 -0.3032
 2442TIP3    H128741   2.948   5.931   1.688  0.6898 -1.3989 -2.2884
 2442TIP3    H228742   2.953   6.035   1.578 -0.4825  0.5152 -0.6011
 2443TIP3   OH228743   5.310   1.396  16.346 -0.1174  0.5646  1.0641
 2443TIP3    H128744   5.291   1.352  16.263  0.1610  1.3188  0.5940
 2443TIP3    H228745   5.405   1.399  16.351 -0.1216  2.0600  0.5676
 2444TIP3   OH228746   2.243   6.508   2.004 -0.1632  0.0641  0.3222
 2444TIP3    H128747   2.199   6.494   1.921 -1.1012 -0.2105  0.8487
 2444TIP3    H228748   2.308   6.576   1.986 -0.2987 -0.0573 -0.6480
 2445TIP3   OH228749   3.089   3.157  16.122 -0.0430  0.1836 -0.0585
 2445TIP3    H128750   3.168   3.210  16.132 -1.0050  1.2096  3.7843
 2445TIP3    H228751   3.020   3.221  16.103 -0.7850  0.1382  2.1663
 2446TIP3   OH228752   4.872   3.830   0.724 -0.5010 -0.2225  0.6370
 2446TIP3    H128753   4.964   3.843   0.701 -0.4091 -0.7258  0.7087
 2446TIP3    H228754   4.846   3.753   0.674 -0.3778 -1.1620  1.9939
 2447TIP3   OH228755   2.840   5.838   3.309  0.2684  0.4109  0.2297
 2447TIP3    H128756   2.795   5.906   3.258  0.8041  1.0580  0.6039
 2447TIP3    H228757   2.808   5.755   3.272 -0.2670  0.8629 -0.3456
 2448TIP3   OH228758   4.030   0.832   0.755  0.2527  0.3774 -0.3530
 2448TIP3    H128759   4.122   0.806   0.759 -0.1028 -1.1748 -1.3455
 2448TIP3    H228760   4.033   0.926   0.736  1.6012  0.9092  2.0341
 2449TIP3   OH228761   3.014   4.535   3.098 -0.0341 -0.5803 -0.3196
 2449TIP3    H128762   3.009   4.553   3.004 -2.5647  1.0362  0.0179
 2449TIP3    H228763   3.092   4.583   3.128  0.2905 -0.3776 -1.4477
 2450TIP3   OH228764   3.450   4.477  15.629 -0.2025 -0.0569 -0.3975
 2450TIP3    H128765   3.450   4.390  15.588 -0.8067 -0.4240  0.3563
 2450TIP3    H228766   3.438   4.459  15.723  1.5360  0.7386  0.0091
 2451TIP3   OH228767   4.371   4.547   0.978 -0.0857 -0.5564 -0.0720
 2451TIP3    H128768   4.342   4.462   1.010 -0.1648 -0.8964 -1.0311
 2451TIP3    H228769   4.463   4.553   1.005  0.3012 -1.5130 -1.0994
 2452TIP3   OH228770   4.684   5.144  15.690  0.3363 -0.3705  0.1808
 2452TIP3    H128771   4.767   5.127  15.647  0.6017  1.0646  0.0834
 2452TIP3    H228772   4.693   5.105  15.777  1.4288  0.4850  0.4647
 2453TIP3   OH228773   4.390   3.228   4.279 -0.3745 -0.0582  0.3687
 2453TIP3    H128774   4.379   3.193   4.368  0.3514  0.2049  0.5619
 2453TIP3    H228775   4.336   3.170   4.225  0.3162 -1.1195  0.7683
 2454TIP3   OH228776   3.195   6.229   2.381 -0.0108  0.4082 -0.0706
 2454TIP3    H128777   3.279   6.272   2.374  0.2185  0.1823  1.1264
 2454TIP3    H228778   3.152   6.270   2.456 -0.1851 -0.7400  0.4877
 2455TIP3   OH228779   4.018   6.585  15.290 -0.4065  0.6437 -0.2803
 2455TIP3    H128780   4.047   6.662  15.242 -0.4481  0.7060 -0.2050
 2455TIP3    H228781   3.940   6.554  15.244 -0.5255  0.7832 -0.1722
 2456TIP3   OH228782   3.998   5.942  11.649 -0.3719  0.0464  0.1879
 2456TIP3    H128783   3.964   5.971  11.564  0.4664 -0.4183 -0.3234
 2456TIP3    H228784   4.092   5.928  11.633 -0.1162  0.4259  1.3240
 2457TIP3   OH228785   0.782   0.194  17.151 -0.1367  0.2150 -0.0412
 2457TIP3    H128786   0.745   0.282  17.144 -2.4591 -0.6500  0.3090
 2457TIP3    H228787   0.860   0.196  17.095 -1.8475  1.6235 -2.5793
 2458TIP3   OH228788   5.227   2.450   6.140 -0.0449  0.3250 -0.2467
 2458TIP3    H128789   5.243   2.422   6.230 -0.9151 -0.1296 -0.2241
 2458TIP3    H228790   5.301   2.414   6.090 -0.5433 -1.0744 -0.0199
 2459TIP3   OH228791   4.327   0.686  10.837 -0.3478  0.3561  0.5440
 2459TIP3    H128792   4.277   0.738  10.899  0.8360 -1.0163  2.7736
 2459TIP3    H228793   4.418   0.693  10.868 -0.0739 -2.4943  0.6122
 2460TIP3   OH228794   5.627   0.453  11.703  0.1602 -0.1301 -0.0301
 2460TIP3    H128795   5.666   0.540  11.691  0.4492 -0.0902  1.0716
 2460TIP3    H228796   5.599   0.427  11.615 -2.3472  2.2100 -0.0589
 2461TIP3   OH228797   1.299   1.324  15.306  0.1041  0.4844  0.2148
 2461TIP3    H128798   1.233   1.333  15.237  0.3712  1.0486  0.0245
 2461TIP3    H228799   1.369   1.272  15.265  0.1441  0.5904  0.1496
 2462TIP3   OH228800   3.917   2.251   3.005 -0.1631  0.1077 -0.3249
 2462TIP3    H128801   3.856   2.217   3.070 -0.0055  0.0903 -0.1834
 2462TIP3    H228802   3.959   2.173   2.969  1.6620  0.1843  1.4252
 2463TIP3   OH228803   0.182   0.963  10.821 -0.4930 -0.1772 -0.1754
 2463TIP3    H128804   0.250   0.899  10.842  0.2584  1.0054  1.2312
 2463TIP3    H228805   0.163   0.949  10.728  2.9231  0.5626 -1.1207
 2464TIP3   OH228806   6.092   1.114  16.182  0.0320  0.2911  0.0945
 2464TIP3    H128807   6.110   1.027  16.145 -0.4618  0.5765 -0.8422
 2464TIP3    H228808   6.179   1.150  16.202  0.2728 -0.1140 -0.2083
 2465TIP3   OH228809   1.802   1.982   0.004 -0.4260 -0.1874 -0.0209
 2465TIP3    H128810   1.879   2.035   0.024  0.5271 -1.3492 -0.4844
 2465TIP3    H228811   1.778   1.941   0.087 -0.1571 -0.3211 -0.0095
 2466TIP3   OH228812   0.607   5.512  14.951 -0.5620  0.6032  0.0707
 2466TIP3    H128813   0.676   5.497  15.015 -1.3241 -0.2959  0.7119
 2466TIP3    H228814   0.579   5.424  14.924 -2.9478  0.8370  1.4866
 2467TIP3   OH228815   3.252   0.325  15.161  0.0679  0.2003  0.6389
 2467TIP3    H128816   3.335   0.346  15.205  0.4000  1.2891 -0.4620
 2467TIP3    H228817   3.276   0.305  15.071 -0.7710 -0.4491  0.5494
 2468TIP3   OH228818   3.287   3.521   3.439  0.2212  0.6679 -0.4442
 2468TIP3    H128819   3.194   3.496   3.437  0.2197  0.5909  0.3475
 2468TIP3    H228820   3.333   3.439   3.457  0.4303  0.7352 -0.6787
 2469TIP3   OH228821   6.073   3.383   3.298  0.4788  0.4110  0.3853
 2469TIP3    H128822   6.108   3.472   3.295  1.0149  0.1775 -0.4338
 2469TIP3    H228823   5.986   3.393   3.336 -0.5525  1.6300 -2.1235
 2470TIP3   OH228824   1.011   3.892  13.237  0.3290 -0.3905 -0.0272
 2470TIP3    H128825   1.060   3.834  13.180  0.7905 -1.4471  1.3760
 2470TIP3    H228826   0.930   3.911  13.190 -0.2366 -2.8888 -0.2049
 2471TIP3   OH228827   4.770   0.945  13.946  0.1688  0.1268 -0.4950
 2471TIP3    H128828   4.840   0.996  13.985 -0.3517  2.2057 -2.1365
 2471TIP3    H228829   4.768   0.972  13.855 -2.5109 -0.1090 -0.5856
 2472TIP3   OH228830   4.236   1.921  12.742 -0.5460 -0.4554  0.3029
 2472TIP3    H128831   4.204   1.943  12.829 -0.4379 -0.4865  0.3506
 2472TIP3    H228832   4.243   2.005  12.697 -1.6998 -0.5343 -0.0582
 2473TIP3   OH228833   6.727   5.780   3.804 -0.1310 -0.2212  0.2913
 2473TIP3    H128834   6.639   5.787   3.769 -0.1421 -0.8732  0.1767
 2473TIP3    H228835   6.730   5.693   3.844  0.5057 -0.2615  0.1627
 2474TIP3   OH228836   3.491   4.054  16.344 -0.3044  0.9789  0.0046
 2474TIP3    H128837   3.424   4.028  16.408 -1.0983 -0.1402 -1.2378
 2474TIP3    H228838   3.532   3.971  16.318  1.3030  1.6065  0.4229
 2475TIP3   OH228839   4.683   6.089   3.535 -0.5197 -0.2481 -1.0616
 2475TIP3    H128840   4.643   6.085   3.622  0.4867 -0.7659 -0.6114
 2475TIP3    H228841   4.758   6.147   3.545  0.4878 -1.4810 -1.1987
 2476TIP3   OH228842   3.622   4.635   0.688  0.1101 -0.1195  0.5575
 2476TIP3    H128843   3.657   4.583   0.616  2.3156 -0.6689  1.9543
 2476TIP3    H228844   3.633   4.580   0.765 -3.6518 -0.2153  1.2177
 2477TIP3   OH228845   1.057   1.039   1.558  0.5875  0.1305  0.0426
 2477TIP3    H128846   1.025   1.052   1.469 -0.0861  2.0913  0.5162
 2477TIP3    H228847   1.106   0.957   1.554 -1.4443 -1.1091 -1.5704
 2478TIP3   OH228848   2.337   5.457  16.398 -0.4707 -0.4182 -0.3883
 2478TIP3    H128849   2.406   5.436  16.460 -0.2957  0.7934 -0.1346
 2478TIP3    H228850   2.295   5.374  16.378 -1.3516 -0.7062  2.3068
 2479TIP3   OH228851   0.196   1.712   2.356 -0.4087  0.3130  0.4543
 2479TIP3    H128852   0.246   1.631   2.364 -0.4939 -0.1769 -2.7234
 2479TIP3    H228853   0.263   1.780   2.344 -0.3326 -0.0732 -1.8319
 2480TIP3   OH228854   1.764   2.665  15.029  0.6420 -0.2554 -0.6550
 2480TIP3    H128855   1.745   2.610  15.104  1.4089 -0.8733 -0.9040
 2480TIP3    H228856   1.832   2.725  15.060 -0.3476  0.7374 -0.3148
 2481TIP3   OH228857   4.413   2.594   6.115 -0.2315 -0.1887 -0.1133
 2481TIP3    H128858   4.414   2.686   6.092 -0.1971 -0.2884 -0.5184
 2481TIP3    H228859   4.323   2.576   6.141 -0.3302 -0.1410 -0.4305
 2482TIP3   OH228860   0.443   1.506   1.149  0.8249  0.6522 -0.1543
 2482TIP3    H128861   0.465   1.498   1.056  2.0466 -0.7377  0.2239
 2482TIP3    H228862   0.512   1.561   1.186 -0.3089  2.2169 -0.2430
 2483TIP3   OH228863   2.805   5.196  11.811 -0.3876  0.3329 -0.1606
 2483TIP3    H128864   2.807   5.252  11.888 -1.5085 -0.2163  0.2954
 2483TIP3    H228865   2.733   5.135  11.827  1.0722 -1.5598 -0.4040
 2484TIP3   OH228866   4.118   2.267   1.994  0.7050 -0.0229  0.3308
 2484TIP3    H128867   4.122   2.255   1.899 -1.1997 -0.6814  0.2807
 2484TIP3    H228868   4.196   2.316   2.016  1.0283  0.4038 -1.6235
 2485TIP3   OH228869   0.453   1.278   1.490 -0.1465 -0.0536  0.2435
 2485TIP3    H128870   0.373   1.232   1.518 -0.3733 -0.2027 -0.5907
 2485TIP3    H228871   0.424   1.367   1.472 -0.5514 -0.5465 -1.8063
 2486TIP3   OH228872   1.208   6.121  16.277  0.7094 -0.0398 -0.3037
 2486TIP3    H128873   1.169   6.105  16.191 -0.9753  1.3391  0.1352
 2486TIP3    H228874   1.159   6.196  16.312  1.9619  0.0227  1.4833
 2487TIP3   OH228875   6.081   2.805   0.478  0.0995  0.0804 -0.1168
 2487TIP3    H128876   6.151   2.744   0.454  0.4434  0.2927  0.3376
 2487TIP3    H228877   6.001   2.758   0.457  0.3643 -0.4229 -0.0304
 2488TIP3   OH228878   1.702   1.499  13.070  0.0058 -0.6641  0.6124
 2488TIP3    H128879   1.620   1.533  13.106 -0.7903 -1.2294 -0.6149
 2488TIP3    H228880   1.732   1.568  13.011  0.4133 -0.4692  1.0399
 2489TIP3   OH228881   2.912   5.204  12.842 -0.3959  0.5294  1.0208
 2489TIP3    H128882   3.005   5.218  12.855 -0.4395  1.1756  0.6847
 2489TIP3    H228883   2.870   5.269  12.898 -0.5967  2.4056 -1.1563
 2490TIP3   OH228884   0.444   0.564   3.791 -0.6438  0.0294  0.1344
 2490TIP3    H128885   0.454   0.512   3.871 -0.3168 -0.4278 -0.1953
 2490TIP3    H228886   0.437   0.654   3.821  0.4278 -0.0431  0.6279
 2491TIP3   OH228887   6.604   4.506   4.289  0.1294 -0.5547 -0.2796
 2491TIP3    H128888   6.547   4.456   4.347  0.9878  1.0188  2.0762
 2491TIP3    H228889   6.546   4.536   4.219 -2.1765  1.3093  2.1972
 2492TIP3   OH228890   4.559   2.346  13.535  0.6491 -1.0172 -0.1204
 2492TIP3    H128891   4.489   2.409  13.551  0.5044 -1.2313  0.1059
 2492TIP3    H228892   4.517   2.277  13.483  1.5082  0.4841 -3.0525
 2493TIP3   OH228893   6.413   0.904  12.311  0.2462  0.6669  0.2953
 2493TIP3    H128894   6.494   0.901  12.260 -0.2438 -0.5736 -0.4564
 2493TIP3    H228895   6.430   0.847  12.386 -0.3788 -0.7334 -0.5940
 2494TIP3   OH228896   2.992   0.785   6.211  0.1598 -0.4051  0.5591
 2494TIP3    H128897   3.071   0.802   6.263  1.1222  0.3299 -1.0437
 2494TIP3    H228898   3.004   0.695   6.179  0.5644 -0.1566 -0.0065
 2495TIP3   OH228899   6.274   4.340  13.581  0.0251 -0.0652  0.4363
 2495TIP3    H128900   6.247   4.327  13.672 -0.1174 -3.2087  0.0272
 2495TIP3    H228901   6.360   4.382  13.588  0.4351 -1.0670  2.0624
 2496TIP3   OH228902   1.814   0.532  15.469 -0.3190 -0.3539  0.5075
 2496TIP3    H128903   1.888   0.581  15.506  1.4914 -0.8969 -2.0825
 2496TIP3    H228904   1.801   0.460  15.530  1.0075  0.0007  1.2726
 2497TIP3   OH228905   3.794   5.326   6.366  0.5035  0.2220 -0.4356
 2497TIP3    H128906   3.753   5.241   6.351 -0.1548  0.3725  0.4286
 2497TIP3    H228907   3.785   5.372   6.282  1.2133 -0.6870 -1.0253
 2498TIP3   OH228908   5.815   2.550  15.550  0.0174 -0.0260  0.0343
 2498TIP3    H128909   5.805   2.596  15.633 -4.2822  0.2630 -0.4188
 2498TIP3    H228910   5.832   2.619  15.486 -2.6624  0.6171 -0.0893
 2499TIP3   OH228911   0.604   4.323   0.075  0.8563 -0.1530 -0.0324
 2499TIP3    H128912   0.579   4.415   0.072  1.0219 -0.1310 -1.0321
 2499TIP3    H228913   0.551   4.282   0.006  0.0385 -0.9958  1.0645
 2500TIP3   OH228914   5.421   3.174  11.940 -0.1380  0.1814  0.7420
 2500TIP3    H128915   5.456   3.192  12.027 -0.1030  1.5573  0.4582
 2500TIP3    H228916   5.394   3.259  11.906 -1.2892 -0.4857 -0.1221
 2501TIP3   OH228917   3.844   1.226  15.855 -0.0152 -0.1727  0.1885
 2501TIP3    H128918   3.758   1.261  15.881  0.0438  0.2822 -0.1945
 2501TIP3    H228919   3.907   1.287  15.893  0.0354  1.3122 -2.0839
 2502TIP3   OH228920   0.487   0.371   4.659 -0.3530 -0.3422 -0.0128
 2502TIP3    H128921   0.418   0.410   4.712 -0.9556  1.7412 -2.1410
 2502TIP3    H228922   0.567   0.415   4.687 -0.1875 -1.2499  1.0099
 2503TIP3   OH228923   3.969   6.536   3.739  0.2192  0.2766 -0.2313
 2503TIP3    H128924   4.051   6.511   3.695  0.6529  1.0599  0.0956
 2503TIP3    H228925   3.945   6.619   3.698 -0.2813  0.1726 -0.1496
 2504TIP3   OH228926   6.792   0.247   3.284  0.1334  0.1586  0.0314
 2504TIP3    H128927   6.847   0.233   3.361  2.1554 -0.5433 -1.4707
 2504TIP3    H228928   6.771   0.158   3.253 -0.2150  0.4274 -0.5307
 2505TIP3   OH228929   2.834   1.565  12.905 -0.0096 -0.1830  0.2744
 2505TIP3    H128930   2.863   1.532  12.820  0.6975 -2.7033  1.4006
 2505TIP3    H228931   2.740   1.545  12.907  0.0747 -0.5803  0.2882
 2506TIP3   OH228932   3.797   2.336   2.678 -0.0892  0.2829 -0.3265
 2506TIP3    H128933   3.846   2.381   2.747  3.0457 -0.9816 -1.5909
 2506TIP3    H228934   3.863   2.294   2.624 -2.4718  0.2926 -3.5339
 2507TIP3   OH228935   3.405   5.836   5.266 -0.3694  0.3781 -0.2047
 2507TIP3    H128936   3.368   5.921   5.287 -3.5823 -1.4250  2.4804
 2507TIP3    H228937   3.461   5.814   5.340 -0.1559 -0.1812 -0.5209
 2508TIP3   OH228938   2.494   6.774   2.838  0.1210 -0.4934  0.2484
 2508TIP3    H128939   2.402   6.777   2.863  0.2093  0.0987  0.5195
 2508TIP3    H228940   2.500   6.702   2.775 -0.3145 -1.2990  1.0892
 2509TIP3   OH228941   5.022   5.923  11.519 -0.2105 -0.2894 -0.3175
 2509TIP3    H128942   4.928   5.911  11.505 -0.5755  0.9967  0.8362
 2509TIP3    H228943   5.030   6.011  11.555  1.0570 -1.6044  2.9320
 2510TIP3   OH228944   0.140   6.294  10.787 -0.1467 -0.0960  0.4151
 2510TIP3    H128945   0.190   6.277  10.707 -1.4389 -1.8222 -0.0912
 2510TIP3    H228946   0.058   6.334  10.756  0.1849  1.1570  1.0859
 2511TIP3   OH228947   3.458   5.034   2.907  0.3714 -0.4132 -0.3085
 2511TIP3    H128948   3.519   5.046   2.835  0.7832 -0.8541 -0.0401
 2511TIP3    H228949   3.373   5.021   2.866  0.7095 -1.3125 -0.7363
 2512TIP3   OH228950   4.178   0.963  16.202 -0.3489 -0.2324  0.6077
 2512TIP3    H128951   4.129   0.943  16.123  0.8820 -1.1300  0.0467
 2512TIP3    H228952   4.111   0.974  16.270 -1.3528 -0.7300 -0.2808
 2513TIP3   OH228953   3.849   5.715  14.812 -1.0068 -0.3688  0.1116
 2513TIP3    H128954   3.770   5.743  14.858 -0.9930  1.4080 -0.8539
 2513TIP3    H228955   3.865   5.626  14.843 -2.5764 -0.2473  1.3852
 2514TIP3   OH228956   6.422   2.400   0.128  0.6616  0.3898 -0.2455
 2514TIP3    H128957   6.338   2.377   0.090  0.7061  0.7269 -0.5537
 2514TIP3    H228958   6.486   2.358   0.071  0.7042  0.0857  0.0214
 2515TIP3   OH228959   6.269   1.646   3.260 -0.1728 -0.3607  0.1595
 2515TIP3    H128960   6.186   1.609   3.289  0.6096 -0.2136  2.8119
 2515TIP3    H228961   6.318   1.662   3.340  1.5316  1.7150 -1.1829
 2516TIP3   OH228962   0.545   5.084   2.576  0.0955  0.4600  0.4327
 2516TIP3    H128963   0.615   5.129   2.623 -0.1705  2.1399 -0.6891
 2516TIP3    H228964   0.466   5.104   2.625  0.1542  0.0317  0.7097
 2517TIP3   OH228965   1.420   1.152  16.745 -0.1674  0.5064  0.4143
 2517TIP3    H128966   1.498   1.099  16.727 -0.4903  0.9679 -3.1414
 2517TIP3    H228967   1.346   1.094  16.723 -0.7089  0.9398  1.0479
 2518TIP3   OH228968   1.175   4.908   2.002  0.6086  0.1028 -0.4183
 2518TIP3    H128969   1.192   4.965   2.077  2.2953 -0.4035 -0.3753
 2518TIP3    H228970   1.184   4.966   1.926  0.3941  0.2935 -0.2996
 2519TIP3   OH228971   4.770   2.607  12.800  0.1275  0.1742 -0.0931
 2519TIP3    H128972   4.775   2.622  12.895  0.0725  0.9255 -0.1970
 2519TIP3    H228973   4.802   2.518  12.787 -0.9216 -0.3472  0.7480
 2520TIP3   OH228974   1.006   2.854  14.829  0.4317  0.3298  0.1237
 2520TIP3    H128975   1.099   2.851  14.806  0.4312  0.7617  0.0532
 2520TIP3    H228976   0.960   2.837  14.746  0.4405 -1.9756  0.5152
 2521TIP3   OH228977   4.860   2.945   2.336 -0.2347  0.4089  0.1429
 2521TIP3    H128978   4.776   2.983   2.309 -0.8043  0.6767  2.1355
 2521TIP3    H228979   4.915   3.021   2.355 -0.7951  0.3318  2.4006
 2522TIP3   OH228980   3.797   5.725  10.597  0.2715 -0.6427 -0.0807
 2522TIP3    H128981   3.796   5.668  10.520 -1.1406 -0.5093 -0.1870
 2522TIP3    H228982   3.706   5.752  10.608  0.2736 -1.3633  2.1770
 2523TIP3   OH228983   2.594   5.798  12.731  0.1824  0.3523 -0.3490
 2523TIP3    H128984   2.588   5.892  12.712 -0.0621  0.4152  0.0356
 2523TIP3    H228985   2.518   5.760  12.687  0.6823  0.2294 -1.1242
 2524TIP3   OH228986   4.698   6.041  14.730 -0.5938 -0.1839 -0.0683
 2524TIP3    H128987   4.769   6.097  14.698 -1.5534  1.3973  0.4681
 2524TIP3    H228988   4.735   5.998  14.807 -0.4941  1.4817  0.8831
 2525TIP3   OH228989   3.443   1.800  15.558 -0.5661 -0.1518  0.4320
 2525TIP3    H128990   3.395   1.736  15.610 -0.1556 -0.0557  0.9358
 2525TIP3    H228991   3.518   1.823  15.612 -0.2139  0.0632 -0.1387
 2526TIP3   OH228992   4.194   2.607   4.025 -0.1856 -0.2326 -0.3818
 2526TIP3    H128993   4.116   2.662   4.019 -0.9679 -1.0642  1.4630
 2526TIP3    H228994   4.164   2.519   4.003  0.0793 -0.6590  0.8637
 2527TIP3   OH228995   3.148   5.819  11.165 -0.2334 -0.0419  0.2085
 2527TIP3    H128996   3.101   5.894  11.130  1.0177  0.5019 -0.3614
 2527TIP3    H228997   3.207   5.856  11.231 -0.3983 -0.6735  0.7186
 2528TIP3   OH228998   3.867   6.534   1.316 -0.0823  0.1537 -0.0885
 2528TIP3    H128999   3.951   6.572   1.290  0.8544  0.2885  2.7798
 2528TIP3    H229000   3.891   6.456   1.367 -1.6605  0.3581  1.0385
 2529TIP3   OH229001   0.030   2.162  12.702  0.0262  0.2964 -0.0807
 2529TIP3    H129002   0.110   2.109  12.697  0.3678  0.9161 -1.4808
 2529TIP3    H229003   0.061   2.252  12.707 -0.5698  0.4439  1.7631
 2530TIP3   OH229004   0.146   4.542   2.611  0.0135  0.4588  0.1270
 2530TIP3    H129005   0.067   4.557   2.558  0.1631  1.6791  0.2149
 2530TIP3    H229006   0.113   4.534   2.700 -0.1623 -0.8009 -0.0328
 2531TIP3   OH229007   1.886   2.924  14.820  0.4864 -0.7885  0.9093
 2531TIP3    H129008   1.889   2.852  14.758 -0.1192 -0.6899  0.7612
 2531TIP3    H229009   1.958   2.982  14.794 -0.6720  0.0120 -0.6388
 2532TIP3   OH229010   4.608   0.928   4.552  0.1977  0.2000 -0.5812
 2532TIP3    H129011   4.687   0.929   4.498  3.0648  0.1198  3.2330
 2532TIP3    H229012   4.586   0.835   4.561 -0.0733  0.1929 -1.2459
 2533TIP3   OH229013   4.674   1.058   6.012  0.3298  0.0686  0.1743
 2533TIP3    H129014   4.621   1.138   6.022 -3.1265 -1.9361 -0.5661
 2533TIP3    H229015   4.660   1.010   6.093 -0.5196 -1.3148 -0.7607
 2534TIP3   OH229016   3.509   4.590   1.791 -0.1970 -0.0404  0.2911
 2534TIP3    H129017   3.483   4.653   1.858  0.7059 -0.4145  1.0107
 2534TIP3    H229018   3.594   4.621   1.760 -0.5268  0.0355 -0.5815
 2535TIP3   OH229019   2.876   2.444  13.576 -0.3090 -0.1408  0.0451
 2535TIP3    H129020   2.821   2.421  13.501  1.7141  0.2278 -1.6492
 2535TIP3    H229021   2.954   2.484  13.537  1.6084 -1.4775  2.2095
 2536TIP3   OH229022   6.248   4.176  14.136  0.0012  0.2899  0.4661
 2536TIP3    H129023   6.233   4.088  14.102  1.0969  0.6348 -1.0090
 2536TIP3    H229024   6.161   4.208  14.160 -0.7360 -0.3183 -1.2621
 2537TIP3   OH229025   2.945   4.282   3.268 -0.1947  0.7609 -1.2329
 2537TIP3    H129026   3.013   4.286   3.334  2.7255 -1.3093 -3.8117
 2537TIP3    H229027   2.950   4.367   3.223 -1.3614  1.6973  0.3100
 2538TIP3   OH229028   6.729   1.690   4.978  0.7149  0.3331 -0.2408
 2538TIP3    H129029   6.809   1.689   4.926  0.1330  1.4173 -1.1928
 2538TIP3    H229030   6.757   1.721   5.064  1.1186  2.0465 -0.9514
 2539TIP3   OH229031   0.457   6.598   1.117 -0.3205  0.1263 -0.2519
 2539TIP3    H129032   0.438   6.692   1.109 -1.4404  0.0119  0.7882
 2539TIP3    H229033   0.530   6.594   1.178  1.3369  0.4182 -2.1198
 2540TIP3   OH229034   4.208   2.086   2.613  0.2885  0.2004  0.2277
 2540TIP3    H129035   4.149   2.060   2.684  0.0493  2.0591  0.7549
 2540TIP3    H229036   4.289   2.110   2.656  0.5502  0.1890 -0.2482
 2541TIP3   OH229037   5.310   5.664  15.559 -0.1614 -0.4253 -0.6052
 2541TIP3    H129038   5.296   5.721  15.635  1.9825 -0.5583 -0.0458
 2541TIP3    H229039   5.387   5.612  15.582 -0.3654 -1.5370 -2.2750
 2542TIP3   OH229040   6.769   1.559   0.669 -0.2659 -0.0253  0.5529
 2542TIP3    H129041   6.768   1.600   0.756 -1.2572 -0.0237  0.5465
 2542TIP3    H229042   6.682   1.521   0.659 -0.0562 -0.3000 -0.3209
 2543TIP3   OH229043   0.380   1.712  12.955 -0.1161 -0.4446 -0.2198
 2543TIP3    H129044   0.285   1.721  12.948 -0.0620  0.1445 -0.2661
 2543TIP3    H229045   0.394   1.621  12.981 -0.6438 -0.8068 -1.1813
 2544TIP3   OH229046   4.686   2.085  14.619  0.6511  0.6981  0.1712
 2544TIP3    H129047   4.718   2.013  14.674  0.2474  0.3490 -0.0478
 2544TIP3    H229048   4.622   2.045  14.561  1.5580  0.9084 -1.0378
 2545TIP3   OH229049   4.431   4.291   5.339 -0.1761 -0.2393  0.0878
 2545TIP3    H129050   4.425   4.276   5.433 -0.4019  0.0938  0.1247
 2545TIP3    H229051   4.343   4.317   5.313  0.0170  0.2048 -0.1244
 2546TIP3   OH229052   6.457   6.256  13.148 -0.1169 -0.3866  0.2585
 2546TIP3    H129053   6.524   6.316  13.118 -1.5166  1.1530  0.0537
 2546TIP3    H229054   6.441   6.281  13.239 -0.8933 -0.2580  0.0931
 2547TIP3   OH229055   1.028   1.991   3.464 -0.4731 -0.6022  0.1765
 2547TIP3    H129056   1.088   1.973   3.537  1.0428 -2.7624 -1.4789
 2547TIP3    H229057   0.962   1.922   3.469  1.1928 -2.4918 -1.9641
 2548TIP3   OH229058   0.298   3.788  12.995 -0.1537  0.0585  0.2347
 2548TIP3    H129059   0.376   3.734  12.983 -0.6431 -0.2754 -1.8704
 2548TIP3    H229060   0.329   3.878  12.983  0.0947  0.0289  0.6113
 2549TIP3   OH229061   4.653   5.545   2.917  0.1231 -0.2752  0.2812
 2549TIP3    H129062   4.614   5.610   2.858 -0.2529 -0.3133  0.4811
 2549TIP3    H229063   4.732   5.516   2.873  0.2290  0.2341  0.1361
 2550TIP3   OH229064   1.829   4.736  14.541 -0.3671  0.0865 -0.1629
 2550TIP3    H129065   1.824   4.792  14.618 -0.1414  1.1728 -0.9153
 2550TIP3    H229066   1.923   4.719  14.530 -0.4708 -0.9888  0.4214
 2551TIP3   OH229067   5.029   6.399  15.988  0.2973  0.3983 -0.1256
 2551TIP3    H129068   4.960   6.465  15.977  1.4289  1.9857  1.4662
 2551TIP3    H229069   5.006   6.355  16.070  0.9499  0.6678  0.2057
 2552TIP3   OH229070   5.960   0.817   2.053  0.0270 -0.3469  0.4173
 2552TIP3    H129071   5.976   0.723   2.040 -0.2331 -0.3333 -0.0223
 2552TIP3    H229072   6.047   0.856   2.056  0.1300 -0.3807 -1.1093
 2553TIP3   OH229073   1.827   2.302   0.028  0.4504  0.5314 -0.3085
 2553TIP3    H129074   1.790   2.287  -0.060 -0.7615 -0.2778  0.3052
 2553TIP3    H229075   1.920   2.319   0.012  0.1214  1.1378 -1.8074
 2554TIP3   OH229076   4.329   3.734   0.158  0.9530 -0.1753  0.1505
 2554TIP3    H129077   4.418   3.751   0.127  0.9558  0.8227  0.6705
 2554TIP3    H229078   4.340   3.705   0.249  0.7015  1.0702  0.6026
 2555TIP3   OH229079   5.837   6.050  11.061 -0.5323  0.1458 -0.1716
 2555TIP3    H129080   5.841   6.119  11.127 -0.7026 -1.6850  1.8760
 2555TIP3    H229081   5.791   5.978  11.104 -2.6224 -0.4156 -3.0509
 2556TIP3   OH229082   1.036   4.592   1.835 -0.0524  0.2224  1.0079
 2556TIP3    H129083   1.076   4.633   1.758 -0.7916 -0.0790  0.4456
 2556TIP3    H229084   0.944   4.618   1.830 -0.3624 -0.8131  1.1053
 2557TIP3   OH229085   5.896   6.769  13.970 -0.2216 -0.0693  0.0089
 2557TIP3    H129086   5.961   6.833  13.999 -0.2701 -0.5396  1.2166
 2557TIP3    H229087   5.940   6.684  13.981 -0.1559 -0.2676 -1.5654
 2558TIP3   OH229088   2.406   6.412  12.369  0.1280  0.0792  0.5206
 2558TIP3    H129089   2.436   6.398  12.280  0.9217  1.6543  0.5012
 2558TIP3    H229090   2.345   6.486  12.364 -0.9424 -0.7310  1.0957
 2559TIP3   OH229091   2.542   5.411   2.346 -0.2449 -0.3884 -0.4282
 2559TIP3    H129092   2.632   5.400   2.314  0.4118 -1.1425  1.5456
 2559TIP3    H229093   2.488   5.403   2.267  1.3711 -0.6052 -1.5659
 2560TIP3   OH229094   0.403   4.630  14.489  0.4417  0.3753  0.5076
 2560TIP3    H129095   0.382   4.702  14.549  0.2197 -0.2343  1.1868
 2560TIP3    H229096   0.408   4.553  14.546 -1.7728 -0.5923 -0.4997
 2561TIP3   OH229097   3.466   6.013  14.377  0.2892 -0.0767  0.4284
 2561TIP3    H129098   3.452   6.074  14.450  0.2234 -0.6379  0.8952
 2561TIP3    H229099   3.551   5.973  14.394  0.1001 -0.4958  0.4125
 2562TIP3   OH229100   3.683   4.140  11.193  0.3051  0.0823 -0.5367
 2562TIP3    H129101   3.605   4.090  11.218 -0.4045  0.0487 -2.6353
 2562TIP3    H229102   3.684   4.138  11.097  1.5775  2.1074 -0.6375
 2563TIP3   OH229103   3.368   0.931   3.834 -0.0450  0.5333 -0.5513
 2563TIP3    H129104   3.317   0.996   3.785 -2.1798 -1.0965 -0.6035
 2563TIP3    H229105   3.448   0.920   3.782  0.0282  2.4912 -0.9471
 2564TIP3   OH229106   2.476   3.323  16.269  0.0669  0.1229  0.8004
 2564TIP3    H129107   2.521   3.320  16.184 -0.8958  0.5186  0.2554
 2564TIP3    H229108   2.447   3.233  16.283  0.2829  0.0423  0.7311
 2565TIP3   OH229109   6.035   1.481  14.762  0.3980  0.2144  0.1095
 2565TIP3    H129110   6.099   1.536  14.717 -0.7549  2.1165  0.6524
 2565TIP3    H229111   6.008   1.417  14.697  3.1787 -0.9929  0.0378
 2566TIP3   OH229112   3.969   3.802  11.169 -0.0581 -0.0886 -0.4905
 2566TIP3    H129113   3.895   3.840  11.121 -0.5560 -1.5180 -0.9177
 2566TIP3    H229114   3.959   3.833  11.258  0.2210  1.6974 -1.0459
 2567TIP3   OH229115   2.421   2.179   0.744  0.2119  0.3416 -0.3437
 2567TIP3    H129116   2.397   2.269   0.722  0.6181  1.0122  1.7230
 2567TIP3    H229117   2.364   2.125   0.690 -2.4255  1.8566  0.7230
 2568TIP3   OH229118   1.876   5.857  13.844 -0.4055  0.5135 -0.3664
 2568TIP3    H129119   1.967   5.838  13.822 -0.0439  0.0516  1.3814
 2568TIP3    H229120   1.881   5.926  13.910 -1.1535 -1.2326  1.6136
 2569TIP3   OH229121   1.943   3.496   3.065  0.1967 -0.1868 -0.0105
 2569TIP3    H129122   1.924   3.430   3.132 -0.3688 -0.2638 -0.2384
 2569TIP3    H229123   1.857   3.528   3.038  0.3379 -0.9960 -1.5364
 2570TIP3   OH229124   3.296   0.535   2.367  0.2185 -0.1614  0.1850
 2570TIP3    H129125   3.268   0.595   2.297 -0.9487 -0.5165  0.3287
 2570TIP3    H229126   3.389   0.555   2.379  0.0897  0.9313 -0.4496
 2571TIP3   OH229127   2.606   2.165   0.954 -0.0328 -0.5863 -0.4539
 2571TIP3    H129128   2.687   2.132   0.914 -0.9660 -0.5951 -2.4652
 2571TIP3    H229129   2.544   2.171   0.881 -0.5570  3.7932  0.0735
 2572TIP3   OH229130   2.703   2.451   5.690 -0.1808 -0.1544 -0.1673
 2572TIP3    H129131   2.659   2.535   5.683  2.1510  1.0644 -1.4276
 2572TIP3    H229132   2.657   2.394   5.629  0.3557  1.2930 -2.0157
 2573TIP3   OH229133   2.933   6.398   6.189  0.3281  0.2046  0.4769
 2573TIP3    H129134   2.896   6.392   6.277  2.1877  0.1068  1.2928
 2573TIP3    H229135   2.920   6.489   6.163 -2.1189 -0.2310 -0.0739
 2574TIP3   OH229136   0.263   3.955   2.271 -0.2067 -0.8784 -0.5093
 2574TIP3    H129137   0.308   3.935   2.352  0.4433 -0.0881 -0.6715
 2574TIP3    H229138   0.302   3.896   2.207 -0.5428 -1.3243 -0.3080
 2575TIP3   OH229139   4.687   6.582  15.179  0.4001  0.4159 -1.1357
 2575TIP3    H129140   4.603   6.625  15.166  0.0139 -0.5003 -1.7642
 2575TIP3    H229141   4.715   6.611  15.266 -0.7057  0.4881 -0.7889
 2576TIP3   OH229142   2.997   4.611   5.270  0.8747  0.2613 -0.0169
 2576TIP3    H129143   3.075   4.666   5.266  1.0559 -0.0817 -2.0237
 2576TIP3    H229144   3.022   4.529   5.227 -0.4791  0.0132 -0.3905
 2577TIP3   OH229145   2.094   3.719   0.728  0.1583 -0.1015 -0.0484
 2577TIP3    H129146   2.123   3.660   0.659  1.1169  1.5599 -1.1516
 2577TIP3    H229147   2.034   3.779   0.684  2.3146  2.2458 -0.0182
 2578TIP3   OH229148   4.844   1.149   6.278 -0.1333 -0.4401 -0.3587
 2578TIP3    H129149   4.826   1.098   6.357  2.3101 -2.3367 -0.8964
 2578TIP3    H229150   4.801   1.099   6.208  0.5047 -0.6040 -0.6331
 2579TIP3   OH229151   4.163   3.512  15.612  0.7563 -0.3236 -0.6734
 2579TIP3    H129152   4.200   3.547  15.531  0.8036 -1.2956 -1.0886
 2579TIP3    H229153   4.141   3.421  15.591  1.7804 -0.9295  0.7009
 2580TIP3   OH229154   0.280   5.505  13.056 -0.0948  0.1467 -0.0149
 2580TIP3    H129155   0.371   5.497  13.029  0.2787  0.9695  0.9711
 2580TIP3    H229156   0.231   5.464  12.985  0.9272  1.1743 -1.3707
 2581TIP3   OH229157   6.579   6.118   0.201  0.3000 -0.2414  0.3618
 2581TIP3    H129158   6.579   6.192   0.262 -0.3192  0.0883 -0.0329
 2581TIP3    H229159   6.651   6.137   0.140 -0.2451  0.3518 -0.1073
 2582TIP3   OH229160   0.643   0.433  11.597 -0.4211  0.0219  0.5470
 2582TIP3    H129161   0.552   0.405  11.602 -0.2148 -0.9559 -0.7269
 2582TIP3    H229162   0.688   0.363  11.550  1.4549 -0.5571  3.0183
 2583TIP3   OH229163   1.149   0.697   4.991  0.1370 -0.1754  0.0544
 2583TIP3    H129164   1.210   0.716   5.063  0.6366  1.3650 -0.7354
 2583TIP3    H229165   1.062   0.709   5.029  0.3885  0.2884  0.4951
 2584TIP3   OH229166   1.662   3.439  11.454 -0.1666  0.0435  0.7911
 2584TIP3    H129167   1.758   3.440  11.455 -0.0596  0.1039 -1.6902
 2584TIP3    H229168   1.640   3.402  11.368 -2.2471  4.4550 -0.9107
 2585TIP3   OH229169   3.968   5.557   5.117 -0.6033  0.4432  0.3712
 2585TIP3    H129170   3.930   5.490   5.059  2.2164 -0.1595 -0.9208
 2585TIP3    H229171   3.944   5.640   5.076 -0.6907  0.0892 -0.3218
 2586TIP3   OH229172   6.794   1.566   4.258 -0.6093  0.6857  0.1581
 2586TIP3    H129173   6.770   1.502   4.191  0.3092 -0.0009  0.4616
 2586TIP3    H229174   6.888   1.578   4.247 -0.1091 -0.6947  2.3586
 2587TIP3   OH229175   0.621   4.096  14.077 -0.3097 -0.0314  0.1242
 2587TIP3    H129176   0.629   4.009  14.037 -1.6641  0.2772 -0.8865
 2587TIP3    H229177   0.703   4.108  14.125  0.5045 -1.2722 -0.9007
 2588TIP3   OH229178   1.054   1.513  14.449  0.3459  0.2983  0.1214
 2588TIP3    H129179   1.096   1.556  14.375 -1.1915 -0.8558 -1.5174
 2588TIP3    H229180   0.998   1.446  14.409 -0.4660 -0.4450  2.3457
 2589TIP3   OH229181   5.419   6.591   2.276 -0.0345  0.3794  0.0044
 2589TIP3    H129182   5.450   6.615   2.363 -0.3102  1.7496 -0.2432
 2589TIP3    H229183   5.496   6.604   2.219 -0.2640  0.9692 -0.1766
 2590TIP3   OH229184   0.893   3.587   3.581 -0.1766 -0.0497 -0.3516
 2590TIP3    H129185   0.954   3.650   3.542  0.6762 -0.3172  0.5422
 2590TIP3    H229186   0.823   3.642   3.617  0.0795  0.3240 -0.4159
 2591TIP3   OH229187   5.816   3.733  12.022 -0.4356  0.0584 -0.0782
 2591TIP3    H129188   5.744   3.734  11.959 -1.3861 -0.5982  0.9730
 2591TIP3    H229189   5.836   3.641  12.035  1.7703  0.2336 -1.6078
 2592TIP3   OH229190   5.983   6.313   5.551 -0.4099 -0.2807 -0.3085
 2592TIP3    H129191   5.937   6.230   5.561 -0.5605 -0.1796 -0.1514
 2592TIP3    H229192   5.966   6.340   5.460  2.0837 -1.8716 -1.3675
 2593TIP3   OH229193   1.876   5.787   5.556 -0.0083  0.0776 -0.4561
 2593TIP3    H129194   1.877   5.863   5.498  0.1694  0.3253 -0.1321
 2593TIP3    H229195   1.842   5.820   5.639  0.7991 -0.0067 -0.0737
 2594TIP3   OH229196   0.648   6.643  13.660  0.1484 -0.1762  0.2284
 2594TIP3    H129197   0.618   6.585  13.730  0.2416 -2.4194 -1.4809
 2594TIP3    H229198   0.740   6.660  13.680 -0.2721  0.6371  1.5439
 2595TIP3   OH229199   5.990   5.121  12.313  0.0598 -0.4576 -0.4075
 2595TIP3    H129200   5.990   5.122  12.217  0.7600 -2.1238 -0.4584
 2595TIP3    H229201   5.985   5.028  12.336  0.2494 -0.1010  1.1745
 2596TIP3   OH229202   3.186   5.497   0.256  0.7709 -0.7444 -0.2498
 2596TIP3    H129203   3.221   5.584   0.236  1.0400 -0.5696  0.9353
 2596TIP3    H229204   3.181   5.494   0.351 -0.7134 -1.4615 -0.3266
 2597TIP3   OH229205   1.571   1.372  16.287  0.1605  0.1069  0.0690
 2597TIP3    H129206   1.620   1.307  16.338 -0.0160 -0.3769 -0.3666
 2597TIP3    H229207   1.485   1.375  16.329  0.2084  0.1529  0.1650
 2598TIP3   OH229208   3.378   6.004  13.599  0.1029 -0.3565  0.0242
 2598TIP3    H129209   3.296   6.044  13.630 -0.1078 -0.9250  0.2225
 2598TIP3    H229210   3.444   6.072  13.610 -0.6314  0.6898 -1.7056
 2599TIP3   OH229211   5.330   5.671  16.339  0.1201  0.1424 -0.3898
 2599TIP3    H129212   5.415   5.630  16.353 -0.5844 -1.7289 -1.2551
 2599TIP3    H229213   5.315   5.664  16.244 -0.9336  0.5480 -0.2679
 2600TIP3   OH229214   2.641   0.122  12.297 -0.6778 -0.1793  0.4405
 2600TIP3    H129215   2.604   0.052  12.244  2.1204 -0.7928 -0.9570
 2600TIP3    H229216   2.700   0.168  12.236  0.1072  1.2412  2.1814
 2601TIP3   OH229217   2.426   3.769   4.353 -0.4546  0.3654  0.1440
 2601TIP3    H129218   2.382   3.851   4.374  2.1387  1.9851 -0.3578
 2601TIP3    H229219   2.443   3.774   4.259 -0.7422 -1.0222 -0.0040
 2602TIP3   OH229220   6.381   4.225  15.058  0.6436  0.0363 -0.2050
 2602TIP3    H129221   6.370   4.163  15.129 -1.2552 -0.2459 -0.6884
 2602TIP3    H229222   6.428   4.177  14.990  2.2535  0.2367  0.7238
 2603TIP3   OH229223   1.191   3.476   1.671  0.3630 -0.5534  0.0625
 2603TIP3    H129224   1.177   3.546   1.608  0.5638  0.6833  1.3542
 2603TIP3    H229225   1.285   3.474   1.685  0.5798 -2.2658 -1.2232
 2604TIP3   OH229226   3.124   1.498  14.180 -0.5543  0.6680  0.1690
 2604TIP3    H129227   3.106   1.474  14.089 -0.5959  0.2330  0.2920
 2604TIP3    H229228   3.134   1.593  14.178  0.8068  0.5312 -0.5244
 2605TIP3   OH229229   0.453   4.811   1.521  0.7243  0.1087 -0.3363
 2605TIP3    H129230   0.528   4.795   1.579  0.3376  2.2498  0.8543
 2605TIP3    H229231   0.453   4.736   1.461  1.9901 -1.4700  1.5258
 2606TIP3   OH229232   4.703   1.462  13.261  0.5433 -0.1183 -0.1615
 2606TIP3    H129233   4.651   1.536  13.292 -1.8664 -0.6780 -2.5441
 2606TIP3    H229234   4.792   1.482  13.290 -0.6021  1.8241  2.4678
 2607TIP3   OH229235   0.775   1.359  13.775  0.4725  0.3795  0.0805
 2607TIP3    H129236   0.775   1.432  13.713  0.2062  0.0283 -0.3424
 2607TIP3    H229237   0.692   1.367  13.821 -0.6397 -0.9611 -1.5605
 2608TIP3   OH229238   5.376   6.684  16.443  0.3650 -0.1595  0.1216
 2608TIP3    H129239   5.328   6.680  16.360 -1.1397  0.5942  0.9106
 2608TIP3    H229240   5.331   6.751  16.494 -0.9989 -2.9122  2.8965
 2609TIP3   OH229241   2.672   4.730  17.079 -0.1867  0.4430  0.0592
 2609TIP3    H129242   2.608   4.761  17.015 -0.0961 -1.0599 -0.8061
 2609TIP3    H229243   2.620   4.714  17.158 -0.4424  1.5067  0.1300
 2610TIP3   OH229244   1.005   5.851   3.717  0.4277  0.5156  0.4813
 2610TIP3    H129245   1.061   5.807   3.654 -1.7874 -0.6743 -0.8008
 2610TIP3    H229246   0.988   5.937   3.679  1.9333  1.1839  1.2550
 2611TIP3   OH229247   3.791   6.764  12.185  0.0803 -0.3606 -0.2232
 2611TIP3    H129248   3.782   6.822  12.110  1.7769  0.4420  0.1491
 2611TIP3    H229249   3.718   6.788  12.243 -0.7063 -0.3626 -1.1996
 2612TIP3   OH229250   4.027   1.104  13.901  0.9143 -0.2765  0.0089
 2612TIP3    H129251   4.085   1.053  13.844 -0.4385 -1.7105 -0.1590
 2612TIP3    H229252   3.984   1.166  13.842 -0.6034 -1.8634 -0.6393
 2613TIP3   OH229253   0.296   6.322   3.338  0.3088  0.5183 -0.4821
 2613TIP3    H129254   0.213   6.274   3.343  0.1475  0.9025  1.2338
 2613TIP3    H229255   0.272   6.412   3.362  1.0648  0.8688 -1.0043
 2614TIP3   OH229256   4.885   2.206   4.245  0.1948 -0.2971 -0.3569
 2614TIP3    H129257   4.865   2.221   4.152  2.1550  0.5454 -0.6871
 2614TIP3    H229258   4.802   2.177   4.282 -0.9057  0.3278 -2.1630
 2615TIP3   OH229259   4.246   5.398   0.691  0.0433  0.1543  0.3277
 2615TIP3    H129260   4.328   5.421   0.736  0.3741  0.4289 -0.4122
 2615TIP3    H229261   4.208   5.481   0.664 -0.1051 -0.0128  0.0108
 2616TIP3   OH229262   3.627   1.757   5.135 -0.0509 -0.2827 -0.3600
 2616TIP3    H129263   3.666   1.800   5.211 -0.6364 -1.0264  0.3776
 2616TIP3    H229264   3.567   1.693   5.172 -0.2199 -0.7769 -1.4557
 2617TIP3   OH229265   6.568   3.385   0.071 -0.1502  0.6167  0.6010
 2617TIP3    H129266   6.475   3.360   0.073 -0.4050  1.3739  3.4937
 2617TIP3    H229267   6.611   3.321   0.127  1.2992 -0.2283 -1.3785
 2618TIP3   OH229268   6.408   0.545   0.667 -0.1616  0.1047 -0.7600
 2618TIP3    H129269   6.391   0.575   0.757  0.1307 -0.9093 -0.3480
 2618TIP3    H229270   6.490   0.495   0.674 -0.5588 -0.6671 -1.4280
 2619TIP3   OH229271   2.828   6.278   1.140 -0.7383  0.3284 -0.2334
 2619TIP3    H129272   2.807   6.281   1.046  1.6572 -1.3880 -0.9365
 2619TIP3    H229273   2.885   6.353   1.154  0.2208 -0.3155 -0.5769
 2620TIP3   OH229274   3.740   3.520  11.131  0.1789  0.2715  0.3333
 2620TIP3    H129275   3.806   3.534  11.064 -0.7483  0.8754 -0.4724
 2620TIP3    H229276   3.687   3.600  11.131 -1.0943 -0.5365  0.3436
 2621TIP3   OH229277   0.394   1.453  13.055 -0.2024 -0.0287  0.8747
 2621TIP3    H129278   0.317   1.424  13.104 -0.3009 -0.5236  0.4356
 2621TIP3    H229279   0.468   1.411  13.100 -0.2448 -0.0373  0.9359
 2622TIP3   OH229280   2.429   4.445   1.900 -0.2946 -0.5121  0.1588
 2622TIP3    H129281   2.500   4.498   1.937  0.4956 -1.9043  0.7070
 2622TIP3    H229282   2.464   4.356   1.900 -1.5138 -1.0126 -0.9345
 2623TIP3   OH229283   2.900   4.842   2.237 -0.6520  0.1585 -0.1305
 2623TIP3    H129284   2.899   4.902   2.162 -2.5474 -0.3661 -0.5815
 2623TIP3    H229285   2.935   4.761   2.202 -0.4941  0.2408 -0.1656
 2624TIP3   OH229286   5.281   4.351   0.000  0.2292  0.0879  0.3152
 2624TIP3    H129287   5.292   4.286  -0.069  0.5347  1.2786 -0.8011
 2624TIP3    H229288   5.250   4.301   0.076  0.8895 -1.4016 -0.3663
 2625TIP3   OH229289   6.601   4.650  13.870 -0.2950 -0.1953  0.1641
 2625TIP3    H129290   6.691   4.672  13.893 -0.6348  1.3846  0.1371
 2625TIP3    H229291   6.549   4.687  13.941 -1.0020  0.0664 -0.4743
 2626TIP3   OH229292   0.082   4.913  11.956 -0.1038 -0.4835 -0.4493
 2626TIP3    H129293   0.102   4.946  11.868 -0.0019 -2.2725 -1.1326
 2626TIP3    H229294   0.051   4.824  11.942  0.5018 -1.0253  1.3841
 2627TIP3   OH229295   6.793   2.290   4.337 -0.0948  0.5509 -0.3040
 2627TIP3    H129296   6.765   2.198   4.333  0.6166  0.3128  0.0328
 2627TIP3    H229297   6.788   2.313   4.430 -2.3570  1.5428 -0.5935
 2628TIP3   OH229298   0.013   1.825   5.801 -0.3134  0.2550 -0.6600
 2628TIP3    H129299  -0.048   1.813   5.874  1.2160  2.4576  1.1142
 2628TIP3    H229300   0.091   1.777   5.827 -0.3063 -0.2733 -1.6267
 2629TIP3   OH229301   5.256   5.850  15.772  0.1224 -0.4849 -0.2278
 2629TIP3    H129302   5.216   5.888  15.850  0.3584 -1.2050  0.2439
 2629TIP3    H229303   5.229   5.909  15.701  0.2409  0.4033  0.4446
 2630TIP3   OH229304   5.367   0.871   2.871  0.1609 -0.2272  0.0803
 2630TIP3    H129305   5.438   0.881   2.808 -1.2823  1.6675 -1.3789
 2630TIP3    H229306   5.391   0.929   2.943  0.2851  0.0908 -0.2165
 2631TIP3   OH229307   5.966   1.695  16.279 -0.4353  0.0164 -0.1576
 2631TIP3    H129308   5.984   1.732  16.192  1.7475 -2.4351 -0.8636
 2631TIP3    H229309   6.013   1.754  16.339 -0.9135  1.0148 -0.7250
 2632TIP3   OH229310   3.317   0.635   5.632  0.4022 -0.4744 -0.0371
 2632TIP3    H129311   3.246   0.581   5.669  1.0032 -1.0800  0.2509
 2632TIP3    H229312   3.276   0.680   5.558 -0.4195 -0.4195  0.4399
 2633TIP3   OH229313   6.486   3.321   0.729 -0.3107  0.6298 -0.2856
 2633TIP3    H129314   6.569   3.357   0.761  0.0383  0.2438 -0.7362
 2633TIP3    H229315   6.463   3.376   0.654 -0.5028  0.7852 -0.1128
 2634TIP3   OH229316   2.251   1.282   4.784 -0.7248 -0.2763 -0.1493
 2634TIP3    H129317   2.164   1.302   4.819 -0.6212  0.2442 -0.1733
 2634TIP3    H229318   2.288   1.219   4.846 -2.0801 -2.5049 -1.4781
 2635TIP3   OH229319   6.377   4.943   1.419  0.0875 -0.5713  0.0403
 2635TIP3    H129320   6.369   4.849   1.437  3.7847 -0.6145  2.7132
 2635TIP3    H229321   6.460   4.951   1.372 -1.0363  1.3128 -1.7815
 2636TIP3   OH229322   5.641   2.510  16.812 -0.1288 -0.7415 -0.3489
 2636TIP3    H129323   5.612   2.422  16.787 -2.6475  0.6316 -2.7598
 2636TIP3    H229324   5.695   2.539  16.739  1.1436 -0.4059  0.6822
 2637TIP3   OH229325   1.472   4.741   3.233  0.9377 -0.1712  0.1805
 2637TIP3    H129326   1.459   4.814   3.294 -1.9416 -0.4653  0.0315
 2637TIP3    H229327   1.420   4.764   3.156  1.3453 -1.6410 -0.5794
 2638TIP3   OH229328   3.072   2.442   5.405 -0.6065 -0.2371 -0.3749
 2638TIP3    H129329   3.069   2.366   5.346 -0.0868  0.0321 -0.7546
 2638TIP3    H229330   3.079   2.404   5.493 -3.0673 -0.6844 -0.3048
 2639TIP3   OH229331   0.459   5.175  16.396  0.4401  0.2724  0.0074
 2639TIP3    H129332   0.545   5.134  16.392  0.1163 -1.1854  3.6751
 2639TIP3    H229333   0.476   5.265  16.424  0.7928 -0.1726  1.2674
 2640TIP3   OH229334   5.113   3.420   5.801  0.0758 -0.4358  0.0342
 2640TIP3    H129335   5.153   3.402   5.886  1.6354 -0.1557 -0.6113
 2640TIP3    H229336   5.165   3.370   5.739  0.4174  1.1474 -1.0213
 2641TIP3   OH229337   6.040   5.353   0.268 -0.0591  0.1058  0.3131
 2641TIP3    H129338   6.115   5.319   0.219  1.1647  1.0798  1.4464
 2641TIP3    H229339   6.076   5.423   0.322 -1.9859  1.3325  0.1092
 2642TIP3   OH229340   3.505   6.388   1.530  0.2095 -0.0704 -0.8247
 2642TIP3    H129341   3.502   6.469   1.581 -0.8555 -1.0241  0.7320
 2642TIP3    H229342   3.594   6.355   1.543  0.9475  1.2645 -2.2268
 2643TIP3   OH229343   5.584   0.197   1.549  0.5553  0.0937  0.1694
 2643TIP3    H129344   5.580   0.104   1.573  0.6090 -0.0720 -0.4441
 2643TIP3    H229345   5.631   0.238   1.621  1.5959 -0.5641 -0.1131
 2644TIP3   OH229346   5.077   0.731   5.287 -0.5497  0.0854  0.4953
 2644TIP3    H129347   5.005   0.790   5.312  0.5847  2.4410 -1.3744
 2644TIP3    H229348   5.034   0.654   5.250 -2.2096  1.9576 -1.7440
 2645TIP3   OH229349   5.343   4.534   1.888 -0.6893  1.4094 -0.4040
 2645TIP3    H129350   5.431   4.516   1.922 -0.4023  0.0409 -1.7449
 2645TIP3    H229351   5.333   4.629   1.897  0.6697  1.5114  0.3409
 2646TIP3   OH229352   2.278   0.006   2.423  0.4001 -0.1808 -0.5557
 2646TIP3    H129353   2.234   0.015   2.339  0.7074 -0.6872 -0.7770
 2646TIP3    H229354   2.325   0.088   2.435 -2.8418  1.6322  1.0289
 2647TIP3   OH229355   0.489   5.904  12.297  0.0561 -0.5371 -0.3786
 2647TIP3    H129356   0.435   5.881  12.222 -1.0889 -1.3430  0.6553
 2647TIP3    H229357   0.523   5.991  12.276 -0.4652 -0.6214 -1.6873
 2648TIP3   OH229358   3.628   2.630  15.445  0.1139 -0.0615  0.0228
 2648TIP3    H129359   3.542   2.603  15.477 -0.1387  1.1952  0.4602
 2648TIP3    H229360   3.611   2.665  15.357 -0.0158  1.2027  0.5351
 2649TIP3   OH229361   0.195   0.025   3.006  0.4360  0.0096 -0.1944
 2649TIP3    H129362   0.228   0.106   3.043  0.2458  0.6962 -1.4814
 2649TIP3    H229363   0.107   0.016   3.042  1.6965 -1.5710  2.8526
 2650TIP3   OH229364   3.086   6.502  16.614  0.3726  0.1076  0.3489
 2650TIP3    H129365   3.104   6.451  16.693  0.7900  1.6825  1.3067
 2650TIP3    H229366   3.170   6.509  16.570  1.2285  3.0171  2.1401
 2651TIP3   OH229367   0.528   6.058  13.589  0.2766 -0.5166  0.0641
 2651TIP3    H129368   0.618   6.036  13.609 -0.0247 -0.5540  1.4686
 2651TIP3    H229369   0.482   6.051  13.672 -1.0034 -0.3775 -0.5980
 2652TIP3   OH229370   3.888   4.837   1.335  0.0382 -0.3150 -0.4093
 2652TIP3    H129371   3.800   4.875   1.331  0.6365  1.0751 -1.0591
 2652TIP3    H229372   3.930   4.880   1.409 -0.5282 -2.6943  1.4489
 2653TIP3   OH229373   4.151   2.505  16.626 -0.3170 -0.1919 -0.3697
 2653TIP3    H129374   4.224   2.523  16.568  0.8298 -2.0112  0.4331
 2653TIP3    H229375   4.076   2.547  16.583  1.1860  2.0087 -1.0517
 2654TIP3   OH229376   6.768   0.125  15.539 -0.0241 -0.2416 -0.1225
 2654TIP3    H129377   6.816   0.188  15.486  0.7931 -0.6381  0.1312
 2654TIP3    H229378   6.727   0.178  15.607  0.8577 -0.0042  0.2373
 2655TIP3   OH229379   1.962   6.293  13.855 -0.3915  1.0487  0.4921
 2655TIP3    H129380   2.032   6.357  13.871 -0.9285  1.6907  0.3613
 2655TIP3    H229381   1.979   6.222  13.916  0.9874  0.6846 -0.2760
 2656TIP3   OH229382   1.176   6.206   4.500  0.5059 -0.4340  0.0422
 2656TIP3    H129383   1.217   6.286   4.532 -0.0832 -0.9544  2.2417
 2656TIP3    H229384   1.097   6.236   4.455  0.2681  0.2344  0.8829
 2657TIP3   OH229385   4.594   6.081  10.241  1.1273 -0.2893 -0.0075
 2657TIP3    H129386   4.515   6.029  10.228  1.0580  0.1877 -1.7455
 2657TIP3    H229387   4.565   6.155  10.295 -0.0223  0.6758 -1.8323
 2658TIP3   OH229388   2.612   5.102  13.718 -0.5402  0.5949 -0.1520
 2658TIP3    H129389   2.637   5.188  13.685 -1.1318  0.0927 -2.0149
 2658TIP3    H229390   2.517   5.108  13.733 -0.8409 -0.1038 -1.6097
 2659TIP3   OH229391   2.523   1.187  16.980 -0.3166  0.4913 -0.1017
 2659TIP3    H129392   2.453   1.213  16.921 -0.1169  2.5729  0.4811
 2659TIP3    H229393   2.484   1.193  17.067  0.6204  1.9505  0.2460
 2660TIP3   OH229394   5.587   2.302   5.044 -0.5492 -0.5136 -0.0932
 2660TIP3    H129395   5.646   2.227   5.053  0.9650  0.5877 -0.4081
 2660TIP3    H229396   5.611   2.341   4.960  2.5525  3.3752  2.2181
 2661TIP3   OH229397   5.821   2.449   4.871  0.4247  0.6447 -0.5353
 2661TIP3    H129398   5.789   2.380   4.813  0.5667 -0.9180  1.1541
 2661TIP3    H229399   5.911   2.424   4.891  0.5571  1.4464 -0.0821
 2662TIP3   OH229400   2.367   4.781   1.021  0.5273 -0.8540 -0.5965
 2662TIP3    H129401   2.438   4.814   1.075 -1.5759  1.0251  1.2400
 2662TIP3    H229402   2.316   4.725   1.080 -0.7873 -0.2792 -1.1494
 2663TIP3   OH229403   3.947   0.990  15.160 -0.1692 -0.1359  0.0645
 2663TIP3    H129404   3.988   0.933  15.226 -0.5710  0.2867  0.6842
 2663TIP3    H229405   3.890   0.931  15.111  0.2372 -0.4830 -0.0011
 2664TIP3   OH229406   3.374   0.538   5.331  0.2535 -0.4991  0.1268
 2664TIP3    H129407   3.355   0.629   5.355  1.1111 -0.3187  0.1541
 2664TIP3    H229408   3.419   0.503   5.408 -0.3480 -1.0466  0.2379
 2665TIP3   OH229409   5.546   0.126  12.752 -0.7649  0.4691  0.3853
 2665TIP3    H129410   5.616   0.116  12.688  0.4722 -0.3650  1.8018
 2665TIP3    H229411   5.519   0.217  12.745  0.0445  0.6455 -0.6061
 2666TIP3   OH229412   1.228   6.758  12.839 -0.4288  0.0076 -0.4270
 2666TIP3    H129413   1.148   6.749  12.787 -1.0640  0.4231  0.4570
 2666TIP3    H229414   1.294   6.788  12.776 -0.8449 -0.7703 -1.2577
 2667TIP3   OH229415   0.145   4.961   0.533 -0.3912  0.6303 -0.3461
 2667TIP3    H129416   0.211   5.009   0.583  2.1561 -0.1836 -2.7018
 2667TIP3    H229417   0.121   4.888   0.591 -1.0159  2.1942  1.4679
 2668TIP3   OH229418   6.654   2.592  13.048 -0.4248  0.3364  0.3043
 2668TIP3    H129419   6.657   2.553  13.135 -1.7975  0.5258  0.4580
 2668TIP3    H229420   6.561   2.600  13.028 -0.1481 -0.3725 -1.4928
 2669TIP3   OH229421   3.912   0.644  16.696  0.0677  0.7578 -0.9823
 2669TIP3    H129422   3.837   0.646  16.636 -1.3497 -1.7125  0.5355
 2669TIP3    H229423   3.910   0.729  16.739 -1.1252  1.1997 -1.8381
 2670TIP3   OH229424   2.719   2.436  15.388 -0.1408  0.1028 -0.1814
 2670TIP3    H129425   2.632   2.425  15.349 -1.2081  0.7400  1.8782
 2670TIP3    H229426   2.719   2.524  15.424  1.3363  0.0742 -0.0450
 2671TIP3   OH229427   0.905   6.740  11.402 -0.3515 -0.4492 -0.6005
 2671TIP3    H129428   0.926   6.647  11.393  1.1044 -0.1989 -0.0247
 2671TIP3    H229429   0.982   6.786  11.367 -0.3742  0.5231  0.5537
 2672TIP3   OH229430   6.478   3.041   2.839 -0.2865  0.2253  0.0870
 2672TIP3    H129431   6.489   3.129   2.806 -1.7844  0.0633 -0.9366
 2672TIP3    H229432   6.524   2.985   2.777 -2.2615  0.0130 -1.2754
 2673TIP3   OH229433   6.571   4.395   1.046 -0.4112  0.4511 -0.4879
 2673TIP3    H129434   6.594   4.465   0.986 -1.9637  0.7077 -0.8264
 2673TIP3    H229435   6.483   4.369   1.020 -0.1837 -1.0791  0.1531
 2674TIP3   OH229436   3.635   4.412   0.527  0.1811  0.4976 -0.4267
 2674TIP3    H129437   3.554   4.447   0.491 -0.6972 -0.6528  0.3799
 2674TIP3    H229438   3.650   4.331   0.479  1.5662  1.3039 -1.4488
 2675TIP3   OH229439   4.894   0.083  12.164 -0.0771 -0.2792 -0.0898
 2675TIP3    H129440   4.850   0.028  12.229 -1.8083  0.9032 -0.2061
 2675TIP3    H229441   4.861   0.052  12.080  1.2490 -1.0048 -0.3832
 2676TIP3   OH229442   2.570   1.883   0.761 -0.0790  0.1202 -0.0137
 2676TIP3    H129443   2.657   1.913   0.786 -1.1258  1.2904  2.5076
 2676TIP3    H229444   2.511   1.951   0.792 -1.8716  0.0167 -2.8551
 2677TIP3   OH229445   1.759   1.758   5.560 -0.0408 -0.0039 -0.3446
 2677TIP3    H129446   1.730   1.843   5.592  0.1812 -0.5887  1.5502
 2677TIP3    H229447   1.741   1.698   5.632 -0.9270 -1.7412 -1.9254
 2678TIP3   OH229448   6.129   2.514   4.626  0.3976 -0.1998 -0.0557
 2678TIP3    H129449   6.056   2.545   4.572  0.1547  0.2055  0.4981
 2678TIP3    H229450   6.118   2.419   4.628 -0.3991 -0.1105  0.4108
 2679TIP3   OH229451   5.059   4.706   1.728  0.6445  0.0101 -0.4200
 2679TIP3    H129452   5.130   4.770   1.723 -0.7942  1.5612 -3.6637
 2679TIP3    H229453   5.069   4.652   1.649 -0.1809 -1.6170  0.5250
 2680TIP3   OH229454   1.184   2.298  17.174 -0.0826 -0.4476  0.2837
 2680TIP3    H129455   1.143   2.315  17.090  0.7085 -1.5293 -0.3514
 2680TIP3    H229456   1.123   2.333  17.239 -0.5528  0.6861 -0.7376
 2681TIP3   OH229457   2.828   3.507   1.031 -0.2091  0.0332  0.3780
 2681TIP3    H129458   2.900   3.527   1.091 -0.5070 -0.5000  0.9294
 2681TIP3    H229459   2.789   3.427   1.067 -0.3557 -0.3327 -0.5717
 2682TIP3   OH229460   2.932   1.456   4.186 -0.5220 -0.2669  0.1665
 2682TIP3    H129461   2.848   1.497   4.207 -0.9326 -0.2951 -1.2725
 2682TIP3    H229462   2.938   1.462   4.091  1.3961  0.2424  0.2917
 2683TIP3   OH229463   2.011   4.890   0.926 -0.2766 -0.1059 -0.3420
 2683TIP3    H129464   2.014   4.896   1.022 -2.1404 -0.3885 -0.2298
 2683TIP3    H229465   1.929   4.934   0.902  0.8786  1.3312 -1.9633
 2684TIP3   OH229466   2.691   1.369   3.525 -0.0745 -0.7438  0.4767
 2684TIP3    H129467   2.628   1.303   3.553  0.1223 -0.6588  1.1218
 2684TIP3    H229468   2.718   1.413   3.605  1.0414 -0.9793  0.2434
 2685TIP3   OH229469   4.620   1.981  14.198  0.6834  0.0904  0.2967
 2685TIP3    H129470   4.567   2.039  14.144 -0.0950 -0.2089  0.7123
 2685TIP3    H229471   4.636   1.905  14.142  1.0953  0.3964 -0.0023
 2686TIP3   OH229472   4.784   0.040  14.282  0.7359  0.1597 -0.2935
 2686TIP3    H129473   4.787   0.123  14.330  1.8916 -0.4504  0.7588
 2686TIP3    H229474   4.774   0.065  14.191  0.1489  1.4222  0.0964
 2687TIP3   OH229475   3.419   6.476   4.576 -0.5477 -0.4717 -0.4651
 2687TIP3    H129476   3.508   6.445   4.593 -0.2697 -0.7499 -2.2609
 2687TIP3    H229477   3.429   6.545   4.511 -1.4573  1.2459  1.1017
 2688TIP3   OH229478   3.201   1.556   6.001 -0.3278 -0.7076  0.0949
 2688TIP3    H129479   3.106   1.544   6.010 -0.2445 -2.1647 -0.7321
 2688TIP3    H229480   3.239   1.479   6.043  0.5330  0.0823  0.8138
 2689TIP3   OH229481   0.509   5.297   5.473  0.2655 -0.1168 -0.0115
 2689TIP3    H129482   0.463   5.366   5.425  0.2709 -0.0504  0.0790
 2689TIP3    H229483   0.515   5.330   5.562  0.5811 -0.0827 -0.0465
 2690TIP3   OH229484   2.624   5.488   1.533  0.1469  0.3440 -0.1308
 2690TIP3    H129485   2.600   5.450   1.618  0.4512 -0.3328 -0.3428
 2690TIP3    H229486   2.691   5.553   1.554  0.4124 -0.0066  0.1205
 2691TIP3   OH229487   3.080   1.492  15.173 -0.2596  0.0248  0.5194
 2691TIP3    H129488   3.137   1.425  15.212 -0.5924  0.1311  1.2102
 2691TIP3    H229489   3.137   1.566  15.158  0.5877 -1.0556 -2.1448
 2692TIP3   OH229490   6.438   3.004   6.576 -0.1715 -0.2247  0.0315
 2692TIP3    H129491   6.392   3.085   6.598  0.8726  0.5603 -0.5744
 2692TIP3    H229492   6.524   3.015   6.615 -0.2549 -1.3744  0.5598
 2693TIP3   OH229493   2.152   3.701  14.226 -0.5561 -0.1134 -0.2614
 2693TIP3    H129494   2.066   3.737  14.203 -0.6228  0.5189  0.9032
 2693TIP3    H229495   2.134   3.611  14.252 -0.7676 -0.1854 -0.6473
 2694TIP3   OH229496   0.229   6.418  15.288  0.4298 -0.3629  0.3381
 2694TIP3    H129497   0.227   6.417  15.192  0.1956  0.5516  0.3303
 2694TIP3    H229498   0.143   6.452  15.313  0.6383 -0.2141  0.8647
 2695TIP3   OH229499   6.427   2.399   0.506  0.0122 -0.3771  0.2314
 2695TIP3    H129500   6.517   2.429   0.513 -0.5814  1.1946  1.7599
 2695TIP3    H229501   6.431   2.306   0.530  0.9084  0.2732  2.9144
 2696TIP3   OH229502   5.522   6.393   1.075  0.0261 -0.1295 -0.2212
 2696TIP3    H129503   5.460   6.334   1.118  0.5996  0.0444  0.8760
 2696TIP3    H229504   5.476   6.421   0.996 -0.1550 -2.2266 -0.9157
 2697TIP3   OH229505   6.107   4.029   2.984 -1.2053  0.7235 -0.3321
 2697TIP3    H129506   6.177   4.044   2.921  0.3570  0.0833  1.1520
 2697TIP3    H229507   6.102   4.111   3.034 -2.5840  1.3082 -1.3706
 2698TIP3   OH229508   6.559   6.325   0.374 -0.1470 -0.0460 -0.3795
 2698TIP3    H129509   6.475   6.343   0.417  0.1475  1.9063 -0.5313
 2698TIP3    H229510   6.610   6.405   0.387 -0.0282  0.6944 -4.2831
 2699TIP3   OH229511   1.747   0.893   5.035 -0.1594  0.4269  0.1773
 2699TIP3    H129512   1.801   0.861   4.963 -1.1031 -0.0055 -0.3536
 2699TIP3    H229513   1.771   0.838   5.109  0.3978  0.4892  0.0429
 2700TIP3   OH229514   4.608   1.220  14.277  0.1278  0.1755  0.1346
 2700TIP3    H129515   4.651   1.292  14.230  2.2598  0.6969  2.6322
 2700TIP3    H229516   4.671   1.148  14.273 -1.0708 -0.8760 -0.5146
 2701TIP3   OH229517   3.019   5.729  14.643  0.3533  0.2693 -0.2407
 2701TIP3    H129518   2.936   5.738  14.596  0.3174  1.2403 -0.0158
 2701TIP3    H229519   3.084   5.719  14.574  0.3383  1.9759 -0.5450
 2702TIP3   OH229520   3.090   2.270   5.179  0.4635 -0.7082 -0.1659
 2702TIP3    H129521   3.120   2.231   5.097 -0.0305 -1.0061 -0.2168
 2702TIP3    H229522   2.995   2.279   5.167  0.4264 -0.5093  0.2699
 2703TIP3   OH229523   1.404   0.945  11.965 -0.0444 -0.6453  0.1020
 2703TIP3    H129524   1.468   0.981  11.903 -1.2678  1.6922  0.0983
 2703TIP3    H229525   1.347   0.890  11.911  0.0015 -0.1066 -0.5018
 2704TIP3   OH229526   5.660   5.908   1.440 -0.7757 -0.2017 -0.1431
 2704TIP3    H129527   5.722   5.885   1.509  0.4386  1.1920 -0.7238
 2704TIP3    H229528   5.662   5.833   1.380  0.3483 -0.2071 -0.1283
 2705TIP3   OH229529   0.563   0.559   2.874 -0.2177 -0.5778 -0.2418
 2705TIP3    H129530   0.549   0.518   2.788 -1.6109  0.5569 -0.6069
 2705TIP3    H229531   0.617   0.635   2.854 -0.7176 -0.1960 -0.1693
 2706TIP3   OH229532   6.433   4.784  12.023 -0.5417  0.2475 -0.4114
 2706TIP3    H129533   6.494   4.837  11.972  1.4179 -0.4642  1.0876
 2706TIP3    H229534   6.351   4.786  11.972  0.4450  1.9335 -2.0512
 2707TIP3   OH229535   3.811   1.642  10.644 -1.2592 -0.3244  0.0738
 2707TIP3    H129536   3.747   1.702  10.607 -0.8906 -0.1706 -0.3192
 2707TIP3    H229537   3.896   1.681  10.623 -1.0387 -0.1460  1.2176
 2708TIP3   OH229538   5.822   3.232  15.624  0.1430  0.2219 -0.6592
 2708TIP3    H129539   5.733   3.259  15.644 -0.1165 -0.0623 -1.4045
 2708TIP3    H229540   5.848   3.288  15.551  0.6639  0.4705 -0.2896
 2709TIP3   OH229541   4.314   1.661   0.649  0.0080  1.1227  0.4703
 2709TIP3    H129542   4.220   1.655   0.668  0.4828 -0.6449  2.6518
 2709TIP3    H229543   4.329   1.754   0.636 -1.7880  1.6295  1.6133
 2710TIP3   OH229544   3.796   0.930  13.842  0.0942 -0.0615  0.7818
 2710TIP3    H129545   3.721   0.987  13.860 -1.5673 -1.4780 -1.1833
 2710TIP3    H229546   3.866   0.990  13.816 -1.0145  1.1804  0.5581
 2711TIP3   OH229547   2.993   0.134   2.437 -0.0574  0.5853  0.0056
 2711TIP3    H129548   2.958   0.221   2.418  0.3716  0.9182  0.6667
 2711TIP3    H229549   2.992   0.088   2.353  0.6757  1.5814 -0.5728
 2712TIP3   OH229550   4.999   2.479   2.628 -0.1126 -0.4730 -0.1263
 2712TIP3    H129551   4.964   2.391   2.641 -1.2618 -0.0113  0.0387
 2712TIP3    H229552   4.995   2.493   2.534  1.0999 -0.9971 -0.2646
 2713TIP3   OH229553   2.772   6.033  12.120  0.2335 -0.1387  0.2071
 2713TIP3    H129554   2.759   5.939  12.109  0.6136 -0.1764  0.0727
 2713TIP3    H229555   2.815   6.041  12.206  0.2191 -0.0880  0.2101
 2714TIP3   OH229556   5.352   0.763  15.071 -0.1561  0.4648 -0.7077
 2714TIP3    H129557   5.379   0.810  15.150 -2.4373  0.9831 -0.1430
 2714TIP3    H229558   5.281   0.817  15.035 -2.0134 -1.8631 -0.7509
 2715TIP3   OH229559   1.334   4.118  16.375 -0.2188 -0.0772 -0.7286
 2715TIP3    H129560   1.299   4.073  16.451 -0.5378 -1.8936 -1.9027
 2715TIP3    H229561   1.354   4.206  16.406  0.8662 -1.1325  1.7761
 2716TIP3   OH229562   4.921   0.248   4.667  0.2106 -0.3363 -0.0288
 2716TIP3    H129563   4.853   0.274   4.730  0.4104  0.5756 -0.1798
 2716TIP3    H229564   5.002   0.283   4.704  0.5362 -1.0377 -0.0753
 2717TIP3   OH229565   3.704   1.366  11.024 -0.5457  0.2147 -0.2436
 2717TIP3    H129566   3.679   1.279  10.992 -0.7922  0.3349 -0.3834
 2717TIP3    H229567   3.675   1.367  11.115  1.6500 -0.7384  0.5299
 2718TIP3   OH229568   4.382   6.630  12.040  0.2230  0.3627 -0.0177
 2718TIP3    H129569   4.392   6.547  11.994  2.6947  0.7829 -0.3700
 2718TIP3    H229570   4.336   6.608  12.121  0.0602 -1.1753 -0.5024
 2719TIP3   OH229571   2.255   1.582   6.105  0.0019 -0.0363  0.1443
 2719TIP3    H129572   2.300   1.604   6.187  0.0613  0.9902 -0.1599
 2719TIP3    H229573   2.222   1.493   6.119 -1.5009  0.7519  1.9291
 2720TIP3   OH229574   4.491   3.497   1.177  0.4205 -0.0548 -0.4108
 2720TIP3    H129575   4.517   3.575   1.127 -0.0700  0.9396  0.8334
 2720TIP3    H229576   4.452   3.439   1.112  0.6798  0.7846 -1.3464
 2721TIP3   OH229577   6.771   0.698  12.637  0.0368 -0.6765 -0.2786
 2721TIP3    H129578   6.755   0.608  12.610 -0.8197  0.0380 -2.4243
 2721TIP3    H229579   6.696   0.747  12.603 -0.0180  0.7230  1.6840
 2722TIP3   OH229580   5.182   3.611  13.024  0.6403  0.4806  0.1782
 2722TIP3    H129581   5.255   3.563  13.063  0.2839  0.8275  1.3107
 2722TIP3    H229582   5.139   3.547  12.967  0.7340 -0.2760  0.9334
 2723TIP3   OH229583   5.498   3.273   4.030 -0.0582  0.1078 -0.5781
 2723TIP3    H129584   5.560   3.299   4.099  2.5519  0.5135 -2.8890
 2723TIP3    H229585   5.516   3.180   4.015 -0.8479 -0.0646 -0.5222
 2724TIP3   OH229586   1.564   5.785  10.880  0.4244  0.4791  0.0709
 2724TIP3    H129587   1.589   5.716  10.819 -0.8781 -0.6560  0.7712
 2724TIP3    H229588   1.473   5.806  10.857  0.7462  1.8600 -0.0248
 2725TIP3   OH229589   6.762   5.677   4.733 -0.1999 -0.2689 -0.3032
 2725TIP3    H129590   6.756   5.694   4.639  0.0075 -2.1108 -0.6741
 2725TIP3    H229591   6.753   5.582   4.742  1.7970 -0.3637  1.3670
 2726TIP3   OH229592   3.342   6.132  11.962  0.1927  0.0884 -0.4566
 2726TIP3    H129593   3.323   6.040  11.981  2.1277 -0.0882  0.9340
 2726TIP3    H229594   3.421   6.129  11.908 -0.6454  0.9028 -1.7578
 2727TIP3   OH229595   3.015   2.120  12.691  0.2749  0.3158 -0.2969
 2727TIP3    H129596   3.093   2.166  12.661  0.7837 -1.4198 -1.8017
 2727TIP3    H229597   2.946   2.145  12.630 -0.1254  1.0642  0.4367
 2728TIP3   OH229598   3.240   5.739   0.126  0.0055 -0.0703  0.6254
 2728TIP3    H129599   3.243   5.791   0.046 -1.3099 -1.5580 -0.4522
 2728TIP3    H229600   3.327   5.701   0.134 -0.0356 -0.4262 -0.4785
 2729TIP3   OH229601   5.039   4.934   0.293 -0.3937  0.3212  0.4913
 2729TIP3    H129602   5.117   4.880   0.280  0.3753  1.4533  0.2725
 2729TIP3    H229603   4.979   4.905   0.225  0.5445  0.6613 -0.5194
 2730TIP3   OH229604   0.288   6.686   0.388 -0.1788 -0.8671 -0.0913
 2730TIP3    H129605   0.235   6.687   0.308  1.4311 -3.2768 -1.3180
 2730TIP3    H229606   0.375   6.657   0.358  0.1944 -2.9337  2.6697
 2731TIP3   OH229607   6.323   3.532   3.353  0.6187 -0.1519 -0.0266
 2731TIP3    H129608   6.312   3.568   3.441  1.2641 -1.1445  0.4785
 2731TIP3    H229609   6.365   3.447   3.367  0.4105 -0.4801 -1.2727
 2732TIP3   OH229610   0.643   3.056  16.508  0.3787  0.3109 -0.0626
 2732TIP3    H129611   0.558   3.036  16.546  1.5832 -2.4802  1.4777
 2732TIP3    H229612   0.679   3.126  16.562 -0.1619  0.1210  0.5484
 2733TIP3   OH229613   1.005   6.469  12.368  0.1155 -1.1194  0.3584
 2733TIP3    H129614   0.952   6.390  12.355  0.2232 -1.3675  1.3463
 2733TIP3    H229615   0.985   6.524  12.292 -0.7194 -1.6738  0.1587
 2734TIP3   OH229616   5.123   1.376   6.231  0.2013 -0.7324  0.4551
 2734TIP3    H129617   5.031   1.384   6.205  0.5233  2.0810 -0.1796
 2734TIP3    H229618   5.159   1.311   6.171 -0.1610  2.2300 -3.3390
 2735TIP3   OH229619   1.356   3.927  14.297 -0.4477 -0.1632 -0.1123
 2735TIP3    H129620   1.263   3.916  14.276 -0.2797 -0.8903 -0.5183
 2735TIP3    H229621   1.386   3.995  14.236 -0.9766  0.9953  0.8624
 2736TIP3   OH229622   3.147   3.234   3.071  0.4618 -0.0936 -0.0819
 2736TIP3    H129623   3.181   3.149   3.101 -1.7256 -0.8832  0.3295
 2736TIP3    H229624   3.145   3.226   2.975 -1.3433 -1.2145  0.0148
 2737TIP3   OH229625   5.294   2.249   0.737 -0.1894  0.0001 -0.2813
 2737TIP3    H129626   5.222   2.311   0.747  0.2623  0.5961 -0.6221
 2737TIP3    H229627   5.341   2.279   0.659  0.0914 -0.7208 -0.3962
 2738TIP3   OH229628   1.397   1.200   1.220 -0.2153 -0.6415 -0.6574
 2738TIP3    H129629   1.320   1.255   1.234  2.1756  2.6327  1.0462
 2738TIP3    H229630   1.392   1.135   1.290 -2.0317 -1.3449 -1.3807
 2739TIP3   OH229631   0.768   3.455   4.343 -0.4580 -0.5839 -0.1935
 2739TIP3    H129632   0.853   3.499   4.338 -0.1256 -0.8853  1.8192
 2739TIP3    H229633   0.737   3.473   4.432 -1.2703 -2.6685 -0.0020
 2740TIP3   OH229634   2.992   6.263  16.465 -0.8678 -0.3626  0.0072
 2740TIP3    H129635   3.021   6.309  16.544 -3.9973  0.7213  0.6726
 2740TIP3    H229636   3.072   6.231  16.425  0.8771 -0.8111  3.5226
 2741TIP3   OH229637   2.669   5.575   4.034 -0.7626 -0.4011 -0.1719
 2741TIP3    H129638   2.638   5.582   4.124  0.2666 -0.3496  0.1902
 2741TIP3    H229639   2.689   5.482   4.023  0.2727 -0.2125  0.0578
 2742TIP3   OH229640   3.704   5.139   5.460 -0.2429  0.2735 -0.1361
 2742TIP3    H129641   3.723   5.145   5.367  0.9550 -0.5705  0.0311
 2742TIP3    H229642   3.741   5.218   5.498  1.1300 -0.3488 -0.1166
 2743TIP3   OH229643   2.833   3.819  14.468  0.8306 -0.3514  0.3023
 2743TIP3    H129644   2.748   3.783  14.441 -0.1867  0.6275  1.9791
 2743TIP3    H229645   2.893   3.794  14.398 -0.7654 -1.3599 -0.7886
 2744TIP3   OH229646   4.701   5.022   0.692 -0.0887  0.1424  0.1498
 2744TIP3    H129647   4.704   5.097   0.752  0.5109 -0.0049  0.3105
 2744TIP3    H229648   4.790   4.987   0.693 -0.9389 -2.2454  2.2333
 2745TIP3   OH229649   2.519   5.918  13.867 -0.3026  0.0332 -0.2141
 2745TIP3    H129650   2.573   5.990  13.836 -0.1217 -0.3220 -0.7446
 2745TIP3    H229651   2.522   5.854  13.796  0.1707 -0.8317  0.5637
 2746TIP3   OH229652   4.080   3.193  14.709 -0.2405  0.1158  0.1716
 2746TIP3    H129653   4.126   3.196  14.625 -0.0787  1.5051  0.2715
 2746TIP3    H229654   4.147   3.220  14.773 -0.8140  0.8372  0.4920
 2747TIP3   OH229655   2.652   3.796  11.603  0.1374  0.3109  0.6023
 2747TIP3    H129656   2.679   3.818  11.514  0.7654  0.0039  0.7125
 2747TIP3    H229657   2.734   3.783  11.651 -0.1917 -1.1119  0.8277
 2748TIP3   OH229658   6.662   6.776  16.961  0.6884  0.7359  0.5250
 2748TIP3    H129659   6.696   6.820  17.039 -0.6674 -0.6225  1.9452
 2748TIP3    H229660   6.705   6.690  16.962  0.4786  0.6218 -0.0840
 2749TIP3   OH229661   2.974   1.461   0.507  0.2200 -0.0053 -0.2905
 2749TIP3    H129662   2.977   1.505   0.591  2.0942  0.2935 -0.4719
 2749TIP3    H229663   3.026   1.381   0.519  0.7642  0.1878 -1.2223
 2750TIP3   OH229664   4.400   2.131  15.137  0.0741 -0.6740  0.4639
 2750TIP3    H129665   4.370   2.050  15.179  0.1875  0.1097  2.1742
 2750TIP3    H229666   4.496   2.128  15.144  0.0982 -0.5886  0.1674
 2751TIP3   OH229667   2.865   0.001  16.218  0.2942  0.2086 -0.0641
 2751TIP3    H129668   2.864  -0.010  16.123  0.6281 -1.7843  0.1189
 2751TIP3    H229669   2.946  -0.043  16.246 -0.1164  0.2262  1.2006
 2752TIP3   OH229670   0.666   4.752   4.125  0.6360  0.1245 -0.4479
 2752TIP3    H129671   0.622   4.755   4.209  3.0329 -4.0072  1.2344
 2752TIP3    H229672   0.599   4.777   4.062 -1.4054  2.8689  2.5038
 2753TIP3   OH229673   0.637   5.293  11.007  0.1676 -0.1465  0.1606
 2753TIP3    H129674   0.700   5.341  10.953 -1.5791  2.2117  0.0335
 2753TIP3    H229675   0.636   5.341  11.090 -2.4402  0.8450 -0.3474
 2754TIP3   OH229676   3.171   5.652   2.221  0.3660  0.3467  0.0922
 2754TIP3    H129677   3.127   5.624   2.301 -0.3737 -0.9005 -0.7114
 2754TIP3    H229678   3.263   5.661   2.246 -0.0490  1.3715  1.4026
 2755TIP3   OH229679   1.022   5.118   1.471  0.3148 -0.1861 -0.1396
 2755TIP3    H129680   0.951   5.171   1.506  0.5635  0.3223 -0.3892
 2755TIP3    H229681   0.983   5.033   1.455  0.8518 -1.4376  4.1058
 2756TIP3   OH229682   4.709   6.263   5.946  0.0627  0.6054 -0.0873
 2756TIP3    H129683   4.693   6.180   5.991  0.7506  0.4689 -0.0930
 2756TIP3    H229684   4.677   6.329   6.008 -0.7924  0.3343 -0.2175
 2757TIP3   OH229685   1.791   2.078   5.145  0.5264  0.3719  0.1113
 2757TIP3    H129686   1.850   2.057   5.217 -1.5567 -1.0222  1.4863
 2757TIP3    H229687   1.841   2.141   5.092  4.2330 -2.5103 -0.2229
 2758TIP3   OH229688   6.324   1.352   0.967 -0.2647 -0.1562  0.1092
 2758TIP3    H129689   6.411   1.391   0.975  0.0990 -0.7193 -0.9335
 2758TIP3    H229690   6.314   1.334   0.874 -0.5594 -2.1659  0.4841
 2759TIP3   OH229691   6.748   2.862  10.741  0.3774 -0.0235  0.5454
 2759TIP3    H129692   6.831   2.827  10.707  0.4325 -1.7287  2.2115
 2759TIP3    H229693   6.685   2.846  10.671  1.1766 -0.0283 -0.1957
 2760TIP3   OH229694   1.359   4.898  12.553 -0.3667 -0.3713  0.0839
 2760TIP3    H129695   1.278   4.890  12.502  1.4306 -2.0396 -2.7576
 2760TIP3    H229696   1.403   4.974  12.516  0.1764 -0.5522  0.3533
 2761TIP3   OH229697   4.490   5.531   5.142 -0.1736 -0.2814 -0.5557
 2761TIP3    H129698   4.411   5.586   5.143  0.0463  0.0494  0.7710
 2761TIP3    H229699   4.544   5.565   5.214  0.7248 -1.1563 -0.7934
 2762TIP3   OH229700   4.088   6.073   0.912 -0.0543 -0.4066  0.6297
 2762TIP3    H129701   4.023   6.120   0.964  0.7273  0.2041  1.0736
 2762TIP3    H229702   4.078   5.982   0.938 -0.7337 -0.3169  0.6948
 2763TIP3   OH229703   6.044   1.465   3.724 -0.0333  0.1175  0.3525
 2763TIP3    H129704   6.069   1.372   3.725 -0.2684  0.0542  0.6851
 2763TIP3    H229705   6.076   1.498   3.808 -0.5863  0.1627  0.5489
 2764TIP3   OH229706   5.669   6.146   0.862  0.0727  0.3654  0.2285
 2764TIP3    H129707   5.585   6.135   0.907 -0.0515  0.0795 -0.0659
 2764TIP3    H229708   5.653   6.110   0.774  1.0136 -1.4469  0.7464
 2765TIP3   OH229709   3.997   0.640   4.618  0.6917 -0.4712 -0.4067
 2765TIP3    H129710   3.934   0.690   4.670 -1.0523 -2.0447 -0.8774
 2765TIP3    H229711   4.063   0.611   4.680  0.9759  1.2060  0.1120
 2766TIP3   OH229712   4.843   4.864  15.257 -0.9670  0.1777 -0.7745
 2766TIP3    H129713   4.872   4.895  15.343 -1.9703  0.9602 -0.7036
 2766TIP3    H229714   4.862   4.937  15.198 -2.9962  0.8353 -0.6745
 2767TIP3   OH229715   5.388   1.122  16.217  0.2184  0.0115  0.4195
 2767TIP3    H129716   5.449   1.109  16.290 -1.0919  0.9685  1.7238
 2767TIP3    H229717   5.361   1.033  16.193  0.3669 -0.3080  1.3691
 2768TIP3   OH229718   6.194   4.253   4.285  0.5272  0.2138  0.0022
 2768TIP3    H129719   6.233   4.285   4.203  0.7852 -1.9753 -0.7964
 2768TIP3    H229720   6.111   4.214   4.258 -0.6823  1.7744  1.2173
 2769TIP3   OH229721   0.743   5.183   4.425  0.1322 -0.6831  0.1535
 2769TIP3    H129722   0.700   5.103   4.456  1.1180 -1.5521 -0.6220
 2769TIP3    H229723   0.836   5.159   4.420  0.2778  0.0917 -1.3745
 2770TIP3   OH229724   0.339   4.182   0.579 -0.2677  0.1153  0.3431
 2770TIP3    H129725   0.328   4.242   0.506  1.8053  0.8628  0.5872
 2770TIP3    H229726   0.254   4.138   0.587 -0.9577  0.9956 -1.6076
 2771TIP3   OH229727   4.394   2.882   0.217 -0.2908  0.0881  0.1304
 2771TIP3    H129728   4.411   2.905   0.126  0.2402  0.0556  0.2235
 2771TIP3    H229729   4.395   2.966   0.264 -3.0721  0.4593 -0.2631
 2772TIP3   OH229730   5.694   4.323  13.654  0.0116 -0.1992 -0.0367
 2772TIP3    H129731   5.745   4.336  13.733 -1.2299  0.7535  0.6489
 2772TIP3    H229732   5.665   4.232  13.658  1.1316 -0.5720 -0.1395
 2773TIP3   OH229733   4.901   6.296   3.395  0.2517 -0.1381  0.4057
 2773TIP3    H129734   4.952   6.255   3.465 -0.3163  0.2912  1.0864
 2773TIP3    H229735   4.921   6.244   3.317  2.3131  0.4811  0.4702
 2774TIP3   OH229736   4.074   2.576  13.204  0.1411 -0.1828  0.4766
 2774TIP3    H129737   4.003   2.639  13.194 -0.2636 -0.5578  0.9271
 2774TIP3    H229738   4.047   2.521  13.277  1.3527  0.2784  1.3067
 2775TIP3   OH229739   0.865   6.199  10.922  0.3944  0.2999  0.0340
 2775TIP3    H129740   0.949   6.152  10.916  0.5184  0.1398  2.2082
 2775TIP3    H229741   0.876   6.274  10.865  0.9008 -1.2479 -2.0385
 2776TIP3   OH229742   4.197   3.957  10.707 -0.1494  0.0662 -0.1283
 2776TIP3    H129743   4.167   4.006  10.631 -0.2806 -1.3094 -1.0122
 2776TIP3    H229744   4.170   3.866  10.688  0.4428 -0.4147  1.2315
 2777TIP3   OH229745   2.455   3.108  11.723  0.6179 -0.4989 -0.4211
 2777TIP3    H129746   2.408   3.150  11.651  1.3208  0.0713 -0.5644
 2777TIP3    H229747   2.480   3.181  11.780 -0.2598 -0.9871  0.6008
 2778TIP3   OH229748   5.544   4.069  14.922 -0.0434 -0.1648 -0.6420
 2778TIP3    H129749   5.484   4.116  14.864 -1.0511  0.6486  0.9731
 2778TIP3    H229750   5.501   3.985  14.938 -1.0157  0.5599  0.8081
 2779TIP3   OH229751   0.857   0.323   0.365 -0.2404 -0.5436 -0.5551
 2779TIP3    H129752   0.793   0.319   0.436 -0.6587  0.1325 -0.8824
 2779TIP3    H229753   0.874   0.231   0.343  0.8477 -0.8231  1.2391
 2780TIP3   OH229754   4.513   1.994   1.569 -0.0396 -0.0330 -0.1058
 2780TIP3    H129755   4.521   2.080   1.528  1.4355  0.4864  1.1486
 2780TIP3    H229756   4.570   1.999   1.646 -1.6548 -1.3959  1.2608
 2781TIP3   OH229757   2.479   3.794   4.079 -0.0585  0.1122  0.2811
 2781TIP3    H129758   2.573   3.809   4.085  0.0544  0.9196 -2.3312
 2781TIP3    H229759   2.470   3.725   4.013 -1.3067  1.4043 -0.9737
 2782TIP3   OH229760   1.247   5.352   4.402  0.1069  0.0478 -0.4864
 2782TIP3    H129761   1.275   5.387   4.486 -0.7329 -0.4219 -0.0046
 2782TIP3    H229762   1.266   5.258   4.408 -1.5625 -0.2978 -0.1283
 2783TIP3   OH229763   5.128   4.035  12.003 -0.0270 -0.0961 -0.5427
 2783TIP3    H129764   5.140   4.060  12.095 -0.0209  0.0600 -0.5867
 2783TIP3    H229765   5.153   3.942  12.001  0.5708  0.0580 -0.5046
 2784TIP3   OH229766   6.477   5.199   3.730  0.4724 -0.2604 -0.3122
 2784TIP3    H129767   6.441   5.122   3.775  2.3484 -0.0584  1.7390
 2784TIP3    H229768   6.400   5.249   3.702 -0.8324 -1.1892  1.4033
 2785TIP3   OH229769   0.700   6.782  11.564 -0.0967 -0.5633 -0.4107
 2785TIP3    H129770   0.775   6.764  11.506  0.1843  0.0523 -0.2468
 2785TIP3    H229771   0.629   6.804  11.504 -0.2680 -1.5675 -0.5853
 2786TIP3   OH229772   3.980   6.631   4.802 -0.8594  0.2693 -0.1756
 2786TIP3    H129773   3.988   6.726   4.798 -0.3017  0.2773  0.7424
 2786TIP3    H229774   3.996   6.602   4.712  2.0468  0.8752  0.0337
 2787TIP3   OH229775   0.979   3.462  13.841  0.9467 -0.4010 -0.4785
 2787TIP3    H129776   0.953   3.430  13.754  1.9487 -0.2324 -0.8525
 2787TIP3    H229777   1.000   3.383  13.890 -0.9898 -0.6090  0.1014
 2788TIP3   OH229778   1.513   3.654  16.829 -0.1047 -0.1528 -0.4544
 2788TIP3    H129779   1.545   3.737  16.863  0.6829 -0.8873  0.6856
 2788TIP3    H229780   1.592   3.602  16.813 -0.6089 -1.3509  0.6968
 2789TIP3   OH229781   0.937   0.562   1.600  0.4656 -0.1191 -0.0561
 2789TIP3    H129782   0.995   0.628   1.562  0.7553  0.6396  1.6127
 2789TIP3    H229783   0.986   0.480   1.593  0.4096 -0.0615 -1.4664
 2790TIP3   OH229784   2.456   2.135   2.231  0.3841 -0.4285  0.8292
 2790TIP3    H129785   2.376   2.128   2.283 -0.9420  0.4945 -0.9482
 2790TIP3    H229786   2.462   2.052   2.185  0.3905 -0.4571  0.8818
 2791TIP3   OH229787   6.538   6.478   2.490 -0.2320  0.6618  0.7528
 2791TIP3    H129788   6.588   6.541   2.542 -0.1808  0.4853  0.9212
 2791TIP3    H229789   6.597   6.452   2.419 -0.0647  0.4178  0.9786
 2792TIP3   OH229790   4.030   4.113  11.674 -0.1553  0.4094 -0.3260
 2792TIP3    H129791   4.082   4.131  11.595  0.4017 -2.3195 -0.6867
 2792TIP3    H229792   4.070   4.035  11.711 -1.4131  0.7164  1.8257
 2793TIP3   OH229793   6.323   2.911  13.070  0.1415 -0.4394 -0.0486
 2793TIP3    H129794   6.251   2.972  13.056 -0.3054 -0.6683  1.0887
 2793TIP3    H229795   6.338   2.914  13.165  2.0581  0.0711 -0.3222
 2794TIP3   OH229796   4.864   3.283  11.302 -0.9104 -0.0050 -0.3108
 2794TIP3    H129797   4.854   3.206  11.358  0.0118 -0.5204 -0.8366
 2794TIP3    H229798   4.853   3.357  11.362  0.4007 -0.5428  0.6297
 2795TIP3   OH229799   2.464   2.566   6.320  0.2145  0.3566  0.3794
 2795TIP3    H129800   2.549   2.589   6.360  1.2505  1.2543 -2.1474
 2795TIP3    H229801   2.465   2.470   6.317  0.9865  0.3417  0.6995
 2796TIP3   OH229802   0.769   2.969   5.905 -0.3379  0.0574 -0.1483
 2796TIP3    H129803   0.802   3.024   5.975 -0.0650  0.4591 -0.5841
 2796TIP3    H229804   0.845   2.954   5.848 -1.0915  1.8476 -1.7187
 2797TIP3   OH229805   2.099   4.391  13.210 -0.1280  0.6218 -0.4742
 2797TIP3    H129806   2.091   4.485  13.197  0.1566  0.6109 -0.7245
 2797TIP3    H229807   2.138   4.358  13.129 -2.0452  0.0196 -1.2294
 2798TIP3   OH229808   2.534   2.530  12.630  0.1243  0.7431 -0.0729
 2798TIP3    H129809   2.478   2.489  12.696  0.7255  0.2351  0.1292
 2798TIP3    H229810   2.590   2.459  12.599 -0.1978  0.9496 -1.1941
 2799TIP3   OH229811   0.883   4.702   1.411  0.1944  0.4656 -0.4641
 2799TIP3    H129812   0.842   4.754   1.479  2.4876  1.0798  0.5533
 2799TIP3    H229813   0.935   4.765   1.360  0.0372 -0.2750 -1.5703
 2800TIP3   OH229814   1.468   0.452   5.718  0.3585  0.0779 -0.9717
 2800TIP3    H129815   1.430   0.493   5.641  0.1132 -0.4772 -1.1559
 2800TIP3    H229816   1.505   0.524   5.769 -0.1042  0.5204 -1.2577
 2801TIP3   OH229817   2.625   0.402  15.756 -0.0895 -0.2835  0.7343
 2801TIP3    H129818   2.587   0.316  15.770 -3.7580  0.7360 -1.5419
 2801TIP3    H229819   2.557   0.463  15.786  1.5400  1.8393  0.3649
 2802TIP3   OH229820   1.143   2.858   5.100  0.1713 -0.1699  0.6821
 2802TIP3    H129821   1.099   2.879   5.018  2.3257 -0.1098 -0.5503
 2802TIP3    H229822   1.076   2.818   5.155 -1.8467  1.6726 -0.2906
 2803TIP3   OH229823   5.863   6.124  16.923  0.0597  0.2608 -0.2950
 2803TIP3    H129824   5.956   6.145  16.917  0.2497  0.1878  1.7017
 2803TIP3    H229825   5.860   6.033  16.954 -0.6852  0.0826 -0.8467
 2804TIP3   OH229826   5.498   1.149  14.779 -0.3689  0.3871 -0.2897
 2804TIP3    H129827   5.477   1.185  14.693 -0.3989 -0.4401 -0.6464
 2804TIP3    H229828   5.581   1.190  14.803  0.2564 -0.2536 -1.2708
 2805TIP3   OH229829   5.706   3.950   0.380 -0.3504 -0.0118  0.4037
 2805TIP3    H129830   5.653   4.027   0.398 -0.1074  0.2436  0.0288
 2805TIP3    H229831   5.718   3.909   0.466  0.1381  0.7757  0.7173
 2806TIP3   OH229832   1.760   5.597   6.207 -0.5200 -0.1151 -0.4671
 2806TIP3    H129833   1.749   5.585   6.302 -0.1522 -0.1370 -0.4254
 2806TIP3    H229834   1.672   5.592   6.172 -0.7538  0.7173 -0.0280
 2807TIP3   OH229835   3.782   1.063   3.127  0.1212 -0.0348  0.3612
 2807TIP3    H129836   3.736   1.144   3.107 -1.1621 -0.8225 -0.0120
 2807TIP3    H229837   3.743   1.034   3.210 -1.0985 -1.4218 -0.6487
 2808TIP3   OH229838   0.947   5.442   1.972 -0.0844  0.3304 -0.2161
 2808TIP3    H129839   0.997   5.505   1.919 -0.6998  1.4665  0.5154
 2808TIP3    H229840   0.962   5.470   2.063  0.6400 -1.3554  0.2117
 2809TIP3   OH229841   1.238   4.039   5.225  0.0602 -0.3796 -0.3330
 2809TIP3    H129842   1.316   4.028   5.279  0.2618  2.9390  0.2749
 2809TIP3    H229843   1.271   4.062   5.138 -0.2215 -0.4567 -0.4630
 2810TIP3   OH229844   4.792   6.022   0.677  0.1804 -0.1896  0.1925
 2810TIP3    H129845   4.697   6.030   0.677 -0.1264 -2.8500  0.5077
 2810TIP3    H229846   4.815   6.006   0.586  0.4830  1.3343 -0.0317
 2811TIP3   OH229847   2.421   2.226   0.213  0.1704 -0.1034 -0.1675
 2811TIP3    H129848   2.462   2.158   0.158 -0.1712 -0.6042  0.1833
 2811TIP3    H229849   2.379   2.284   0.150 -0.7040 -0.9893 -0.4339
 2812TIP3   OH229850   5.181   1.113  16.418 -0.0631  0.5083 -0.1857
 2812TIP3    H129851   5.232   1.176  16.367  0.3150  0.6119  0.3162
 2812TIP3    H229852   5.218   1.117  16.506  0.8187 -1.3190 -0.4174
 2813TIP3   OH229853   4.995   4.285  11.087  0.5972  0.0751  0.2187
 2813TIP3    H129854   4.941   4.211  11.115 -0.3812  1.2417  1.6444
 2813TIP3    H229855   5.083   4.265  11.120  0.5221 -0.7814 -0.0831
 2814TIP3   OH229856   0.591   3.441  15.350 -0.1849  0.9731  0.0962
 2814TIP3    H129857   0.671   3.407  15.311  1.3388  3.6448  0.6819
 2814TIP3    H229858   0.521   3.401  15.298  1.4673 -1.2526 -0.5892
 2815TIP3   OH229859   4.571   6.439  14.307  0.1684  1.0413 -0.1631
 2815TIP3    H129860   4.485   6.470  14.334  0.2158  1.8964 -0.9378
 2815TIP3    H229861   4.563   6.426  14.212  0.1033 -1.5357  0.1249
 2816TIP3   OH229862   3.464   6.366  11.545  0.1728  0.3227  0.4576
 2816TIP3    H129863   3.529   6.399  11.483 -0.7818  0.4452 -0.4932
 2816TIP3    H229864   3.441   6.442  11.598 -0.1773  0.6052 -0.0893
 2817TIP3   OH229865   3.498   4.880  16.781  0.2985  0.2902 -0.3099
 2817TIP3    H129866   3.474   4.964  16.822 -0.1681 -0.0397  0.0965
 2817TIP3    H229867   3.505   4.901  16.687  1.2594  1.0222 -0.0941
 2818TIP3   OH229868   1.662   3.626   5.364 -0.3080  0.3204  0.0612
 2818TIP3    H129869   1.711   3.688   5.417  0.7574 -1.5004  1.3211
 2818TIP3    H229870   1.571   3.651   5.376  0.0996  1.7406  0.3765
 2819TIP3   OH229871   2.942   6.687  16.818 -0.1102 -0.1620  0.5672
 2819TIP3    H129872   2.956   6.592  16.828 -0.0674 -0.1452  0.6649
 2819TIP3    H229873   2.975   6.725  16.899  0.3348 -0.0178  0.3223
 2820TIP3   OH229874   4.863   2.905   5.380  0.2835 -0.4848 -0.0199
 2820TIP3    H129875   4.913   2.987   5.385  1.1361 -0.8907 -1.3217
 2820TIP3    H229876   4.850   2.879   5.471  0.3227  0.8980  0.4078
 2821TIP3   OH229877   0.079   1.156   5.611  0.1529 -0.3611  0.0656
 2821TIP3    H129878   0.054   1.088   5.673  0.6312 -1.7401 -1.1902
 2821TIP3    H229879  -0.003   1.197   5.585 -0.3405 -1.6272 -0.4425
 2822TIP3   OH229880   0.234   6.494   1.468  0.0765  0.7637  0.7069
 2822TIP3    H129881   0.200   6.579   1.495 -1.0647 -0.2971  2.8165
 2822TIP3    H229882   0.171   6.430   1.502  1.1541 -0.9672 -0.3842
 2823TIP3   OH229883   2.437   4.100  12.869 -0.5546 -0.2405  0.2037
 2823TIP3    H129884   2.444   4.162  12.796  3.5832 -0.7461 -0.0825
 2823TIP3    H229885   2.394   4.024  12.831  1.1164 -0.3236 -1.7162
 2824TIP3   OH229886   0.307   0.135   1.945  0.3381  0.1074 -0.1541
 2824TIP3    H129887   0.249   0.168   1.876  0.8541  0.1220 -0.5864
 2824TIP3    H229888   0.377   0.200   1.950  2.0323 -1.4803 -1.8684
 2825TIP3   OH229889   5.793   3.154   1.539 -0.5942 -0.4765 -0.1413
 2825TIP3    H129890   5.839   3.073   1.517 -2.4212 -1.6167  0.0618
 2825TIP3    H229891   5.759   3.186   1.456  1.3581  0.9402 -0.4590
 2826TIP3   OH229892   0.205   0.678  13.669 -0.2782  0.7479  0.1254
 2826TIP3    H129893   0.236   0.679  13.759  0.2177 -0.6898 -0.0171
 2826TIP3    H229894   0.128   0.736  13.670  0.6674  2.0370  1.0979
 2827TIP3   OH229895   5.596   3.797   3.402 -0.1278  0.8542 -0.3349
 2827TIP3    H129896   5.570   3.889   3.408  1.8341  1.4325  0.0906
 2827TIP3    H229897   5.646   3.781   3.482 -0.9969 -0.8042 -0.0718
 2828TIP3   OH229898   4.088   5.885   2.529  0.4040 -0.0007  0.3265
 2828TIP3    H129899   4.022   5.944   2.567 -0.1381  0.4401 -1.2147
 2828TIP3    H229900   4.045   5.800   2.528  0.3902  0.0002  0.6117
 2829TIP3   OH229901   2.837   6.750  15.940 -0.0047  0.4660  0.1783
 2829TIP3    H129902   2.880   6.672  15.904  2.0231  1.7353 -0.3537
 2829TIP3    H229903   2.790   6.789  15.867  0.5571  0.7359 -0.0463
 2830TIP3   OH229904   5.036   4.310  14.461  0.0251  0.3988 -0.0861
 2830TIP3    H129905   5.093   4.384  14.437  1.1945 -0.0652  1.1433
 2830TIP3    H229906   4.961   4.351  14.504  0.4089  0.9207  0.1055
 2831TIP3   OH229907   3.596   5.832   2.525 -0.2163  0.1491 -0.2058
 2831TIP3    H129908   3.528   5.767   2.512 -0.1764  0.3713 -1.6162
 2831TIP3    H229909   3.601   5.880   2.442  1.5483  0.2266 -0.0942
 2832TIP3   OH229910   5.045   5.461  16.237 -0.3902  0.2917  1.1329
 2832TIP3    H129911   5.017   5.463  16.145 -0.7090 -2.2745  1.1075
 2832TIP3    H229912   4.975   5.506  16.284  0.1079  2.2655  0.1044
 2833TIP3   OH229913   6.700   4.922   0.824 -0.7020 -0.1328  0.2501
 2833TIP3    H129914   6.777   4.867   0.836  1.0097  2.0419 -0.0673
 2833TIP3    H229915   6.708   4.990   0.890 -1.6068  0.9051 -0.6586
 2834TIP3   OH229916   6.247   5.982   5.483  0.1072  0.3068 -0.6656
 2834TIP3    H129917   6.258   6.057   5.542 -0.8060  1.2084 -1.5776
 2834TIP3    H229918   6.301   5.913   5.521  2.1358  1.8507 -0.5180
 2835TIP3   OH229919   5.931   5.666   1.140  0.5738  0.0387 -0.3643
 2835TIP3    H129920   5.900   5.710   1.060  0.5345 -0.7721 -0.8035
 2835TIP3    H229921   5.978   5.589   1.108 -0.1222 -0.7261  0.4214
 2836TIP3   OH229922   2.460   4.018  15.626 -0.3953 -0.5071  0.2445
 2836TIP3    H129923   2.515   4.066  15.687  0.9020  0.3062 -1.4908
 2836TIP3    H229924   2.380   4.070  15.619  0.0936  0.2400  0.0781
 2837TIP3   OH229925   5.861   5.410  13.309  0.0895 -0.2720 -0.3087
 2837TIP3    H129926   5.924   5.468  13.267  0.8200 -0.5976  0.3145
 2837TIP3    H229927   5.861   5.331  13.255 -1.0820  0.3714 -1.2941
 2838TIP3   OH229928   0.020   1.532   2.794  0.2697  0.2932 -0.5940
 2838TIP3    H129929  -0.011   1.502   2.708  0.9162  3.0461 -1.8735
 2838TIP3    H229930   0.113   1.513   2.794  0.5476  1.5702 -1.1278
 2839TIP3   OH229931   4.509   1.035  12.811  0.4598  0.0320  0.1709
 2839TIP3    H129932   4.442   1.081  12.762  0.7633  0.4868  0.1789
 2839TIP3    H229933   4.485   1.047  12.903 -0.0504 -0.7319  0.1433
 2840TIP3   OH229934   4.423   6.030   1.854  0.2732 -0.5076 -0.0612
 2840TIP3    H129935   4.495   6.093   1.846  0.0942 -0.3412 -0.3691
 2840TIP3    H229936   4.367   6.067   1.923 -0.7840  0.6151 -1.4787
 2841TIP3   OH229937   3.816   5.753  12.179  0.4919  0.3490 -0.3065
 2841TIP3    H129938   3.781   5.840  12.159 -0.0010  0.4852  0.9963
 2841TIP3    H229939   3.776   5.695  12.115  0.7901  1.0680 -1.1611
 2842TIP3   OH229940   2.655   2.793   2.670 -0.1997 -0.3182  0.2459
 2842TIP3    H129941   2.633   2.720   2.728  1.4614 -0.7591  0.3824
 2842TIP3    H229942   2.664   2.753   2.583  2.0995 -0.5999  0.5561
 2843TIP3   OH229943   1.923   2.806   2.671 -0.7017  0.3373  0.1264
 2843TIP3    H129944   1.950   2.788   2.581 -0.2575 -1.0801  0.5029
 2843TIP3    H229945   1.889   2.895   2.669  1.0032  1.0227 -1.0543
 2844TIP3   OH229946   1.724   3.561   4.277 -0.0634  0.6226 -0.0095
 2844TIP3    H129947   1.718   3.526   4.188 -0.9760  1.2915 -0.2259
 2844TIP3    H229948   1.814   3.591   4.285 -0.0635  0.8728 -0.8382
 2845TIP3   OH229949   4.464   3.369  15.642  0.2556 -0.0306  0.1012
 2845TIP3    H129950   4.476   3.449  15.692  0.1719  0.3576 -0.4937
 2845TIP3    H229951   4.412   3.312  15.699  1.4233 -0.1703  1.0611
 2846TIP3   OH229952   1.103   4.779   6.492 -0.5139  0.2409  0.2813
 2846TIP3    H129953   1.189   4.820   6.485 -0.3562 -0.2730 -1.2365
 2846TIP3    H229954   1.060   4.825   6.564  0.3814  1.7130 -0.0773
 2847TIP3   OH229955   4.318   5.962   3.846  0.1171  0.4088 -0.1128
 2847TIP3    H129956   4.264   5.977   3.923  0.2680 -2.4484  0.6680
 2847TIP3    H229957   4.325   5.867   3.840  0.6772  0.5615 -3.2968
 2848TIP3   OH229958   3.733   5.513   4.845 -0.1265 -0.2339  0.3115
 2848TIP3    H129959   3.750   5.593   4.895 -0.3106  0.7565 -1.1580
 2848TIP3    H229960   3.819   5.480   4.821 -0.0692 -0.1347  0.3817
 2849TIP3   OH229961   1.514   0.056   3.005  0.0583 -0.2209 -0.1895
 2849TIP3    H129962   1.456   0.038   3.079  0.1966 -0.3840 -0.1220
 2849TIP3    H229963   1.456   0.094   2.939  0.0216  0.3997  0.1863
 2850TIP3   OH229964   0.376   0.785  10.873 -0.0660 -0.3895  0.0771
 2850TIP3    H129965   0.425   0.791  10.955 -0.1100  1.9181 -0.0169
 2850TIP3    H229966   0.432   0.828  10.808 -1.3388  0.5615 -0.4377
 2851TIP3   OH229967   2.010   2.948   1.386 -0.7962 -0.0230 -0.5501
 2851TIP3    H129968   1.958   2.967   1.308 -0.3629 -1.3544 -1.1897
 2851TIP3    H229969   2.036   2.857   1.376  1.3060  0.4555 -0.0465
 2852TIP3   OH229970   2.075   1.639  13.565 -0.1009  0.2164  0.2983
 2852TIP3    H129971   2.015   1.596  13.504 -1.1451  0.3772  1.1858
 2852TIP3    H229972   2.070   1.587  13.645  0.8695  0.3037  0.4370
 2853TIP3   OH229973   3.724   3.871  11.002  0.3135 -0.0389 -0.3696
 2853TIP3    H129974   3.663   3.945  10.991 -0.5973 -0.8169 -0.7136
 2853TIP3    H229975   3.726   3.830  10.916  2.5207  0.8308 -0.7980
 2854TIP3   OH229976   4.397   0.297  16.273 -0.1082 -0.2232  0.1373
 2854TIP3    H129977   4.354   0.254  16.347  2.5085 -1.2082  1.1952
 2854TIP3    H229978   4.419   0.385  16.306 -0.2163 -0.1520  0.0219
 2855TIP3   OH229979   0.455   3.895  16.376  0.3071 -0.3336  0.0652
 2855TIP3    H129980   0.481   3.983  16.405 -0.1128 -0.6110  1.3255
 2855TIP3    H229981   0.439   3.847  16.456  2.7943 -2.3094 -0.5045
 2856TIP3   OH229982   3.727   3.986  13.675 -0.2765 -0.1785  0.3704
 2856TIP3    H129983   3.635   4.001  13.653  0.1098 -0.1176 -1.3310
 2856TIP3    H229984   3.724   3.941  13.760 -1.8531  0.0674  0.4812
 2857TIP3   OH229985   1.248   2.216   0.645  0.4650  0.5664 -0.1096
 2857TIP3    H129986   1.258   2.280   0.575 -0.8003  0.8187 -0.0829
 2857TIP3    H229987   1.305   2.249   0.715 -0.9150  2.2546  0.2910
 2858TIP3   OH229988   1.375   4.307  16.580  0.6602 -0.9390 -0.5643
 2858TIP3    H129989   1.311   4.261  16.634  0.0957 -1.2338 -1.4587
 2858TIP3    H229990   1.446   4.244  16.567  1.7275 -0.2054  1.4215
 2859TIP3   OH229991   2.534   0.131  17.195 -0.4870  0.0077 -0.3911
 2859TIP3    H129992   2.570   0.045  17.214 -0.2602 -0.1605 -1.4928
 2859TIP3    H229993   2.455   0.137  17.249  0.5727 -0.0540  1.2349
 2860TIP3   OH229994   2.110   1.461   3.227  0.2747 -0.0534  0.3285
 2860TIP3    H129995   2.095   1.532   3.164  1.7888 -0.1127 -0.1390
 2860TIP3    H229996   2.024   1.447   3.268  0.0295  2.3695  0.8054
 2861TIP3   OH229997   1.161   2.336  15.241  0.3623 -0.1087  0.1339
 2861TIP3    H129998   1.250   2.366  15.223  0.6456  0.0299  1.6574
 2861TIP3    H229999   1.108   2.378  15.174  1.4624 -0.3663 -0.9333
 2862TIP3   OH230000   1.044   3.800  11.659  0.3413 -0.5624 -0.0697
 2862TIP3    H130001   1.102   3.732  11.624 -0.4871 -1.2112 -0.2204
 2862TIP3    H230002   1.001   3.836  11.581  1.7544  1.0847 -0.1331
 2863TIP3   OH230003   5.928   3.846  13.207 -0.2013 -0.2100  0.4126
 2863TIP3    H130004   5.920   3.766  13.155  1.8121  0.4787 -1.1087
 2863TIP3    H230005   5.989   3.823  13.277  1.5287  0.2775 -0.8530
 2864TIP3   OH230006   4.611   5.428   3.740 -0.4022 -0.5628  0.1689
 2864TIP3    H130007   4.601   5.376   3.820 -1.7585 -1.0681 -0.2911
 2864TIP3    H230008   4.529   5.413   3.692 -0.1494  0.7632 -0.7130
 2865TIP3   OH230009   4.937   6.477  12.666  0.0400  0.3481 -0.4487
 2865TIP3    H130010   4.961   6.570  12.668  0.3055  0.2712  1.1701
 2865TIP3    H230011   4.868   6.469  12.731  0.4289 -0.6935 -0.1489
 2866TIP3   OH230012   6.706   4.018  11.975  0.2695  0.3005  0.0847
 2866TIP3    H130013   6.646   4.056  12.039  0.6266  1.0095  0.0068
 2866TIP3    H230014   6.739   4.092  11.925  1.5494 -0.0062  0.4172
 2867TIP3   OH230015   4.680   2.940  17.145 -0.4014  0.0389 -0.1377
 2867TIP3    H130016   4.680   2.926  17.051  2.5415 -2.2233  0.0958
 2867TIP3    H230017   4.727   3.023  17.157 -0.0398 -0.0950 -0.6149
 2868TIP3   OH230018   4.527   1.043   5.386  0.5491  0.3386  0.1104
 2868TIP3    H130019   4.560   1.044   5.476 -1.1795 -0.0955  0.7881
 2868TIP3    H230020   4.582   0.980   5.341  1.8572  1.0340  0.6794
 2869TIP3   OH230021   2.216   5.355   3.798  0.6736  0.0657  0.4951
 2869TIP3    H130022   2.279   5.283   3.798  0.4599 -0.1243  0.7436
 2869TIP3    H230023   2.139   5.320   3.843  0.8230  0.6624  1.2391
 2870TIP3   OH230024   4.214   6.074  12.708 -0.0421  0.0510 -0.2006
 2870TIP3    H130025   4.308   6.090  12.709 -0.2147  1.2435 -0.6977
 2870TIP3    H230026   4.188   6.095  12.618 -0.7639 -0.3930 -0.1015
 2871TIP3   OH230027   4.259   0.003  10.720  0.0803  0.1185  0.1402
 2871TIP3    H130028   4.211  -0.058  10.665  2.3534 -0.3129 -1.4977
 2871TIP3    H230029   4.212   0.086  10.710 -1.8280 -0.8424  0.7472
 2872TIP3   OH230030   1.992   5.052   5.945 -0.2619 -0.1417  0.2263
 2872TIP3    H130031   1.953   5.110   5.880  1.2139 -1.9951 -2.5237
 2872TIP3    H230032   2.018   5.110   6.016  0.4984  2.5028 -2.0251
 2873TIP3   OH230033   1.839   5.189   0.550  0.1686  0.0033  0.0576
 2873TIP3    H130034   1.934   5.199   0.562  0.1820  2.1957 -1.3238
 2873TIP3    H230035   1.801   5.213   0.635  0.7923  0.9176  0.0885
 2874TIP3   OH230036   4.883   4.968   5.432 -0.3914  0.6899  0.1951
 2874TIP3    H130037   4.817   4.914   5.389 -0.6947  0.6175  0.7434
 2874TIP3    H230038   4.846   5.055   5.435 -0.1918  0.7869 -0.0618
 2875TIP3   OH230039   1.139   0.432   0.728  0.7939  0.3361 -0.8124
 2875TIP3    H130040   1.208   0.411   0.665 -0.3730  1.5000 -2.5750
 2875TIP3    H230041   1.111   0.520   0.704 -0.0426  0.6358  1.0681
 2876TIP3   OH230042   6.617   1.299   5.817 -0.3929  0.0313  0.1594
 2876TIP3    H130043   6.572   1.285   5.900 -1.2665 -4.0591 -0.7387
 2876TIP3    H230044   6.550   1.281   5.751  1.7028 -4.1105 -1.2341
 2877TIP3   OH230045   1.791   5.499   0.459 -0.4592  0.1256  0.3511
 2877TIP3    H130046   1.815   5.408   0.440  1.1049  0.5716 -0.0079
 2877TIP3    H230047   1.803   5.508   0.554 -0.8777 -0.1044  0.4282
 2878TIP3   OH230048   2.163   0.051  12.279 -0.2241 -0.4336  0.0868
 2878TIP3    H130049   2.143   0.131  12.230  0.2726  0.6910  1.6459
 2878TIP3    H230050   2.123   0.065  12.365  2.3968 -0.5191  1.4082
 2879TIP3   OH230051   0.702   0.686   5.993 -0.5254  0.1437  0.2920
 2879TIP3    H130052   0.719   0.780   6.005  0.4888 -0.2266  2.1720
 2879TIP3    H230053   0.671   0.657   6.078 -1.0767 -1.1957 -0.3483
 2880TIP3   OH230054   0.903   5.673   1.337 -0.0514  0.5813  0.2802
 2880TIP3    H130055   0.835   5.739   1.321 -1.7660 -0.7019  1.7791
 2880TIP3    H230056   0.859   5.590   1.321  1.4243 -0.2779  0.5308
 2881TIP3   OH230057   2.585   6.754   4.403  0.1354 -0.2108  0.6105
 2881TIP3    H130058   2.643   6.694   4.449  0.3339  0.1923  0.8915
 2881TIP3    H230059   2.500   6.710   4.403  0.4218 -0.7628  0.2708
 2882TIP3   OH230060   2.833   4.589   5.492 -0.2156  0.0114  0.5734
 2882TIP3    H130061   2.895   4.604   5.421  0.9231 -0.8391  1.3389
 2882TIP3    H230062   2.829   4.494   5.501  1.6784  0.0637  3.2612
 2883TIP3   OH230063   0.768   5.981   1.455  0.0908 -0.3234 -0.3863
 2883TIP3    H130064   0.719   5.907   1.420 -0.4111  0.0841 -0.5582
 2883TIP3    H230065   0.756   5.976   1.550  1.8800 -1.7324 -0.1653
 2884TIP3   OH230066   6.380   0.611  16.178  0.9535  0.0827  0.1136
 2884TIP3    H130067   6.347   0.521  16.178  0.3624  0.2545  2.1594
 2884TIP3    H230068   6.452   0.610  16.241  1.1202  1.0087 -0.0452
 2885TIP3   OH230069   4.675   0.867   4.935  0.3773  0.3511  0.4373
 2885TIP3    H130070   4.695   0.954   4.967  0.9940  1.0794 -1.7642
 2885TIP3    H230071   4.702   0.868   4.843 -2.1617 -1.2560 -0.4418
 2886TIP3   OH230072   5.514   1.529  15.336  0.1046  0.2519  0.2080
 2886TIP3    H130073   5.542   1.539  15.427  0.4301  0.2997  0.1044
 2886TIP3    H230074   5.423   1.558  15.336  0.5086  1.6012  0.2544
 2887TIP3   OH230075   2.786   1.486  15.178 -0.3612  0.7338 -0.4399
 2887TIP3    H130076   2.858   1.427  15.202 -1.2268  0.0023  0.4874
 2887TIP3    H230077   2.828   1.562  15.139  0.8545 -0.0547 -0.7108
 2888TIP3   OH230078   2.455   1.470  14.274 -0.0347  0.4549  0.3934
 2888TIP3    H130079   2.436   1.547  14.221 -0.2476  1.1515  1.4593
 2888TIP3    H230080   2.427   1.494  14.363  1.5351 -0.1897  1.1022
 2889TIP3   OH230081   2.880   3.483  13.839 -0.4131 -0.4143  0.4896
 2889TIP3    H130082   2.809   3.546  13.826 -0.1901  0.1251  1.7579
 2889TIP3    H230083   2.836   3.402  13.864 -0.6926 -0.7611 -1.0000
 2890TIP3   OH230084   4.008   1.035   0.554 -0.5696 -0.4003 -0.3940
 2890TIP3    H130085   3.986   1.023   0.462 -1.6847 -0.5962 -0.1135
 2890TIP3    H230086   3.960   1.114   0.580  0.2274  0.0185 -0.1230
 2891TIP3   OH230087   4.186   3.343  13.011  0.2423 -0.4047 -0.3039
 2891TIP3    H130088   4.214   3.285  12.940 -0.9021  0.2361 -1.3071
 2891TIP3    H230089   4.126   3.290  13.063  0.1886 -0.5059 -0.4722
 2892TIP3   OH230090   5.990   6.673   0.814  0.5562 -0.3875  0.2593
 2892TIP3    H130091   5.983   6.690   0.720 -0.1964  0.1560  0.4085
 2892TIP3    H230092   6.003   6.760   0.852  0.9877 -0.6215  0.6487
 2893TIP3   OH230093   2.382   1.339   3.081 -0.2051 -0.2013 -0.2393
 2893TIP3    H130094   2.297   1.304   3.055 -0.2334 -0.2789 -0.0386
 2893TIP3    H230095   2.371   1.434   3.076 -0.5559 -0.1892  0.5910
 2894TIP3   OH230096   0.702   5.175   4.145 -0.0038  0.0129  0.5578
 2894TIP3    H130097   0.773   5.213   4.092 -0.0902  1.1855  1.2425
 2894TIP3    H230098   0.710   5.219   4.230 -1.0495 -0.4516  0.9093
 2895TIP3   OH230099   1.379   3.222   6.385  0.0126  0.2139 -0.2525
 2895TIP3    H130100   1.409   3.289   6.324  3.6239 -0.6318  0.3254
 2895TIP3    H230101   1.323   3.165   6.332  1.1819  0.7632 -2.2081
 2896TIP3   OH230102   3.497   6.605  12.653  0.3336  0.0291 -0.3906
 2896TIP3    H130103   3.579   6.563  12.629  0.8601  0.0143  1.2878
 2896TIP3    H230104   3.437   6.533  12.674 -0.2032  0.0327 -1.8047
 2897TIP3   OH230105   0.898   4.066  10.586 -0.3414 -0.2475  0.2839
 2897TIP3    H130106   0.978   4.015  10.596 -0.3107 -0.2158  0.2033
 2897TIP3    H230107   0.849   4.051  10.667 -0.6634 -0.9860 -0.0476
 2898TIP3   OH230108   0.186   0.357  15.469 -0.0356 -0.0459  0.1931
 2898TIP3    H130109   0.160   0.364  15.377  1.3517  0.3002 -0.1989
 2898TIP3    H230110   0.226   0.442  15.489  0.5173 -0.4485  0.8335
 2899TIP3   OH230111   0.334   1.235  14.275 -0.3918 -0.2496  0.0488
 2899TIP3    H130112   0.290   1.319  14.266  0.3507  0.3021  1.3084
 2899TIP3    H230113   0.289   1.178  14.213 -0.5039  1.2216 -1.2827
 2900TIP3   OH230114   2.253   4.136  13.572 -0.2855 -0.4552  0.4206
 2900TIP3    H130115   2.203   4.095  13.643  1.0424 -1.0120  1.0677
 2900TIP3    H230116   2.327   4.179  13.616 -0.5218  0.9028 -0.4488
 2901TIP3   OH230117   3.451   1.864   2.251  0.4243 -0.4221 -0.2531
 2901TIP3    H130118   3.490   1.844   2.336  1.4561 -0.2007 -0.6531
 2901TIP3    H230119   3.365   1.821   2.253 -0.0468  0.5066  1.3143
 2902TIP3   OH230120   3.653   1.055  12.097  0.1114 -0.2253  0.0323
 2902TIP3    H130121   3.611   0.971  12.115 -0.8383  0.3919  0.7929
 2902TIP3    H230122   3.582   1.113  12.068  0.7406  0.3359 -0.4471
 2903TIP3   OH230123   1.665   4.982  15.647 -0.0178 -0.2073 -0.4644
 2903TIP3    H130124   1.740   4.963  15.703 -0.6080  2.4834  1.4368
 2903TIP3    H230125   1.598   4.918  15.676 -0.4568  1.3675  2.4159
 2904TIP3   OH230126   1.711   1.350  12.727 -1.0968 -0.2126  0.3298
 2904TIP3    H130127   1.750   1.290  12.790 -0.4391 -1.6708 -1.3872
 2904TIP3    H230128   1.699   1.432  12.776  1.0379 -0.7135  1.8493
 2905TIP3   OH230129   3.761   5.271  12.264  0.3192  0.2344 -0.0411
 2905TIP3    H130130   3.762   5.367  12.259  1.3768  0.1911 -1.3580
 2905TIP3    H230131   3.685   5.245  12.213 -0.3984  0.3760  0.9310
 2906TIP3   OH230132   4.870   4.334  16.426  0.1578 -0.1466  0.2130
 2906TIP3    H130133   4.929   4.301  16.495  0.1532  1.4870  1.0562
 2906TIP3    H230134   4.882   4.429  16.429 -1.4688  0.1052 -0.5756
 2907TIP3   OH230135   1.309   2.140   5.657 -0.4153 -0.1527  0.6124
 2907TIP3    H130136   1.313   2.226   5.698  0.3148 -0.2601  0.7794
 2907TIP3    H230137   1.400   2.112   5.649 -0.6787 -1.4967  1.8199
 2908TIP3   OH230138   1.380   4.834  13.703  0.1252  0.3149 -0.2527
 2908TIP3    H130139   1.362   4.741  13.697  0.9716  0.1738 -0.9187
 2908TIP3    H230140   1.379   4.865  13.612  2.1903  0.4459 -0.2966
 2909TIP3   OH230141   4.114   5.403   1.252 -0.2216  0.2383  0.7568
 2909TIP3    H130142   4.135   5.399   1.158  2.0658 -1.7489  1.2421
 2909TIP3    H230143   4.023   5.374   1.258  0.0427 -1.0316 -0.7659
 2910TIP3   OH230144   3.137   6.202  16.979 -0.0190  0.4877 -0.0930
 2910TIP3    H130145   3.198   6.273  16.957  0.0214  0.6630  0.5714
 2910TIP3    H230146   3.168   6.127  16.928 -1.1293  1.4025 -2.2373
 2911TIP3   OH230147   5.307   5.864   5.079 -0.0601  0.1712 -0.0890
 2911TIP3    H130148   5.388   5.880   5.127 -0.7635  1.3335  0.7596
 2911TIP3    H230149   5.245   5.834   5.146 -0.6525  0.4246 -0.5149
 2912TIP3   OH230150   2.915   4.292  16.241  0.1354 -0.1880 -0.6118
 2912TIP3    H130151   2.870   4.362  16.195 -1.4808 -0.8850 -0.1646
 2912TIP3    H230152   2.896   4.213  16.189 -0.2794 -0.6966  0.2818
 2913TIP3   OH230153   4.954   1.174  15.034 -0.0090  0.3810  0.0923
 2913TIP3    H130154   4.891   1.199  14.967 -0.6189 -0.8663  0.1877
 2913TIP3    H230155   4.953   1.247  15.096 -2.0022  0.0150  0.5522
 2914TIP3   OH230156   4.954   2.960  16.879  0.1019  0.1158  0.7607
 2914TIP3    H130157   4.991   3.042  16.847  0.5606 -0.7092 -0.9206
 2914TIP3    H230158   4.859   2.974  16.877  0.1856  0.6976  0.7645
 2915TIP3   OH230159   3.168   3.548  15.491  0.0715 -0.2789 -0.5012
 2915TIP3    H130160   3.256   3.563  15.458 -0.2204  0.9187 -0.8019
 2915TIP3    H230161   3.168   3.586  15.579 -0.5627  1.1898 -1.1032
 2916TIP3   OH230162   0.081   3.357  14.329 -0.4625  0.0150 -0.1045
 2916TIP3    H130163   0.074   3.370  14.235 -0.5069 -1.0650 -0.2668
 2916TIP3    H230164   0.063   3.263  14.342 -0.0869  0.0666  0.9349
 2917TIP3   OH230165   6.744   4.646  14.603  0.4893  0.2464 -0.4907
 2917TIP3    H130166   6.772   4.737  14.593  1.4693 -0.1212 -1.1872
 2917TIP3    H230167   6.713   4.641  14.694  1.8099  0.9149  0.0274
 2918TIP3   OH230168   2.208   0.139  12.915  0.5796  0.0609 -0.0773
 2918TIP3    H130169   2.258   0.060  12.895  0.7240 -0.6546  2.7052
 2918TIP3    H230170   2.116   0.113  12.908  0.6253 -0.4673  1.0354
 2919TIP3   OH230171   1.598   0.603   0.440 -0.1239 -0.0699 -0.1012
 2919TIP3    H130172   1.649   0.545   0.383 -3.2449 -0.3135 -2.9217
 2919TIP3    H230173   1.642   0.687   0.435 -0.1586 -0.1512 -2.7797
 2920TIP3   OH230174   4.486   5.742  13.328 -0.6220 -0.3074 -0.4623
 2920TIP3    H130175   4.452   5.812  13.273  1.9505  0.1763 -1.6160
 2920TIP3    H230176   4.476   5.663  13.275 -1.1986 -0.3866 -0.2323
 2921TIP3   OH230177   5.496   2.192  11.410  0.5672 -0.1732 -0.0330
 2921TIP3    H130178   5.574   2.205  11.357  0.4989  0.7804  0.0912
 2921TIP3    H230179   5.471   2.280  11.439 -0.4932 -0.4762  0.0087
 2922TIP3   OH230180   5.303   3.029  16.859  0.3685 -0.0114  0.4608
 2922TIP3    H130181   5.315   3.003  16.951  3.1878 -0.0011  0.1750
 2922TIP3    H230182   5.270   2.950  16.816 -1.5191  0.1393  1.5103
 2923TIP3   OH230183   0.991   1.334  12.605  0.3180  0.0086  0.5698
 2923TIP3    H130184   1.006   1.428  12.598 -0.4070  0.0182 -1.2652
 2923TIP3    H230185   0.945   1.324  12.688  1.3526  1.1231  1.3195
 2924TIP3   OH230186   5.753   0.051  14.184  0.2507  0.0219  0.1140
 2924TIP3    H130187   5.805  -0.023  14.152  1.2148 -0.1283  1.9077
 2924TIP3    H230188   5.702   0.079  14.108 -1.9019 -3.8872 -0.1076
 2925TIP3   OH230189   5.639   1.031  15.513  0.7419 -0.0632  0.4456
 2925TIP3    H130190   5.704   1.072  15.457  1.5415 -0.2208  1.2249
 2925TIP3    H230191   5.617   1.098  15.578  2.8247 -1.0743  2.3595
 2926TIP3   OH230192   2.159   3.577  13.698 -0.6442  0.1067  0.0429
 2926TIP3    H130193   2.102   3.500  13.698 -2.0461  1.0066 -2.9651
 2926TIP3    H230194   2.204   3.574  13.613 -1.0032  2.7280 -0.3221
 2927TIP3   OH230195   2.151   1.646  10.709  0.7538 -0.3617  0.4917
 2927TIP3    H130196   2.074   1.682  10.753  0.0950 -1.7722  0.5585
 2927TIP3    H230197   2.225   1.692  10.748  0.0516 -0.1509  1.6253
 2928TIP3   OH230198   1.489   3.544  11.648  0.3458 -0.2563  0.4770
 2928TIP3    H130199   1.521   3.634  11.645 -0.3534  0.0014  0.2949
 2928TIP3    H230200   1.556   3.493  11.603  0.0109  0.4266 -0.8582
 2929TIP3   OH230201   2.234   5.399   2.562 -0.0134  0.2592 -0.2786
 2929TIP3    H130202   2.229   5.350   2.480 -2.3506  0.6668 -0.4632
 2929TIP3    H230203   2.186   5.346   2.625 -1.1349  1.4642 -0.0628
 2930TIP3   OH230204   6.342   0.530   2.294 -0.5636  0.4888  0.0294
 2930TIP3    H130205   6.348   0.491   2.381  1.2446  1.6817  0.4929
 2930TIP3    H230206   6.348   0.624   2.310  0.3383  0.6997 -1.4231
 2931TIP3   OH230207   1.546   4.217   1.483 -0.1189  0.5418  0.4654
 2931TIP3    H130208   1.574   4.174   1.564 -1.9574  0.8331  1.3214
 2931TIP3    H230209   1.535   4.309   1.506  1.3004  1.0268 -0.6804
 2932TIP3   OH230210   1.523   0.072  13.224 -0.0992 -0.1374  0.1627
 2932TIP3    H130211   1.617   0.078  13.210 -0.1108  0.6865  0.4212
 2932TIP3    H230212   1.513  -0.005  13.281  0.5027  0.3016  0.8867
 2933TIP3   OH230213   3.835   1.945  14.635 -0.4854 -0.0624  0.4522
 2933TIP3    H130214   3.890   1.971  14.561  0.1312 -0.2944  0.8153
 2933TIP3    H230215   3.887   1.878  14.680 -0.3411  0.8962  1.7440
 2934TIP3   OH230216   4.705   2.304   3.246 -0.4043  0.4529  0.8094
 2934TIP3    H130217   4.634   2.249   3.214  0.3827  0.1407 -0.4787
 2934TIP3    H230218   4.703   2.294   3.341  1.1032 -3.6141  0.5871
 2935TIP3   OH230219   3.092   2.398   0.845  0.2072 -0.1788 -0.6899
 2935TIP3    H130220   3.015   2.394   0.901 -0.0638 -1.4467 -1.1168
 2935TIP3    H230221   3.147   2.326   0.876  0.0421 -0.9064 -2.0496
 2936TIP3   OH230222   3.477   2.141  11.486 -0.0548  0.2757 -0.0908
 2936TIP3    H130223   3.424   2.148  11.406  0.6468 -0.1264 -0.6002
 2936TIP3    H230224   3.465   2.226  11.530 -0.5915  0.4316 -0.5227
 2937TIP3   OH230225   0.353   0.970  15.025  0.0719  0.1275 -0.2318
 2937TIP3    H130226   0.447   0.958  15.014  0.2298  1.2693 -0.2592
 2937TIP3    H230227   0.322   1.004  14.941 -0.6674 -1.7104 -0.7637
 2938TIP3   OH230228   0.291   0.879  15.632 -0.1604 -0.3747 -0.1580
 2938TIP3    H130229   0.274   0.972  15.615 -1.9024 -0.8139 -1.0099
 2938TIP3    H230230   0.264   0.866  15.723  1.8622  0.3099  0.6007
 2939TIP3   OH230231   5.105   2.166   4.902 -0.3293 -0.4263 -0.2994
 2939TIP3    H130232   5.175   2.221   4.937  1.8651 -1.6090 -2.4568
 2939TIP3    H230233   5.049   2.225   4.853 -0.0326  0.3470  0.2793
 2940TIP3   OH230234   4.152   2.886  12.993  0.1525  0.0850  0.2617
 2940TIP3    H130235   4.157   2.879  13.088 -1.4708  0.8320  0.4343
 2940TIP3    H230236   4.188   2.803  12.961 -1.1324 -1.0513  1.6010
 2941TIP3   OH230237   2.771   2.155   1.720 -0.2492  0.2165  0.6626
 2941TIP3    H130238   2.785   2.078   1.664 -0.7451 -0.0241  0.8697
 2941TIP3    H230239   2.840   2.216   1.693  0.1209 -0.2810  0.4658
 2942TIP3   OH230240   0.993   5.420  15.225  0.2375  0.5413  0.1747
 2942TIP3    H130241   1.010   5.348  15.286  0.9799 -0.1861 -0.8603
 2942TIP3    H230242   1.049   5.402  15.150 -1.1363  1.0518 -1.0300
 2943TIP3   OH230243   5.159   5.390   3.345 -0.0406  0.2627  0.1238
 2943TIP3    H130244   5.074   5.374   3.386 -0.3311 -0.5377 -0.7359
 2943TIP3    H230245   5.216   5.321   3.380  0.2588  0.7802  0.6766
 2944TIP3   OH230246   4.612   6.131  11.870  0.1261 -0.7077 -0.1454
 2944TIP3    H130247   4.657   6.196  11.816 -0.9001 -0.1050 -0.2857
 2944TIP3    H230248   4.663   6.051  11.858  2.1937  0.3418  1.0365
 2945TIP3   OH230249   0.739   2.660  14.920 -0.5396 -0.1167 -0.3860
 2945TIP3    H130250   0.789   2.738  14.895 -0.9061  0.5109  0.7759
 2945TIP3    H230251   0.711   2.621  14.837 -1.9176  2.0066 -0.9722
 2946TIP3   OH230252   3.518   2.992  12.582  0.5375 -0.1126 -0.0658
 2946TIP3    H130253   3.543   3.027  12.668 -0.7513  0.4775  0.0965
 2946TIP3    H230254   3.499   2.900  12.598  0.3137 -0.0080  0.2965
 2947TIP3   OH230255   4.299   0.509  11.170  0.4846 -0.2725  0.2085
 2947TIP3    H130256   4.296   0.442  11.103 -0.2014 -0.8533  0.7958
 2947TIP3    H230257   4.311   0.461  11.252  0.2276  0.3314  0.6129
 2948TIP3   OH230258   6.441   1.643   2.447  0.2278  0.2784 -0.4445
 2948TIP3    H130259   6.453   1.593   2.528 -1.7535  1.4713  0.6697
 2948TIP3    H230260   6.520   1.698   2.441  1.9876 -2.1786 -1.1941
 2949TIP3   OH230261   4.340   6.750   5.331  0.3645  0.1652 -0.2744
 2949TIP3    H130262   4.276   6.731   5.400 -0.7701 -0.2606 -1.3994
 2949TIP3    H230263   4.420   6.705   5.359 -0.6850 -1.7575 -0.2203
 2950TIP3   OH230264   5.524   5.966  15.943  0.0286 -0.0847  0.0480
 2950TIP3    H130265   5.541   6.031  16.011 -1.6514  0.0939  0.3442
 2950TIP3    H230266   5.565   6.001  15.864  0.3488  0.6369  0.5276
 2951TIP3   OH230267   6.257   3.754  12.333  0.0894 -0.0907 -0.3677
 2951TIP3    H130268   6.216   3.722  12.253  1.3898 -1.2788 -0.5914
 2951TIP3    H230269   6.347   3.772  12.309  0.4504 -0.2630  0.7815
 2952TIP3   OH230270   4.433   3.830  16.633  0.1187  0.0497 -0.7455
 2952TIP3    H130271   4.455   3.779  16.711  0.4809  0.3458 -0.6483
 2952TIP3    H230272   4.478   3.913  16.646  0.9476 -0.2269 -1.6965
 2953TIP3   OH230273   3.224   0.875   1.905  0.2481 -0.1036  0.2825
 2953TIP3    H130274   3.209   0.933   1.831  1.3954 -0.4493 -0.2468
 2953TIP3    H230275   3.292   0.814   1.875 -1.6474 -2.4293  0.4385
 2954TIP3   OH230276   3.836   0.127  14.827  0.3929 -0.1308 -0.2519
 2954TIP3    H130277   3.763   0.147  14.886 -0.5723 -2.9569 -0.3519
 2954TIP3    H230278   3.909   0.178  14.861 -1.1318  1.3405  0.9870
 2955TIP3   OH230279   5.146   4.786  16.446 -0.5735 -0.0909 -0.1394
 2955TIP3    H130280   5.163   4.793  16.540  1.3224  0.1013 -0.4470
 2955TIP3    H230281   5.227   4.816  16.405 -0.4901 -2.3270 -1.8224
 2956TIP3   OH230282   4.592   1.395  17.043  0.2913 -0.1543  0.2471
 2956TIP3    H130283   4.685   1.398  17.063  1.2252  2.1743 -3.4399
 2956TIP3    H230284   4.585   1.334  16.970 -1.4976 -1.7602  1.6335
 2957TIP3   OH230285   1.824   1.394   4.939  0.5597 -0.0155  0.0658
 2957TIP3    H130286   1.909   1.389   4.896 -0.0873 -0.6431 -1.2018
 2957TIP3    H230287   1.822   1.320   4.999  0.5393 -0.5644 -0.6104
 2958TIP3   OH230288   2.280   0.397   5.516  0.1794 -0.1565  0.2084
 2958TIP3    H130289   2.326   0.328   5.564 -0.1717 -0.5747 -0.0460
 2958TIP3    H230290   2.193   0.399   5.555  0.3945  0.6157  0.6720
 2959TIP3   OH230291   4.474   4.848  17.186  1.2554  0.0972 -0.1193
 2959TIP3    H130292   4.425   4.905  17.126  1.2306  0.4906  0.2662
 2959TIP3    H230293   4.532   4.797  17.129  0.6695 -0.1055 -0.5460
 2960TIP3   OH230294   6.604   1.450  12.179  0.6298  0.1005  0.4132
 2960TIP3    H130295   6.510   1.442  12.167  0.8152  0.7661 -2.1158
 2960TIP3    H230296   6.615   1.523  12.240 -0.4612  0.4399  0.2172
 2961TIP3   OH230297   5.690   1.833   4.163 -0.5785 -0.0607  0.1501
 2961TIP3    H130298   5.725   1.913   4.124 -1.5015  0.0988 -0.3781
 2961TIP3    H230299   5.613   1.861   4.212 -0.4831 -0.5246  0.5807
 2962TIP3   OH230300   4.305   0.608   3.476  0.4888  0.4561  0.1756
 2962TIP3    H130301   4.309   0.603   3.572  0.1547 -1.6834  0.1307
 2962TIP3    H230302   4.221   0.649   3.457  0.9688  1.7823  0.7738
 2963TIP3   OH230303   4.227   2.853  16.899 -0.0806 -0.1254 -0.3793
 2963TIP3    H130304   4.135   2.861  16.923  0.1354 -0.5911  0.6369
 2963TIP3    H230305   4.227   2.850  16.803 -1.3454 -2.5537 -0.3812
 2964TIP3   OH230306   6.536   2.023  14.375 -0.1535  0.1350 -0.9955
 2964TIP3    H130307   6.562   1.934  14.398 -0.9979  0.1575  0.1315
 2964TIP3    H230308   6.442   2.016  14.355  0.0741  0.5344 -2.2754
 2965TIP3   OH230309   0.672   6.355   2.574 -0.4299  0.1800 -0.1733
 2965TIP3    H130310   0.647   6.396   2.491 -1.7328  1.0653  0.6246
 2965TIP3    H230311   0.594   6.306   2.601  0.4528 -1.2847 -0.1351
 2966TIP3   OH230312   2.564   3.994  12.604 -0.6773  0.5313 -0.1838
 2966TIP3    H130313   2.522   3.976  12.520 -0.2587 -0.0707 -0.2736
 2966TIP3    H230314   2.585   3.907  12.640  1.5355  0.7866 -0.6952
 2967TIP3   OH230315   3.584   4.487  11.696 -0.2677 -0.0643  0.0850
 2967TIP3    H130316   3.645   4.451  11.631 -0.3162 -2.2936  1.1732
 2967TIP3    H230317   3.503   4.438  11.682 -0.6941  0.3751  0.9662
 2968TIP3   OH230318   5.842   4.884  13.877 -0.2501 -0.0872  0.4564
 2968TIP3    H130319   5.795   4.961  13.909 -1.7346 -0.6194 -0.2991
 2968TIP3    H230320   5.801   4.811  13.923  0.0260 -0.5526 -0.0304
 2969TIP3   OH230321   5.228   2.252  15.064 -0.1864 -0.0565 -0.2019
 2969TIP3    H130322   5.203   2.255  15.156  1.4537  1.3400  0.2592
 2969TIP3    H230323   5.287   2.177  15.057  1.1133  0.8944  0.3135
 2970TIP3   OH230324   4.596   6.445   2.560 -0.0885  0.0277  0.0632
 2970TIP3    H130325   4.658   6.517   2.570  1.0057 -0.6650 -1.4058
 2970TIP3    H230326   4.524   6.482   2.508  0.5147  0.0366 -0.7683
 2971TIP3   OH230327   0.613   5.571   3.341 -0.1793  0.3886 -0.4160
 2971TIP3    H130328   0.623   5.490   3.291 -0.5798  0.8919 -1.3279
 2971TIP3    H230329   0.537   5.554   3.397 -0.1711  0.0787 -0.4948
 2972TIP3   OH230330   0.373   5.494  12.666 -0.4839 -0.1809 -0.0730
 2972TIP3    H130331   0.292   5.513  12.618  0.2219  0.7956 -0.9260
 2972TIP3    H230332   0.373   5.399  12.676 -1.6088 -0.2199 -0.2705
 2973TIP3   OH230333   4.723   5.418  13.680  0.5770 -0.3652 -0.0959
 2973TIP3    H130334   4.804   5.467  13.662  0.2905  0.5759  1.0502
 2973TIP3    H230335   4.750   5.349  13.740  0.7991 -1.0473 -0.9521
 2974TIP3   OH230336   0.762   6.796  15.629 -0.1934 -0.1745  0.3819
 2974TIP3    H130337   0.795   6.789  15.719  1.3885 -1.6213 -0.2683
 2974TIP3    H230338   0.671   6.824  15.640  0.0204 -0.0923  2.4173
 2975TIP3   OH230339   0.068   1.909  15.910  0.2422 -0.1535 -0.1278
 2975TIP3    H130340   0.044   1.966  15.837  2.1093  0.2205 -0.4784
 2975TIP3    H230341  -0.016   1.886  15.950 -0.7520  0.4311 -1.7800
 2976TIP3   OH230342   0.171   6.078  12.540 -0.4755 -0.3393 -0.4411
 2976TIP3    H130343   0.238   6.113  12.482  0.8004 -1.2717  0.4190
 2976TIP3    H230344   0.194   5.986  12.552  1.2106  0.3898  3.9082
 2977TIP3   OH230345   5.547   2.066   1.869 -0.3142  0.4399  0.8480
 2977TIP3    H130346   5.553   2.151   1.825  0.9284  0.1608  0.4208
 2977TIP3    H230347   5.457   2.038   1.857  0.0392  0.2020 -1.9199
 2978TIP3   OH230348   5.697   4.360  15.197  0.0579 -0.2644  0.6262
 2978TIP3    H130349   5.773   4.405  15.160  0.2542  0.3754  1.7552
 2978TIP3    H230350   5.663   4.307  15.125  0.4735  0.8492 -0.4209
 2979TIP3   OH230351   1.137   0.619  17.170 -0.1843  0.3074 -0.3368
 2979TIP3    H130352   1.174   0.545  17.123 -0.3283 -1.1579  1.7375
 2979TIP3    H230353   1.065   0.582  17.221 -1.4328  2.2190 -0.5966
 2980TIP3   OH230354   5.939   5.675  10.813  0.0312 -0.1981  0.2604
 2980TIP3    H130355   5.965   5.599  10.761  0.6009  0.3421 -0.2421
 2980TIP3    H230356   5.868   5.642  10.869 -0.1425 -0.9443 -0.3884
 2981TIP3   OH230357   0.393   6.556  15.452  0.2685  0.0170  0.0886
 2981TIP3    H130358   0.339   6.487  15.414 -1.8153  1.4095  0.3259
 2981TIP3    H230359   0.366   6.636  15.405  0.7235  1.0671  1.5314
 2982TIP3   OH230360   5.432   4.522   1.520 -0.5824 -0.4370 -0.4141
 2982TIP3    H130361   5.478   4.441   1.499 -1.1302 -0.6873 -0.6704
 2982TIP3    H230362   5.501   4.585   1.540 -0.1755 -1.3608  1.2775
 2983TIP3   OH230363   4.530   1.555   1.646  0.0795  0.4469  0.3730
 2983TIP3    H130364   4.569   1.613   1.581  0.5688  0.6794  0.8572
 2983TIP3    H230365   4.449   1.599   1.671  0.1709  0.6461  0.3287
 2984TIP3   OH230366   6.030   2.039  16.244  0.4104 -0.0233 -0.1178
 2984TIP3    H130367   6.101   2.028  16.180  0.3808 -1.9777  0.1012
 2984TIP3    H230368   5.957   1.990  16.206 -0.3501  0.7188  0.3633
 2985TIP3   OH230369   2.907   0.801   2.748  0.5699 -0.3112  0.1452
 2985TIP3    H130370   2.999   0.777   2.736  0.3259 -0.3640 -2.0298
 2985TIP3    H230371   2.906   0.856   2.826  2.5767  0.3171 -0.2187
 2986TIP3   OH230372   5.282   3.082   0.278 -0.8370 -0.1902 -0.4298
 2986TIP3    H130373   5.266   3.153   0.216 -1.6130  0.2649  0.2747
 2986TIP3    H230374   5.318   3.125   0.356 -0.3127 -0.6982 -0.3817
 2987TIP3   OH230375   1.377   6.475  16.560  0.4746 -0.2131 -1.0174
 2987TIP3    H130376   1.386   6.411  16.630 -1.4184  0.7930  0.2187
 2987TIP3    H230377   1.418   6.555  16.593 -1.0073  0.4624 -0.7393
 2988TIP3   OH230378   6.780   2.585   3.730  0.1750  0.8341 -0.1729
 2988TIP3    H130379   6.851   2.524   3.712 -0.5042  0.0595 -0.2808
 2988TIP3    H230380   6.720   2.537   3.786  0.1555  1.7815  0.6506
 2989TIP3   OH230381   6.754   3.113   2.564 -0.8062 -0.0254 -0.0870
 2989TIP3    H130382   6.705   3.032   2.578 -1.3435  0.1281 -0.9762
 2989TIP3    H230383   6.796   3.131   2.648 -2.2030 -0.2056  0.6772
 2990TIP3   OH230384   4.233   5.867   5.517  0.2508 -0.2523  0.1405
 2990TIP3    H130385   4.259   5.954   5.548 -0.0302 -0.5020  1.1136
 2990TIP3    H230386   4.158   5.883   5.460  0.3714  0.1672  0.1008
 2991TIP3   OH230387   6.443   0.594   6.226 -0.1399 -0.4504 -0.0588
 2991TIP3    H130388   6.375   0.660   6.212 -0.5962 -0.9019 -0.0251
 2991TIP3    H230389   6.410   0.517   6.179 -0.4200 -1.1721  1.2790
 2992TIP3   OH230390   0.111   1.573   5.679 -0.1733  0.4172 -0.8699
 2992TIP3    H130391   0.043   1.575   5.747  1.7329 -1.6661  1.2869
 2992TIP3    H230392   0.164   1.651   5.695 -0.2032  0.3583 -0.4862
 2993TIP3   OH230393   6.005   6.396  15.360 -0.1526 -0.2184 -0.9384
 2993TIP3    H130394   5.988   6.325  15.298  1.7552 -0.5420 -1.1446
 2993TIP3    H230395   6.026   6.352  15.443  0.4622  0.1100 -0.9126
 2994TIP3   OH230396   2.565   2.125   5.224 -0.3417  0.8134  0.0772
 2994TIP3    H130397   2.577   2.030   5.230 -0.9128  0.8284  2.3833
 2994TIP3    H230398   2.470   2.137   5.220 -0.4970  1.3057  2.9938
 2995TIP3   OH230399   0.733   1.299   1.765  0.0723 -0.0640 -0.3573
 2995TIP3    H130400   0.791   1.225   1.746  1.7297  0.9132  0.6259
 2995TIP3    H230401   0.713   1.336   1.679  1.7379  0.1358 -0.7074
 2996TIP3   OH230402   2.924   6.171  11.834  0.3043 -0.0299 -0.1198
 2996TIP3    H130403   2.872   6.115  11.776 -0.1718  1.1862 -0.8993
 2996TIP3    H230404   2.860   6.216  11.888  0.6663 -0.0415  0.3260
 2997TIP3   OH230405   6.082   6.009  14.213 -0.2345 -0.5181  0.0267
 2997TIP3    H130406   6.156   6.059  14.246 -1.8481  2.3785 -0.4412
 2997TIP3    H230407   6.071   5.937  14.275  2.2334 -0.3735  0.7107
 2998TIP3   OH230408   6.181   5.470  13.596  0.0098  0.0957 -0.8921
 2998TIP3    H130409   6.226   5.552  13.615  0.0866 -0.6928  3.0993
 2998TIP3    H230410   6.089   5.487  13.618 -0.0181 -0.7842 -0.2763
 2999TIP3   OH230411   4.690   5.572   6.478  0.6607  0.0403  0.0680
 2999TIP3    H130412   4.785   5.584   6.488  0.9500  0.2346 -2.3352
 2999TIP3    H230413   4.681   5.483   6.444 -0.1546 -0.4014  1.3519
 3000TIP3   OH230414   1.103   0.910  14.512  0.0559 -0.7375 -0.0509
 3000TIP3    H130415   1.158   0.901  14.590 -0.7269 -0.1028  0.5970
 3000TIP3    H230416   1.016   0.930  14.546 -0.8417 -2.7607 -1.0135
 3001TIP3   OH230417   5.840   4.317  12.967  0.1110  0.3167  0.5950
 3001TIP3    H130418   5.843   4.229  13.004  1.2234  0.1923  0.2554
 3001TIP3    H230419   5.920   4.360  12.999  0.1356  0.8309 -0.1085
 3002TIP3   OH230420   4.090   5.812   0.971  0.0898 -0.2348 -0.2651
 3002TIP3    H130421   4.039   5.800   1.051 -0.4366 -1.7551 -0.7971
 3002TIP3    H230422   4.030   5.785   0.901  0.3492  1.5544 -1.2518
 3003TIP3   OH230423   0.442   4.000   2.773 -0.4626 -0.4379 -0.3276
 3003TIP3    H130424   0.364   3.971   2.819 -1.0699 -0.7087 -1.5106
 3003TIP3    H230425   0.414   4.013   2.683  1.0076 -1.2039 -0.9265
 3004TIP3   OH230426   4.319   1.426   0.791 -0.0169 -0.5530  0.0909
 3004TIP3    H130427   4.322   1.521   0.792 -2.0597 -0.4340  2.0425
 3004TIP3    H230428   4.260   1.404   0.719 -0.4741 -0.2930  0.3851
 3005TIP3   OH230429   1.394   2.098   5.991 -0.1718 -0.6467 -0.1320
 3005TIP3    H130430   1.380   2.062   6.078 -2.5826 -1.7883 -0.8836
 3005TIP3    H230431   1.456   2.170   6.004  0.8921 -1.8807  2.2137
 3006TIP3   OH230432   4.279   6.340  15.674  0.3095 -0.2720 -0.1208
 3006TIP3    H130433   4.219   6.391  15.619 -0.4718 -1.0872 -0.0559
 3006TIP3    H230434   4.339   6.404  15.710  0.8888  0.2840 -1.9730
 3007TIP3   OH230435   2.781   6.789   3.954  0.3989 -0.2643  0.3845
 3007TIP3    H130436   2.761   6.827   3.868  1.9740 -1.0014 -0.3374
 3007TIP3    H230437   2.708   6.817   4.010 -1.1233 -0.4977 -1.3999
 3008TIP3   OH230438   0.714   5.560  14.413  0.2864 -0.0355  0.3399
 3008TIP3    H130439   0.720   5.495  14.482  0.8037 -1.4170 -0.9494
 3008TIP3    H230440   0.803   5.594  14.404 -0.0891  1.2853  1.3776
 3009TIP3   OH230441   0.767   2.260  13.279  0.3338  0.0418 -0.0690
 3009TIP3    H130442   0.835   2.314  13.317 -0.5019  1.2341 -0.1868
 3009TIP3    H230443   0.783   2.264  13.185 -1.2042  2.3201 -0.3353
 3010TIP3   OH230444   2.591   4.385   4.156  0.1505  0.5345 -0.1558
 3010TIP3    H130445   2.510   4.428   4.129  0.1890  0.8060  0.1409
 3010TIP3    H230446   2.642   4.455   4.197  0.1793  0.1892  0.4184
 3011TIP3   OH230447   2.675   1.348   4.540 -0.3161 -0.0477  0.3569
 3011TIP3    H130448   2.619   1.423   4.563 -0.1179 -0.0063  0.7006
 3011TIP3    H230449   2.656   1.282   4.606 -0.6527 -0.3897 -0.0725
 3012TIP3   OH230450   0.752   5.814  15.021 -0.4079  0.0614 -0.0939
 3012TIP3    H130451   0.691   5.861  15.077 -0.4178  1.7926 -1.4453
 3012TIP3    H230452   0.760   5.727  15.060 -2.9919  0.0913  0.6358
 3013TIP3   OH230453   0.467   0.451  16.898  0.3384 -0.4885 -0.0480
 3013TIP3    H130454   0.443   0.508  16.825 -0.3879  0.3918  0.8547
 3013TIP3    H230455   0.436   0.365  16.872  2.0251 -0.6754 -1.7284
 3014TIP3   OH230456   3.311   0.626   4.072  0.8189 -0.0590 -0.1226
 3014TIP3    H130457   3.287   0.716   4.091  0.4067 -0.2117  0.0979
 3014TIP3    H230458   3.403   0.630   4.045  1.7765  0.1056  2.7656
 3015TIP3   OH230459   3.473   1.949  16.509  0.5369  0.1311 -0.0328
 3015TIP3    H130460   3.428   2.024  16.547 -1.1363 -0.1948 -1.2130
 3015TIP3    H230461   3.433   1.873  16.551  1.5178 -0.1310  0.4405
 3016TIP3   OH230462   2.303   3.118   6.444  0.2553 -0.3739  0.5572
 3016TIP3    H130463   2.343   3.156   6.365  0.2841  1.0393  1.2211
 3016TIP3    H230464   2.374   3.116   6.508 -0.1638  0.0518  1.0455
 3017TIP3   OH230465   3.516   1.758   1.993 -0.3749 -0.1326  0.1104
 3017TIP3    H130466   3.597   1.707   1.996 -0.6236 -0.5548 -0.2284
 3017TIP3    H230467   3.519   1.812   2.072  2.3782  3.2050 -2.0056
 3018TIP3   OH230468   5.560   0.149   3.356 -0.2568 -0.1220  0.4322
 3018TIP3    H130469   5.520   0.219   3.406 -1.8589 -0.9346  0.3436
 3018TIP3    H230470   5.654   0.166   3.362 -0.5888  1.9277  0.5286
 3019TIP3   OH230471   3.921   1.034   0.293 -0.1115 -0.3086 -0.3082
 3019TIP3    H130472   3.942   1.022   0.200 -1.7251 -1.2951 -0.5984
 3019TIP3    H230473   3.833   0.996   0.302 -0.7490  1.3925  1.2497
 3020TIP3   OH230474   2.852   4.627  16.451 -0.4858  0.2367 -0.6445
 3020TIP3    H130475   2.902   4.551  16.479  0.1421 -0.1124 -2.5202
 3020TIP3    H230476   2.844   4.683  16.528  1.2571 -0.5478  0.1239
 3021TIP3   OH230477   1.144   1.758  11.085  0.5482 -0.0720 -0.3544
 3021TIP3    H130478   1.134   1.852  11.102  0.3980  0.2287 -1.8833
 3021TIP3    H230479   1.201   1.727  11.154 -0.5095  0.8536  1.0099
 3022TIP3   OH230480   3.762   3.359   2.635  0.1928  0.1051 -0.1054
 3022TIP3    H130481   3.702   3.404   2.575  0.9918 -3.0125 -3.6229
 3022TIP3    H230482   3.704   3.313   2.696 -1.0411 -1.0535 -2.0281
 3023TIP3   OH230483   0.671   3.320  13.495  0.0474 -0.3953  0.1532
 3023TIP3    H130484   0.694   3.229  13.480  0.2746 -0.2794 -0.2223
 3023TIP3    H230485   0.756   3.366  13.498 -0.1040  0.0287 -1.2022
 3024TIP3   OH230486   2.528   0.549  13.042  0.1724  0.5341  0.2212
 3024TIP3    H130487   2.526   0.534  13.137 -1.5355  0.9322  0.2772
 3024TIP3    H230488   2.515   0.644  13.033  1.7686  0.7336 -0.4024
 3025TIP3   OH230489   1.856   6.222   5.222  0.3158 -0.2862  0.1343
 3025TIP3    H130490   1.875   6.198   5.131  0.6814  1.5750 -0.3333
 3025TIP3    H230491   1.817   6.310   5.215  0.1920 -0.1922  1.7689
 3026TIP3   OH230492   3.815   0.840   0.960  0.5325 -0.8028 -0.4645
 3026TIP3    H130493   3.837   0.816   1.050  0.2326 -0.5218 -0.3167
 3026TIP3    H230494   3.899   0.839   0.914  0.7981 -0.1775 -0.0039
 3027TIP3   OH230495   2.511   4.579   0.785 -0.2611  0.0717  0.0874
 3027TIP3    H130496   2.423   4.567   0.822 -0.5693 -1.0218 -0.9515
 3027TIP3    H230497   2.559   4.500   0.811  1.0454  1.4635  2.2409
 3028TIP3   OH230498   3.660   0.144   6.709  0.0808 -0.0072 -0.0024
 3028TIP3    H130499   3.743   0.169   6.669 -0.6263  0.5521 -1.1953
 3028TIP3    H230500   3.653   0.050   6.694 -0.6067  0.3277 -2.1718
 3029TIP3   OH230501   2.326   4.699  14.329  0.1644 -0.6174  0.7906
 3029TIP3    H130502   2.290   4.646  14.400 -1.7039 -1.3241 -0.5800
 3029TIP3    H230503   2.294   4.656  14.249  0.5715  1.2350 -0.4298
 3030TIP3   OH230504   0.304   1.632  14.711  0.0425 -0.4246 -0.1818
 3030TIP3    H130505   0.315   1.567  14.781  0.0728  0.9099  1.0981
 3030TIP3    H230506   0.213   1.623  14.684 -0.4843  0.2162  1.2760
 3031TIP3   OH230507   4.994   2.158  17.095  0.1080  0.1176 -0.2040
 3031TIP3    H130508   5.085   2.133  17.082  0.2773  0.1559  0.7760
 3031TIP3    H230509   4.966   2.193  17.011  0.9675  0.0161 -0.5453
 3032TIP3   OH230510   1.737   3.043  15.822  0.0402  0.4785 -0.4280
 3032TIP3    H130511   1.794   2.988  15.876  0.5948  0.1387 -1.3306
 3032TIP3    H230512   1.730   2.996  15.739 -1.2644  0.7080 -0.4676
 3033TIP3   OH230513   3.150   6.228  11.238  0.2927  0.1876 -0.1822
 3033TIP3    H130514   3.175   6.199  11.150 -0.2708 -0.8603 -0.0158
 3033TIP3    H230515   3.055   6.235  11.235  0.3051  0.5651  0.2259
 3034TIP3   OH230516   2.615   1.955   4.358 -0.2760  0.1643 -0.1739
 3034TIP3    H130517   2.618   1.927   4.267 -0.4447 -0.9162  0.1409
 3034TIP3    H230518   2.561   1.889   4.402  0.3223  0.3208  0.8282
 3035TIP3   OH230519   6.502   5.199  11.453  0.2986  0.0645 -0.2817
 3035TIP3    H130520   6.421   5.149  11.443  0.5666 -0.2660 -0.8405
 3035TIP3    H230521   6.509   5.215  11.547  0.0304 -0.6630 -0.1328
 3036TIP3   OH230522   3.333   0.410   4.247 -0.0963  0.1889  0.1239
 3036TIP3    H130523   3.270   0.365   4.191  0.4220  0.2043 -0.4776
 3036TIP3    H230524   3.352   0.492   4.201  1.0016 -0.1919 -0.1356
 3037TIP3   OH230525   2.160   3.397  13.041  0.1657  0.1303  0.3852
 3037TIP3    H130526   2.066   3.416  13.037  0.6318  2.7039 -0.1763
 3037TIP3    H230527   2.192   3.451  13.114  1.5935  1.4803 -1.1424
 3038TIP3   OH230528   3.259   5.770   1.012  0.0637 -0.0358  1.0839
 3038TIP3    H130529   3.348   5.758   0.979 -0.5177 -0.2751 -0.5025
 3038TIP3    H230530   3.252   5.864   1.028  1.0876 -0.2124  2.7816
 3039TIP3   OH230531   5.382   2.311  13.241  0.7663  0.1286  0.5230
 3039TIP3    H130532   5.469   2.294  13.206  0.1945 -1.2005 -0.3308
 3039TIP3    H230533   5.384   2.275  13.330  0.2844 -2.6296 -0.4620
 3040TIP3   OH230534   5.828   4.396   5.528  0.2974 -0.2583 -0.5091
 3040TIP3    H130535   5.894   4.333   5.499  0.5634  0.6446 -2.0088
 3040TIP3    H230536   5.745   4.361   5.493  0.3862 -0.0041 -0.9831
 3041TIP3   OH230537   1.808   4.734   4.873  0.6245 -0.5538  0.3076
 3041TIP3    H130538   1.862   4.716   4.796 -1.5101 -0.9744 -1.1666
 3041TIP3    H230539   1.785   4.827   4.866 -1.3794 -1.0915 -0.8349
 3042TIP3   OH230540   1.048   1.276   3.219 -0.4384 -0.1210 -0.6422
 3042TIP3    H130541   0.969   1.298   3.169 -0.8362  0.8012  0.3316
 3042TIP3    H230542   1.118   1.327   3.179 -0.6417  0.1918 -0.6018
 3043TIP3   OH230543   3.439   3.257  16.373  0.1782 -0.2705  0.1137
 3043TIP3    H130544   3.492   3.329  16.408 -1.4440  1.0711 -0.0044
 3043TIP3    H230545   3.435   3.193  16.443  0.5869  0.3723  0.7369
 3044TIP3   OH230546   2.160   2.899   5.800  0.0491 -0.5428  0.2412
 3044TIP3    H130547   2.153   2.979   5.852 -0.9933  2.7537 -4.4002
 3044TIP3    H230548   2.252   2.898   5.771 -0.6457  1.0408 -2.3346
 3045TIP3   OH230549   0.060   5.638   2.426 -0.0087 -0.1882 -0.0581
 3045TIP3    H130550   0.129   5.584   2.463  0.2691 -0.2456 -0.6453
 3045TIP3    H230551   0.103   5.721   2.405 -0.1685 -0.1471 -0.2216
 3046TIP3   OH230552   5.556   2.078  12.848 -0.3079  0.1068 -0.1464
 3046TIP3    H130553   5.622   2.108  12.785  0.3397 -0.4646  0.2500
 3046TIP3    H230554   5.602   2.075  12.932 -1.2555  1.2105  0.4495
 3047TIP3   OH230555   1.463   0.012  12.678 -0.0152  0.1704 -0.0589
 3047TIP3    H130556   1.526   0.077  12.711 -0.3234  0.6760 -0.4513
 3047TIP3    H230557   1.504  -0.021  12.598  0.1672 -0.1615  0.1709
 3048TIP3   OH230558   4.097   6.392  12.883  0.2173 -0.4061 -0.4676
 3048TIP3    H130559   4.065   6.424  12.967 -0.1224 -1.8717 -0.0093
 3048TIP3    H230560   4.029   6.330  12.854  0.1674  0.3085 -1.9830
 3049TIP3   OH230561   2.490   1.275   2.156  1.1004 -0.2129 -0.4693
 3049TIP3    H130562   2.398   1.288   2.131  0.2431 -0.2845  2.2655
 3049TIP3    H230563   2.518   1.361   2.187  1.5622 -0.4687 -0.1740
 3050TIP3   OH230564   3.268   4.420   1.289 -0.1850  0.6143  0.0014
 3050TIP3    H130565   3.349   4.369   1.283 -0.3998  0.3582 -0.8468
 3050TIP3    H230566   3.203   4.368   1.242 -0.8386  0.8451  0.6269
 3051TIP3   OH230567   4.516   5.304   5.332  0.6491  0.0854 -0.3236
 3051TIP3    H130568   4.568   5.269   5.260  0.6827 -0.5982  0.0223
 3051TIP3    H230569   4.577   5.308   5.406  0.8663  1.6777 -0.5715
 3052TIP3   OH230570   3.566   1.850   6.429  0.0976  0.6583  0.1203
 3052TIP3    H130571   3.502   1.795   6.383  0.2998  0.0173  0.5926
 3052TIP3    H230572   3.517   1.930   6.451 -0.5162  0.2168  0.3815
 3053TIP3   OH230573   3.127   4.246   0.329 -0.7046  0.0275 -0.3156
 3053TIP3    H130574   3.201   4.290   0.370 -0.6977 -0.6310  0.3873
 3053TIP3    H230575   3.060   4.313   0.321  0.0534  0.7012 -1.2017
 3054TIP3   OH230576   5.327   5.879  11.866  0.2116  0.4065  0.1077
 3054TIP3    H130577   5.395   5.945  11.861 -0.7025  1.2741 -2.4891
 3054TIP3    H230578   5.368   5.800  11.829  0.5561  0.1892  0.9334
 3055TIP3   OH230579   0.647   1.647  12.974 -0.1298 -0.0698 -0.0140
 3055TIP3    H130580   0.661   1.600  13.056  1.9376  1.5036  0.6113
 3055TIP3    H230581   0.559   1.684  12.983 -0.7513 -1.5889  0.5680
 3056TIP3   OH230582   4.245   0.780  11.109  0.3378  0.1485 -0.0246
 3056TIP3    H130583   4.310   0.813  11.172 -0.1143  0.8347  0.0985
 3056TIP3    H230584   4.239   0.686  11.127 -0.5283  0.4784  1.6820
 3057TIP3   OH230585   3.650   4.840  13.905  0.2128 -0.0654 -0.0682
 3057TIP3    H130586   3.633   4.791  13.986 -0.0930 -2.4423 -1.4584
 3057TIP3    H230587   3.563   4.855  13.868  0.4031 -0.1990 -0.5823
 3058TIP3   OH230588   4.075   4.651   5.845 -0.0994 -0.6952  0.1698
 3058TIP3    H130589   4.025   4.716   5.796  0.2526  0.0381  0.7573
 3058TIP3    H230590   4.046   4.567   5.810 -2.9170 -0.4176  1.4954
 3059TIP3   OH230591   2.084   4.407  12.132  0.0419 -0.1871 -0.2084
 3059TIP3    H130592   2.121   4.342  12.072  0.9027  0.2598 -0.1829
 3059TIP3    H230593   2.084   4.488  12.082  0.8326  0.2048  0.4054
 3060TIP3   OH230594   3.094   0.645   0.448 -0.2475  0.1124  0.1681
 3060TIP3    H130595   3.167   0.699   0.480 -0.0782 -0.0952  0.1314
 3060TIP3    H230596   3.045   0.704   0.390  0.5082 -0.0509 -0.6738
 3061TIP3   OH230597   6.103   6.138   2.792 -0.2795 -0.2108  0.1462
 3061TIP3    H130598   6.193   6.170   2.801  0.6141 -2.9392  1.9374
 3061TIP3    H230599   6.111   6.057   2.742 -1.7087 -0.7236  0.7081
 3062TIP3   OH230600   3.974   4.378   3.931 -0.2543  0.0235  0.4635
 3062TIP3    H130601   3.956   4.470   3.948 -0.7734  0.1937 -0.9168
 3062TIP3    H230602   4.056   4.360   3.976 -0.0296  1.2154  0.5403
 3063TIP3   OH230603   2.456   3.855   1.812  0.1790 -0.0007  0.4483
 3063TIP3    H130604   2.395   3.909   1.862  0.3727  0.5498  0.0949
 3063TIP3    H230605   2.453   3.769   1.855  0.6270  0.5552  1.6359
 3064TIP3   OH230606   6.307   0.818   3.576 -0.3451  0.1156  0.7529
 3064TIP3    H130607   6.319   0.863   3.660 -0.0498  0.7391  0.3900
 3064TIP3    H230608   6.394   0.822   3.535 -0.6371  0.3974  0.1447
 3065TIP3   OH230609   0.174   3.785   5.366 -0.4497 -0.1815 -0.3571
 3065TIP3    H130610   0.213   3.818   5.284  0.6964  1.1522  0.6714
 3065TIP3    H230611   0.085   3.761   5.342  0.4507 -1.7642 -2.4485
 3066TIP3   OH230612   0.273   2.403  15.908  0.2102 -0.4978  0.1421
 3066TIP3    H130613   0.307   2.350  15.836 -2.5286 -1.9052 -0.2899
 3066TIP3    H230614   0.313   2.366  15.987  1.4209 -0.5174 -0.4678
 3067TIP3   OH230615   1.236   6.424   5.054 -0.0421 -0.0667 -0.1092
 3067TIP3    H130616   1.262   6.332   5.058  1.1073  0.2142 -0.5449
 3067TIP3    H230617   1.153   6.428   5.100 -0.3596 -1.4149 -0.5145
 3068TIP3   OH230618   4.329   0.934  11.703  0.6607  0.2265  0.4515
 3068TIP3    H130619   4.340   0.846  11.667  1.7990  0.3749  0.4200
 3068TIP3    H230620   4.417   0.969  11.710  0.1978  1.5621  0.0151
 3069TIP3   OH230621   5.007   1.430   1.664  0.3917  0.0728  0.2220
 3069TIP3    H130622   5.038   1.342   1.687 -0.7026 -0.5790 -0.7113
 3069TIP3    H230623   4.932   1.444   1.722 -0.1423 -0.0881 -0.4264
 3070TIP3   OH230624   2.982   4.321   2.877  0.1363  0.2016  0.0762
 3070TIP3    H130625   2.933   4.284   2.803  1.1434 -0.1275 -0.4528
 3070TIP3    H230626   3.012   4.406   2.845  2.3370 -0.8050 -0.7048
 3071TIP3   OH230627   6.219   6.741  13.151 -0.2250 -0.0893 -0.2604
 3071TIP3    H130628   6.290   6.805  13.150 -0.6437  0.3747 -0.6690
 3071TIP3    H230629   6.141   6.791  13.174 -0.4976 -0.5184 -0.2299
 3072TIP3   OH230630   4.158   3.798   5.756  0.3557 -0.4272 -0.4107
 3072TIP3    H130631   4.211   3.869   5.720  0.7089 -0.7663 -0.5763
 3072TIP3    H230632   4.073   3.838   5.774  0.2167 -0.1975 -1.4813
 3073TIP3   OH230633   1.958   1.408  11.556 -0.3322  0.0862  0.2877
 3073TIP3    H130634   1.867   1.434  11.565 -0.2792  0.8428 -1.1833
 3073TIP3    H230635   1.969   1.386  11.463  1.2632  1.1599  0.1786
 3074TIP3   OH230636   0.652   3.991   3.442  0.0930  0.5274  0.0486
 3074TIP3    H130637   0.661   3.997   3.537  2.0597 -0.8904  0.0277
 3074TIP3    H230638   0.723   4.046   3.408 -0.9652  1.5086 -0.6377
 3075TIP3   OH230639   4.575   5.123  14.094  0.9038 -0.1630  0.1053
 3075TIP3    H130640   4.547   5.032  14.084  0.0163  0.2874 -2.1993
 3075TIP3    H230641   4.670   5.119  14.092  0.8721 -1.0333 -0.1414
 3076TIP3   OH230642   4.710   6.214  15.899 -0.0975 -0.2038  0.4037
 3076TIP3    H130643   4.770   6.234  15.827 -0.5913 -0.2090 -0.0135
 3076TIP3    H230644   4.718   6.120  15.912 -1.3614 -0.5129 -0.8795
 3077TIP3   OH230645   5.576   4.580  12.572 -0.0043 -0.1475 -0.0094
 3077TIP3    H130646   5.569   4.543  12.661  0.0539 -0.4393 -0.1234
 3077TIP3    H230647   5.501   4.542  12.525 -0.7710  0.9910  0.2557
 3078TIP3   OH230648   1.364   5.716   5.040 -0.3401 -0.6257 -0.1323
 3078TIP3    H130649   1.358   5.763   4.957  0.7087 -0.9622 -0.4152
 3078TIP3    H230650   1.398   5.780   5.102 -1.2856 -0.3262  0.0895
 3079TIP3   OH230651   6.071   1.374  11.764  0.4153  0.2915 -0.1201
 3079TIP3    H130652   6.140   1.355  11.827  0.5488 -2.3980 -0.9435
 3079TIP3    H230653   6.110   1.439  11.705  1.8027 -0.3048  0.1053
 3080TIP3   OH230654   5.343   3.703  16.094 -0.0576 -0.0670  0.3765
 3080TIP3    H130655   5.435   3.725  16.076 -0.5934  1.0335 -1.2066
 3080TIP3    H230656   5.293   3.779  16.065 -1.4532 -0.3155  1.9629
 3081TIP3   OH230657   1.849   4.988   3.295  0.2437 -0.4091 -0.2962
 3081TIP3    H130658   1.841   4.933   3.217  0.9831 -2.1590  0.7923
 3081TIP3    H230659   1.942   4.984   3.318  0.0281  0.0048  0.7136
 3082TIP3   OH230660   5.900   5.512   4.413 -0.2062 -0.0415 -0.1428
 3082TIP3    H130661   5.923   5.601   4.438 -0.3946 -0.3883  1.3447
 3082TIP3    H230662   5.810   5.501   4.442 -0.3327 -0.5766 -0.7188
 3083TIP3   OH230663   2.517   4.089  13.367 -0.1328 -0.4002  0.0793
 3083TIP3    H130664   2.490   4.133  13.286 -0.4691 -0.6715  0.0422
 3083TIP3    H230665   2.591   4.142  13.399 -0.5857  0.2463  0.0810
 3084TIP3   OH230666   3.538   4.331  13.928  0.3160  0.7057  0.5577
 3084TIP3    H130667   3.578   4.263  13.982  0.1729 -0.1398 -0.3679
 3084TIP3    H230668   3.613   4.379  13.891  0.4145  1.1724  1.3508
 3085TIP3   OH230669   0.945   5.455   0.975  0.2599  0.2422 -0.4897
 3085TIP3    H130670   0.867   5.489   0.931 -1.7831 -0.3624  2.3660
 3085TIP3    H230671   1.016   5.512   0.946 -1.1378  0.7155 -3.3435
 3086TIP3   OH230672   1.922   2.898  15.092 -0.2440 -0.3353  0.2282
 3086TIP3    H130673   1.933   2.892  14.997  0.3076 -0.5135  0.3062
 3086TIP3    H230674   2.009   2.918  15.126 -0.5890  0.5445  0.6297
 3087TIP3   OH230675   2.914   5.099  14.030 -0.5644  0.1174  0.1944
 3087TIP3    H130676   2.925   5.193  14.045 -1.0541  0.0843  0.8269
 3087TIP3    H230677   2.823   5.090  14.002 -0.0708  0.0013 -1.4725
 3088TIP3   OH230678   1.554   1.691   1.346  0.5297 -0.3537  0.2238
 3088TIP3    H130679   1.553   1.596   1.356  2.0902 -0.4119  0.1150
 3088TIP3    H230680   1.476   1.721   1.392 -0.7603 -1.7699 -0.9599
 3089TIP3   OH230681   1.667   3.807  13.078 -0.0112  0.0185 -0.8619
 3089TIP3    H130682   1.711   3.729  13.043 -1.7022 -1.1829 -0.4436
 3089TIP3    H230683   1.691   3.877  13.017  1.4832 -0.8289 -1.3008
 3090TIP3   OH230684   3.242   0.536   6.473  0.3290  0.7095 -0.6677
 3090TIP3    H130685   3.325   0.530   6.427  0.7710  1.8327 -0.0492
 3090TIP3    H230686   3.176   0.514   6.407  1.1520 -1.4267 -0.8652
 3091TIP3   OH230687   6.699   2.713   6.379  0.6462 -0.2137 -0.2057
 3091TIP3    H130688   6.677   2.780   6.315  1.0532  1.0119  0.9066
 3091TIP3    H230689   6.770   2.750   6.431  2.0443 -2.1633 -0.5930
 3092TIP3   OH230690   1.376   1.580  12.232  0.0929  0.0588 -0.5953
 3092TIP3    H130691   1.461   1.542  12.252  1.4674  2.6916 -1.0567
 3092TIP3    H230692   1.319   1.504  12.215  1.2841 -1.9882  3.3507
 3093TIP3   OH230693   5.672   2.950  15.250 -0.3576  0.9769  0.5352
 3093TIP3    H130694   5.584   2.918  15.273 -0.3986 -1.3196 -2.1829
 3093TIP3    H230695   5.655   3.020  15.187 -0.3935 -0.8319 -1.6077
 3094TIP3   OH230696   1.377   4.759   2.687  0.2097 -0.1514 -0.1222
 3094TIP3    H130697   1.356   4.833   2.743 -1.4715  0.2268 -1.2059
 3094TIP3    H230698   1.452   4.717   2.731 -0.0631  1.0067  1.5530
 3095TIP3   OH230699   0.768   5.552   5.162 -0.5301 -0.0574 -0.0542
 3095TIP3    H130700   0.731   5.561   5.250 -1.6491  0.5966 -0.5730
 3095TIP3    H230701   0.794   5.640   5.137  0.3650 -0.3353 -0.1547
 3096TIP3   OH230702   4.846   4.462   2.753 -0.0284 -0.2190 -0.2336
 3096TIP3    H130703   4.869   4.526   2.821  1.5361 -2.3254  1.3419
 3096TIP3    H230704   4.801   4.392   2.800  0.2985 -1.3216 -1.5176
 3097TIP3   OH230705   4.779   0.106  14.813 -0.5463  0.2239  0.0393
 3097TIP3    H130706   4.813   0.020  14.787 -1.6762 -0.5384  0.9986
 3097TIP3    H230707   4.830   0.129  14.891  0.3467  0.8578 -0.6953
 3098TIP3   OH230708   5.521   0.636   4.170  0.1911  0.6029 -0.1256
 3098TIP3    H130709   5.597   0.694   4.173 -0.6054  1.6949 -0.6020
 3098TIP3    H230710   5.517   0.606   4.079 -0.8803  1.8553 -0.5212
 3099TIP3   OH230711   0.715   2.463   1.927 -0.4481  0.3602 -0.6259
 3099TIP3    H130712   0.657   2.466   2.003  0.4213 -1.3603  0.1573
 3099TIP3    H230713   0.682   2.391   1.874  0.5535 -0.2134 -0.5016
 3100TIP3   OH230714   6.106   2.991  15.124 -0.0367  0.2276 -0.3713
 3100TIP3    H130715   6.177   3.040  15.166 -0.1807 -0.1668  0.3358
 3100TIP3    H230716   6.028   3.014  15.175 -0.6160  1.3748 -1.6820
 3101TIP3   OH230717   6.579   4.062  17.169  0.6778 -0.4174  0.4003
 3101TIP3    H130718   6.611   4.137  17.120 -1.7588 -0.8872 -2.1960
 3101TIP3    H230719   6.583   4.089  17.260  1.2334  2.2967 -0.3345
 3102TIP3   OH230720   6.793   0.072   1.760  0.1035 -0.0868 -0.0830
 3102TIP3    H130721   6.709   0.078   1.716 -1.1747 -0.3266  2.1801
 3102TIP3    H230722   6.848   0.021   1.701 -1.7689 -1.0899 -1.0242
 3103TIP3   OH230723   1.268   0.498   6.081  0.3921  0.2650 -0.3544
 3103TIP3    H130724   1.249   0.406   6.096  2.6567 -0.6963 -2.6371
 3103TIP3    H230725   1.334   0.520   6.147  1.9247 -0.6245 -1.5309
 3104TIP3   OH230726   4.708   2.284   1.095 -1.0402  0.1891 -0.3210
 3104TIP3    H130727   4.748   2.311   1.012 -0.9802 -0.4589 -0.5081
 3104TIP3    H230728   4.614   2.300   1.082 -1.1837 -1.0724 -0.9867
 3105TIP3   OH230729   2.153   3.069  14.825 -0.1760  0.1425 -0.9201
 3105TIP3    H130730   2.184   3.154  14.793 -0.4974  0.5655 -0.1647
 3105TIP3    H230731   2.146   3.082  14.920  0.0593 -0.8284 -0.7674
 3106TIP3   OH230732   3.395   3.977   4.418  0.3693  0.0580  0.2116
 3106TIP3    H130733   3.317   4.032   4.419  0.3012 -0.0358  0.1013
 3106TIP3    H230734   3.369   3.900   4.368  1.0226  0.7594 -1.2869
 3107TIP3   OH230735   0.582   3.898  15.462 -0.2425 -0.0200 -0.0915
 3107TIP3    H130736   0.594   3.933  15.550  0.8524 -0.3516 -0.0986
 3107TIP3    H230737   0.649   3.941  15.410  0.0171 -0.8563 -0.4621
 3108TIP3   OH230738   4.712   5.796  15.162 -0.3533 -0.3186  0.3537
 3108TIP3    H130739   4.616   5.804  15.165 -0.2722  0.6654  0.7058
 3108TIP3    H230740   4.736   5.766  15.250 -0.4641 -2.3616 -0.2723
 3109TIP3   OH230741   4.161   0.398   0.664  0.4680 -0.3469 -0.1133
 3109TIP3    H130742   4.085   0.434   0.709  0.1117  0.5931 -1.3984
 3109TIP3    H230743   4.132   0.311   0.635  0.9931 -1.3390  2.1226
 3110TIP3   OH230744   6.126   0.919   4.923 -0.3426  0.5372  0.4288
 3110TIP3    H130745   6.198   0.884   4.975 -0.6011 -1.2388 -0.3357
 3110TIP3    H230746   6.053   0.925   4.985 -0.5206 -1.1195  0.4128
 3111TIP3   OH230747   5.109   2.027   4.112 -0.3162 -0.4741 -0.3163
 3111TIP3    H130748   5.084   2.116   4.089  1.7398  0.0946 -0.5451
 3111TIP3    H230749   5.205   2.029   4.117  0.0140 -3.2199 -2.7819
 3112TIP3   OH230750   5.839   6.113  16.461  0.0164  0.0986  0.5650
 3112TIP3    H130751   5.793   6.072  16.388 -0.0769  2.0058 -0.5099
 3112TIP3    H230752   5.778   6.106  16.534 -1.7504  1.8832 -0.6249
 3113TIP3   OH230753   6.341   0.828  15.133 -0.1586  0.2561  0.1019
 3113TIP3    H130754   6.364   0.917  15.105  0.1955  0.1888  0.1776
 3113TIP3    H230755   6.369   0.772  15.060  0.2587  0.1369  0.3520
 3114TIP3   OH230756   6.502   0.387   0.295 -0.4873  0.4784  0.1908
 3114TIP3    H130757   6.464   0.302   0.274 -1.5194  0.8943  0.2904
 3114TIP3    H230758   6.514   0.430   0.210  0.2143  0.1620  0.1282
 3115TIP3   OH230759   1.758   0.016  15.423  0.1900  0.4765  0.0927
 3115TIP3    H130760   1.770   0.069  15.502  1.5695 -0.3674  0.4777
 3115TIP3    H230761   1.794   0.071  15.352  0.4539  0.5780  0.3018
 3116TIP3   OH230762   6.229   5.779  12.129  0.3299  0.4083  0.4065
 3116TIP3    H130763   6.237   5.685  12.112  0.7367  0.5042  0.0446
 3116TIP3    H230764   6.242   5.820  12.043 -2.2683  0.6971  0.0687
 3117TIP3   OH230765   5.425   6.593   5.263  0.3930  0.6485 -0.4493
 3117TIP3    H130766   5.378   6.555   5.189 -0.3233 -1.8589  1.1572
 3117TIP3    H230767   5.467   6.518   5.305  0.0182  1.8257  2.1945
 3118TIP3   OH230768   5.045   4.202  15.193 -0.0999 -0.5802  0.5137
 3118TIP3    H130769   5.052   4.210  15.288  1.4825  2.1357  0.2753
 3118TIP3    H230770   5.062   4.291  15.160  1.7873 -1.8743 -2.3976
 3119TIP3   OH230771   4.229   2.397  11.189  0.1372 -1.0242  0.2693
 3119TIP3    H130772   4.139   2.425  11.205  0.3777  0.8821 -1.2328
 3119TIP3    H230773   4.221   2.322  11.130 -0.4777 -0.5289 -0.2852
 3120TIP3   OH230774   5.501   6.127  13.067 -0.0135 -0.2158  0.5388
 3120TIP3    H130775   5.497   6.192  12.996 -0.9107 -0.2448  0.5571
 3120TIP3    H230776   5.469   6.046  13.027 -1.2004 -0.0671  1.1534
 3121TIP3   OH230777   0.190   1.955   4.705  0.8462  0.7179 -0.2594
 3121TIP3    H130778   0.127   2.025   4.691  1.8040  1.7017  0.1478
 3121TIP3    H230779   0.147   1.895   4.767  0.0322  0.9686 -0.5826
 3122TIP3   OH230780   5.108   4.289  12.493  0.4066  0.3295 -0.3098
 3122TIP3    H130781   5.159   4.320  12.568  2.4397 -1.2868 -0.9333
 3122TIP3    H230782   5.055   4.218  12.528  0.5676  0.2642 -0.1950
 3123TIP3   OH230783   6.577   6.660   4.263  0.1015 -0.0709 -0.0181
 3123TIP3    H130784   6.578   6.564   4.256  0.4039 -0.0975  0.3786
 3123TIP3    H230785   6.507   6.679   4.326  0.6266 -0.0800  0.5795
 3124TIP3   OH230786   3.231   0.294   2.220  0.0122  0.1441  0.0969
 3124TIP3    H130787   3.269   0.379   2.241 -0.7548 -0.1345  3.0027
 3124TIP3    H230788   3.139   0.302   2.245 -0.5668 -0.9759 -1.4519
 3125TIP3   OH230789   4.485   5.008  16.448  0.1452 -0.0924  0.2947
 3125TIP3    H130790   4.502   4.951  16.523 -0.0756  1.2825  1.4432
 3125TIP3    H230791   4.510   5.096  16.478  0.0811  0.4944 -1.2546
 3126TIP3   OH230792   3.058   4.517   1.874 -0.2517  0.3027  0.1957
 3126TIP3    H130793   3.093   4.561   1.796  0.5351 -0.8278 -0.1133
 3126TIP3    H230794   3.136   4.484   1.919 -0.7324  0.6120  1.2667
 3127TIP3   OH230795   3.366   1.151  12.372  0.2388  0.3421  0.2614
 3127TIP3    H130796   3.368   1.233  12.324 -2.0063 -0.4633 -1.3882
 3127TIP3    H230797   3.368   1.176  12.464  1.3234  2.1106 -0.2053
 3128TIP3   OH230798   4.645   1.894  15.445  0.0890  0.4793  0.5953
 3128TIP3    H130799   4.591   1.945  15.385 -0.7845 -0.9372  0.1574
 3128TIP3    H230800   4.630   1.935  15.531 -0.6509  0.8993  0.2716
 3129TIP3   OH230801   6.185   2.976  10.776  0.2407 -0.9537  0.1066
 3129TIP3    H130802   6.155   2.889  10.802 -2.9582  0.0539  0.2621
 3129TIP3    H230803   6.105   3.029  10.774  1.8240  1.5805 -1.6655
 3130TIP3   OH230804   3.461   5.727  16.246 -0.1937 -0.2951  0.1403
 3130TIP3    H130805   3.495   5.682  16.323  0.0745 -0.6080 -0.1541
 3130TIP3    H230806   3.409   5.661  16.200 -0.1147 -0.1952 -0.0956
 3131TIP3   OH230807   4.032   4.991  13.107  0.2049 -0.7059  0.6481
 3131TIP3    H130808   3.937   5.000  13.100  0.3554  1.3061  0.6251
 3131TIP3    H230809   4.053   5.020  13.196  0.8275 -0.9173  0.5794
 3132TIP3   OH230810   0.127   2.306   3.460  0.7718 -0.5796 -0.0313
 3132TIP3    H130811   0.172   2.281   3.541  0.1062  1.6212  1.1057
 3132TIP3    H230812   0.043   2.260   3.466  1.3661 -1.7362 -0.3170
 3133TIP3   OH230813   3.636   1.352  15.369  0.1918  0.4851  0.0182
 3133TIP3    H130814   3.687   1.273  15.348  1.7237  1.2439  0.7350
 3133TIP3    H230815   3.558   1.319  15.412 -1.0442 -0.8691 -2.9280
 3134TIP3   OH230816   5.019   3.664  13.843 -0.1072  0.0974 -0.2859
 3134TIP3    H130817   5.085   3.673  13.912  1.0842  0.5427 -1.4288
 3134TIP3    H230818   5.045   3.585  13.796 -1.0760 -0.3617 -0.0627
 3135TIP3   OH230819   6.287   6.682  13.567  0.4216 -0.3195 -0.4223
 3135TIP3    H130820   6.250   6.643  13.646 -1.4392  1.0616 -0.5546
 3135TIP3    H230821   6.248   6.633  13.495 -1.1209  1.0230 -0.5571
 3136TIP3   OH230822   0.849   6.140   2.793 -0.1787 -0.0600  0.4981
 3136TIP3    H130823   0.863   6.182   2.708  0.5359 -1.5960 -0.1935
 3136TIP3    H230824   0.758   6.156   2.814  0.0155  1.6055  0.1601
 3137TIP3   OH230825   4.356   0.831   1.090 -0.2000 -0.0446 -0.4049
 3137TIP3    H130826   4.340   0.854   1.181  0.6173  1.7213 -0.6608
 3137TIP3    H230827   4.386   0.740   1.092 -0.8954 -0.2601  0.9951
 3138TIP3   OH230828   4.736   0.390  16.539 -0.4108 -0.3791  0.3141
 3138TIP3    H130829   4.735   0.366  16.631 -0.1510  2.2417  1.0895
 3138TIP3    H230830   4.647   0.419  16.520 -0.6835 -1.6782 -0.5357
 3139TIP3   OH230831   0.684   6.575   2.770  0.6821  0.0991 -0.6415
 3139TIP3    H130832   0.695   6.517   2.695  0.7060 -1.4544  0.5231
 3139TIP3    H230833   0.708   6.522   2.846 -1.1776  0.9994  0.6603
 3140TIP3   OH230834   1.745   1.689   6.060 -0.2126  0.2487 -0.4600
 3140TIP3    H130835   1.662   1.644   6.044 -0.5435  0.4319  0.6809
 3140TIP3    H230836   1.811   1.619   6.060 -0.5567 -0.0830  0.0477
 3141TIP3   OH230837   3.264   0.549  11.958 -0.1766 -0.4752 -0.4634
 3141TIP3    H130838   3.334   0.487  11.978  1.5040  1.2831 -0.6193
 3141TIP3    H230839   3.240   0.530  11.867  0.2531 -0.9515 -0.4795
 3142TIP3   OH230840   2.720   6.154  15.328  0.0143 -0.4040  0.4836
 3142TIP3    H130841   2.735   6.248  15.317  1.8509 -0.4585  1.9383
 3142TIP3    H230842   2.626   6.142  15.315 -0.2244  1.5930  0.0996
 3143TIP3   OH230843   3.971   6.475  11.329 -0.0213  0.8799 -0.0863
 3143TIP3    H130844   3.978   6.381  11.344  1.2943  1.2077  1.8433
 3143TIP3    H230845   3.882   6.497  11.356 -0.0948  0.3040  0.1625
 3144TIP3   OH230846   6.352   2.668   6.574 -0.2061  0.8528 -0.2059
 3144TIP3    H130847   6.275   2.711   6.609 -0.7087  0.5848 -0.9319
 3144TIP3    H230848   6.394   2.627   6.649  0.5951  3.0236  0.5888
 3145TIP3   OH230849   0.078   1.633   3.811 -0.3222 -0.0621 -0.5366
 3145TIP3    H130850   0.128   1.661   3.888  2.0212 -0.7303 -1.7278
 3145TIP3    H230851   0.047   1.715   3.772  0.8866  0.4815 -0.4084
 3146TIP3   OH230852   1.697   6.090   2.167 -0.4043  0.0375 -0.2393
 3146TIP3    H130853   1.620   6.096   2.224 -1.1567  0.0909 -1.2439
 3146TIP3    H230854   1.746   6.170   2.184  1.0426 -1.2853  2.6106
 3147TIP3   OH230855   6.128   6.518  10.732 -0.1728 -0.3703  0.1819
 3147TIP3    H130856   6.200   6.553  10.680  0.7961 -3.6990 -0.9902
 3147TIP3    H230857   6.156   6.530  10.823  1.1749 -0.2718 -0.2282
 3148TIP3   OH230858   6.379   5.049  14.014  0.1256 -0.6148  0.1047
 3148TIP3    H130859   6.284   5.035  14.024  0.1294 -0.3485  0.5555
 3148TIP3    H230860   6.386   5.126  13.957 -0.0255  1.7433  2.9889
 3149TIP3   OH230861   6.042   3.259   1.760 -0.2073  0.0490  0.2202
 3149TIP3    H130862   5.957   3.236   1.724  0.4320  0.2669 -1.5033
 3149TIP3    H230863   6.033   3.242   1.854 -2.0192 -0.2720  0.0305
 3150TIP3   OH230864   6.680   3.051  14.770 -0.2682 -0.3374 -0.4436
 3150TIP3    H130865   6.613   3.016  14.829 -1.1216 -0.4199 -1.4557
 3150TIP3    H230866   6.723   2.973  14.733 -0.2071 -0.2881 -0.4767
 3151TIP3   OH230867   3.319   4.831   5.631  0.0500  0.3656 -0.6155
 3151TIP3    H130868   3.315   4.870   5.718  1.2903 -1.0860  0.1560
 3151TIP3    H230869   3.310   4.737   5.647 -2.1816  0.2012 -2.3159
 3152TIP3   OH230870   6.113   6.765   5.569 -0.0031  0.2081  0.2125
 3152TIP3    H130871   6.080   6.818   5.641 -0.3015  0.6680 -0.2500
 3152TIP3    H230872   6.062   6.794   5.493  1.8414  1.3602 -0.6559
 3153TIP3   OH230873   5.475   2.407   0.115  0.1424 -0.8315 -0.3242
 3153TIP3    H130874   5.383   2.407   0.141  0.3127 -1.6163  0.3484
 3153TIP3    H230875   5.500   2.314   0.118  1.2841 -0.5176  0.7783
 3154TIP3   OH230876   4.676   3.897   3.094 -0.5090 -0.6739  0.1188
 3154TIP3    H130877   4.766   3.889   3.062  0.3086  1.2026  1.7633
 3154TIP3    H230878   4.632   3.949   3.026 -0.3483 -1.4902 -0.6311
 3155TIP3   OH230879   1.024   6.332  16.918  0.4066 -0.0401  0.3333
 3155TIP3    H130880   1.116   6.303  16.921 -0.1471 -1.9006  0.8052
 3155TIP3    H230881   0.988   6.286  16.842 -0.0452  1.0289 -0.1121
 3156TIP3   OH230882   5.902   0.771  16.890  0.2172 -0.4055  0.1092
 3156TIP3    H130883   5.950   0.832  16.947 -0.1706 -0.8867  0.9741
 3156TIP3    H230884   5.911   0.686  16.933  1.6456 -1.1905 -1.6342
 3157TIP3   OH230885   3.874   0.965  14.381  0.3965 -0.1111 -0.0381
 3157TIP3    H130886   3.942   0.916  14.428  0.3565 -1.4046 -1.2976
 3157TIP3    H230887   3.922   1.032  14.332  0.7023 -0.5678 -0.3657
 3158TIP3   OH230888   5.621   2.446   2.850  0.0366  0.2126 -0.2701
 3158TIP3    H130889   5.712   2.472   2.834  0.1447 -0.1851 -0.3184
 3158TIP3    H230890   5.570   2.494   2.785  0.3175 -0.2805 -0.8665
 3159TIP3   OH230891   1.184   1.205   0.455 -0.0001 -0.4696  0.0490
 3159TIP3    H130892   1.252   1.149   0.493 -0.8951 -1.9106 -0.4138
 3159TIP3    H230893   1.112   1.146   0.435 -0.6380  0.7012 -1.2932
 3160TIP3   OH230894   0.173   2.708  15.100  0.1796 -0.1423  0.2395
 3160TIP3    H130895   0.238   2.748  15.157 -1.7746  2.1500  1.0891
 3160TIP3    H230896   0.121   2.652  15.157  0.1941 -0.3758  0.0246
 3161TIP3   OH230897   2.242   1.488  13.309 -0.8545 -0.4449 -0.3527
 3161TIP3    H130898   2.239   1.510  13.402  0.0289  0.5685 -0.5477
 3161TIP3    H230899   2.283   1.564  13.267  2.6650 -2.5359 -1.0524
 3162TIP3   OH230900   4.593   6.546   5.458  0.0903 -0.8421 -0.5375
 3162TIP3    H130901   4.652   6.488   5.410  1.4143 -0.7142  0.8624
 3162TIP3    H230902   4.650   6.594   5.518 -1.1630  0.8869 -0.6628
 3163TIP3   OH230903   1.969   0.184   4.904  0.2228 -0.3971  0.7738
 3163TIP3    H130904   2.007   0.167   4.990  3.1267  0.3386 -0.2312
 3163TIP3    H230905   1.976   0.279   4.894  0.7789 -0.5570 -0.5886
 3164TIP3   OH230906   6.421   4.390   4.687  0.0645  0.6087  0.1156
 3164TIP3    H130907   6.399   4.300   4.662  0.7420  0.7700 -1.1129
 3164TIP3    H230908   6.371   4.405   4.767  0.1687 -0.9654  0.5199
 3165TIP3   OH230909   4.608   0.871  14.555  0.9989  0.0807  0.1266
 3165TIP3    H130910   4.606   0.792  14.609  3.0393 -0.9282 -1.1230
 3165TIP3    H230911   4.608   0.837  14.465  1.7161  1.5156 -0.4371
 3166TIP3   OH230912   5.057   5.156   5.645 -0.1651  0.2043 -0.7282
 3166TIP3    H130913   4.995   5.189   5.580 -0.1169  1.5802 -0.1201
 3166TIP3    H230914   5.010   5.163   5.728  0.0303 -0.8478 -0.5236
 3167TIP3   OH230915   6.046   1.840  17.017 -0.7251  0.6560  0.3624
 3167TIP3    H130916   6.129   1.858  17.059 -0.9835  0.6971  0.8661
 3167TIP3    H230917   5.983   1.897  17.061 -0.8804  1.2075 -0.5546
 3168TIP3   OH230918   3.193   1.937  13.631 -0.3387  0.0997 -0.7360
 3168TIP3    H130919   3.236   2.017  13.602  0.0943  1.2597  2.6629
 3168TIP3    H230920   3.105   1.941  13.592  0.4610  0.9076 -2.5857
 3169TIP3   OH230921   2.043   0.932   3.146  0.2543 -0.3691  0.1229
 3169TIP3    H130922   1.999   1.013   3.173  0.8865  0.2278 -0.5634
 3169TIP3    H230923   1.974   0.866   3.146 -0.8237  0.6728 -1.5795
 3170TIP3   OH230924   6.530   2.867  12.388  0.2762  0.2369 -0.5572
 3170TIP3    H130925   6.577   2.940  12.426 -1.1962  0.5624  0.7693
 3170TIP3    H230926   6.569   2.789  12.428 -0.0451  0.4779  0.2430
 3171TIP3   OH230927   0.731   0.386  14.091  0.2419  0.0721  0.3404
 3171TIP3    H130928   0.671   0.331  14.040  0.8160 -0.1584 -0.0916
 3171TIP3    H230929   0.726   0.472  14.049  1.2763 -0.2985 -0.6014
 3172TIP3   OH230930   5.683   1.541  15.974 -0.0726  0.2973  0.5315
 3172TIP3    H130931   5.769   1.574  16.002  0.3044 -0.6892  0.5502
 3172TIP3    H230932   5.655   1.605  15.908  1.8845 -0.7209 -1.4425
 3173TIP3   OH230933   1.183   1.164   3.638 -0.9569 -0.2832  0.7351
 3173TIP3    H130934   1.273   1.193   3.627 -1.1948  0.9664  1.7895
 3173TIP3    H230935   1.177   1.137   3.729 -1.8114  0.3246  0.8749
 3174TIP3   OH230936   2.610   0.399  11.439 -0.3597 -0.1400  0.0845
 3174TIP3    H130937   2.635   0.416  11.529 -0.5404  0.9863 -0.0611
 3174TIP3    H230938   2.689   0.415  11.388 -0.6790  0.8946 -0.1142
 3175TIP3   OH230939   6.703   5.236  15.954 -0.6232 -0.5121  0.4442
 3175TIP3    H130940   6.789   5.195  15.950 -1.1863 -1.7347  0.1882
 3175TIP3    H230941   6.649   5.183  15.896 -1.6527 -0.0312  0.9348
 3176TIP3   OH230942   3.096   6.481   5.732 -0.2253  0.0405 -0.4623
 3176TIP3    H130943   3.185   6.470   5.700  2.0434  3.6314  3.5072
 3176TIP3    H230944   3.093   6.429   5.812 -1.4876  0.3978 -0.2568
 3177TIP3   OH230945   5.111   5.559  16.622 -0.0468  0.3983  0.2606
 3177TIP3    H130946   5.108   5.538  16.716  0.6677 -0.6413  0.0709
 3177TIP3    H230947   5.079   5.480  16.579  1.9468 -0.0936 -0.4473
 3178TIP3   OH230948   0.456   1.605   3.057 -0.0887  0.8601  0.0864
 3178TIP3    H130949   0.533   1.661   3.042 -0.4766  1.1297 -0.9906
 3178TIP3    H230950   0.482   1.520   3.023  0.0775  0.6880  0.6343
 3179TIP3   OH230951   3.189   3.602  10.645  0.0563  0.1294  0.1061
 3179TIP3    H130952   3.184   3.528  10.585 -1.5690  0.3097 -0.0341
 3179TIP3    H230953   3.098   3.629  10.657  0.6549  2.8599 -0.7614
 3180TIP3   OH230954   3.127   6.785  13.124  0.3670 -0.2149 -0.6011
 3180TIP3    H130955   3.182   6.719  13.168  1.3660 -0.1756 -1.7295
 3180TIP3    H230956   3.181   6.863  13.122  0.7458 -0.4923 -2.7351
 3181TIP3   OH230957   4.467   4.908   1.362  0.3523  0.1737 -0.0860
 3181TIP3    H130958   4.391   4.966   1.362 -1.9131 -2.5583 -0.2527
 3181TIP3    H230959   4.473   4.875   1.272 -0.0280 -1.6717  0.5121
 3182TIP3   OH230960   6.123   1.597  12.331  0.2684  0.1358 -0.5415
 3182TIP3    H130961   6.054   1.662  12.346  1.2756  1.2174 -0.4849
 3182TIP3    H230962   6.147   1.567  12.419 -2.1075 -2.4585 -0.6325
 3183TIP3   OH230963   1.117   5.049   2.248  0.0065 -0.0262  0.1719
 3183TIP3    H130964   1.092   5.121   2.190  0.5166 -0.9807 -1.3050
 3183TIP3    H230965   1.055   5.053   2.320 -0.9241  0.9560 -0.6502
 3184TIP3   OH230966   4.504   2.781   3.458  0.2840 -0.0683  0.4488
 3184TIP3    H130967   4.576   2.843   3.449 -0.1777  0.2956 -0.9493
 3184TIP3    H230968   4.545   2.695   3.450  0.4810  0.1532 -1.3147
 3185TIP3   OH230969   2.338   2.666   1.921 -0.2009 -0.3190 -0.0251
 3185TIP3    H130970   2.357   2.574   1.902 -0.8886 -0.2105 -1.3495
 3185TIP3    H230971   2.242   2.670   1.924 -0.1611  0.1034  1.4643
 3186TIP3   OH230972   6.684   3.494  16.940  0.8162  0.2429  0.3308
 3186TIP3    H130973   6.716   3.410  16.974 -0.7341 -0.4612  0.1306
 3186TIP3    H230974   6.708   3.557  17.008  1.0291 -0.5483  1.0126
 3187TIP3   OH230975   6.153   4.415   1.254  0.0454  0.3725 -0.2246
 3187TIP3    H130976   6.214   4.488   1.246 -1.5492  1.8000  0.0258
 3187TIP3    H230977   6.206   4.343   1.287  1.7051  1.3594 -0.6133
 3188TIP3   OH230978   2.090   6.098  14.950 -0.3921 -0.4803 -0.1560
 3188TIP3    H130979   2.001   6.062  14.952  0.1526 -1.8758  1.0965
 3188TIP3    H230980   2.119   6.094  15.041  1.1081 -0.4658 -0.6114
 3189TIP3   OH230981   0.326   1.533   3.303  0.5175  0.1430 -0.5619
 3189TIP3    H130982   0.378   1.542   3.223 -2.1145  0.7280 -2.2947
 3189TIP3    H230983   0.300   1.441   3.304  0.8078  0.0622 -0.1873
 3190TIP3   OH230984   0.552   6.169   1.527  0.5830 -0.2578  0.4766
 3190TIP3    H130985   0.589   6.116   1.456  0.4034 -0.0787  0.2451
 3190TIP3    H230986   0.499   6.235   1.482 -1.1072 -1.3184  0.8459
 3191TIP3   OH230987   2.013   3.838   6.030  0.1342  0.1410 -0.3253
 3191TIP3    H130988   1.979   3.863   6.116 -0.2907  0.7764 -0.6686
 3191TIP3    H230989   2.107   3.852   6.037  0.4846 -2.2263  0.8347
 3192TIP3   OH230990   1.372   4.399   0.292 -0.1925 -0.0457  0.3678
 3192TIP3    H130991   1.344   4.490   0.280  2.3133  0.6360 -0.9598
 3192TIP3    H230992   1.416   4.399   0.377 -0.8553 -0.2121  0.7150
 3193TIP3   OH230993   3.183   0.534  15.839 -0.3978  0.1699 -0.4483
 3193TIP3    H130994   3.098   0.516  15.880 -0.4668  1.8508  0.1957
 3193TIP3    H230995   3.200   0.626  15.857  1.4195 -0.0444 -0.8630
 3194TIP3   OH230996   4.427   4.839   4.670  0.1125  0.3465  0.2093
 3194TIP3    H130997   4.478   4.797   4.739  0.4028 -0.1191 -0.2782
 3194TIP3    H230998   4.436   4.781   4.594 -2.4677 -0.6203  0.5363
 3195TIP3   OH230999   6.558   0.414  16.696  0.3656 -0.1472 -0.5474
 3195TIP3    H131000   6.598   0.358  16.763 -0.5521  1.0565  1.0756
 3195TIP3    H231001   6.565   0.363  16.615  0.3066 -2.2440  0.6949
 3196TIP3   OH231002   6.274   1.914  14.595 -0.5833  0.0413  0.4166
 3196TIP3    H131003   6.283   1.913  14.499 -0.7306 -1.4357  0.3949
 3196TIP3    H231004   6.364   1.906  14.627 -0.7195 -3.4804  0.3079
 3197TIP3   OH231005   2.238   0.331   1.974 -0.3657 -0.5379 -0.5793
 3197TIP3    H131006   2.184   0.312   1.898  0.6287 -0.0335 -1.4412
 3197TIP3    H231007   2.327   0.306   1.948 -0.3242 -2.7282  1.3080
 3198TIP3   OH231008   5.076   1.955  14.406 -0.3318 -0.2634  0.0182
 3198TIP3    H131009   5.087   2.041  14.447  0.8718  0.2251 -1.2243
 3198TIP3    H231010   5.115   1.894  14.468  3.1338  0.6422 -0.9832
 3199TIP3   OH231011   6.014   2.325  10.864  0.4393 -0.6184  0.0903
 3199TIP3    H131012   6.053   2.409  10.889 -1.1211  0.5035 -1.0876
 3199TIP3    H231013   6.083   2.281  10.814  1.0422  0.2422  0.1353
 3200TIP3   OH231014   0.355   4.977  11.103 -0.6997  0.0079 -0.1566
 3200TIP3    H131015   0.380   4.885  11.095 -1.9365 -0.2101 -2.1970
 3200TIP3    H231016   0.331   4.988  11.195  0.3384 -1.4602  0.3195
 3201TIP3   OH231017   3.612   6.643   6.629 -0.2136  0.1882  0.0417
 3201TIP3    H131018   3.522   6.616   6.647 -0.5550  0.7138 -0.8082
 3201TIP3    H231019   3.649   6.570   6.579  0.7086 -1.2329  2.6096
 3202TIP3   OH231020   3.845   2.470  12.511  0.1532  0.1500  0.4305
 3202TIP3    H131021   3.901   2.399  12.478  1.0231  0.4001  1.3297
 3202TIP3    H231022   3.906   2.532  12.550 -0.7023  0.8231  0.7252
 3203TIP3   OH231023   1.532   5.123  12.328  0.3651 -0.3912  0.0068
 3203TIP3    H131024   1.468   5.169  12.273 -0.0106 -0.9981 -0.0672
 3203TIP3    H231025   1.556   5.187  12.394 -1.6157 -0.6706  1.0901
 3204TIP3   OH231026   4.409   0.293   5.574  0.9936 -0.2519 -0.3878
 3204TIP3    H131027   4.422   0.253   5.488  0.5765 -1.1105 -0.0657
 3204TIP3    H231028   4.433   0.225   5.636 -0.2798 -0.2132  0.1758
 3205TIP3   OH231029   5.410   5.846   0.105 -0.5419 -0.5306  0.1110
 3205TIP3    H131030   5.402   5.752   0.116 -0.9413 -0.4927  0.1433
 3205TIP3    H231031   5.380   5.883   0.188  1.9140 -0.4503  1.0342
 3206TIP3   OH231032   6.386   2.726  15.482  0.5382  0.4084 -0.4978
 3206TIP3    H131033   6.366   2.786  15.555 -1.0153 -1.3756  0.6444
 3206TIP3    H231034   6.471   2.690  15.503 -0.0812 -0.4096  0.7108
 3207TIP3   OH231035   6.582   5.248  11.117 -0.8384  0.4647 -0.1292
 3207TIP3    H131036   6.528   5.224  11.042 -2.3340  0.7730  0.8061
 3207TIP3    H231037   6.546   5.197  11.190 -1.1653  2.1516  0.9436
 3208TIP3   OH231038   0.453   2.215   2.677  0.9304  0.0636  0.5619
 3208TIP3    H131039   0.402   2.250   2.603  3.5872 -0.1832 -1.5892
 3208TIP3    H231040   0.465   2.290   2.735 -0.4393  0.5191  0.2884
 3209TIP3   OH231041   1.402   5.872   3.620 -0.6440 -0.3920  0.1976
 3209TIP3    H131042   1.384   5.839   3.532 -0.0338 -1.3427  0.4028
 3209TIP3    H231043   1.461   5.806   3.657  0.0882  0.6243  0.8774
 3210TIP3   OH231044   4.679   5.589   4.170 -0.1751 -0.4390 -0.4676
 3210TIP3    H131045   4.670   5.645   4.094  2.3303  1.3060  0.4025
 3210TIP3    H231046   4.749   5.528   4.148  0.3347 -0.1436  0.2708
 3211TIP3   OH231047   5.197   4.471   5.106  0.1066  0.3042  0.0586
 3211TIP3    H131048   5.153   4.462   5.021  1.1615  0.4894 -0.5291
 3211TIP3    H231049   5.253   4.548   5.096 -0.9039  1.2756  1.4636
 3212TIP3   OH231050   2.372   2.218  13.385  0.5782 -0.1128 -0.6879
 3212TIP3    H131051   2.283   2.241  13.411  1.1503  1.1281  0.2926
 3212TIP3    H231052   2.377   2.242  13.292 -0.0599 -0.0147 -0.6991
 3213TIP3   OH231053   4.189   1.271  14.721  0.0386 -0.1136 -0.0490
 3213TIP3    H131054   4.097   1.284  14.698 -0.3385 -0.3981  1.2045
 3213TIP3    H231055   4.193   1.180  14.753  1.0919 -0.6470 -1.5605
 3214TIP3   OH231056   2.533   0.744   2.069  0.1038 -0.4053 -0.1816
 3214TIP3    H131057   2.529   0.813   2.135 -1.1299 -1.4759  0.9090
 3214TIP3    H231058   2.442   0.731   2.042  0.5713  0.0032 -2.1425
 3215TIP3   OH231059   3.517   4.701  14.540 -0.0135 -0.6087 -0.7418
 3215TIP3    H131060   3.426   4.672  14.532 -0.8329  0.0119  3.5388
 3215TIP3    H231061   3.514   4.794  14.516 -1.0367 -0.0879  1.1729
 3216TIP3   OH231062   0.226   6.391  14.525 -0.3601 -0.0719 -0.1256
 3216TIP3    H131063   0.159   6.448  14.488 -1.6105 -0.9625  0.6791
 3216TIP3    H231064   0.246   6.430  14.610  0.4754  0.4282 -0.5405
 3217TIP3   OH231065   2.403   6.545   5.951  0.5550 -0.5742  0.6687
 3217TIP3    H131066   2.438   6.540   5.862 -0.6880  0.6362  0.0818
 3217TIP3    H231067   2.478   6.571   6.004  0.9973  0.0933 -0.2490
 3218TIP3   OH231068   2.216   3.714  12.476  0.2813 -0.6695 -0.5303
 3218TIP3    H131069   2.268   3.706  12.556 -0.3983 -0.7956 -0.0913
 3218TIP3    H231070   2.170   3.797  12.484 -3.1551 -2.5209  1.3174
 3219TIP3   OH231071   3.427   5.184   5.460 -0.2613  0.1773 -0.7571
 3219TIP3    H131072   3.503   5.127   5.447  1.5460  1.9824  1.1575
 3219TIP3    H231073   3.459   5.272   5.441 -1.7538  1.0345  0.4777
 3220TIP3   OH231074   5.952   1.706  12.959  0.1555  0.5809  0.2073
 3220TIP3    H131075   5.975   1.771  13.025  2.8152  0.0275 -0.0737
 3220TIP3    H231076   6.036   1.670  12.929 -1.1279 -1.9421 -0.7051
 3221TIP3   OH231077   4.395   1.605   1.176  0.3710 -0.1257  0.4538
 3221TIP3    H131078   4.448   1.539   1.130  0.6458 -0.8619  1.7825
 3221TIP3    H231079   4.459   1.672   1.201  0.1771  0.4068 -0.4471
 3222TIP3   OH231080   3.895   6.135   5.182  0.3332  0.1600  0.3283
 3222TIP3    H131081   3.970   6.193   5.194  1.2012 -0.6295 -1.0042
 3222TIP3    H231082   3.932   6.056   5.143 -0.7902 -1.3775  2.1860
 3223TIP3   OH231083   5.892   2.666  12.053  0.1024  0.2419  0.1014
 3223TIP3    H131084   5.809   2.634  12.016 -0.0243 -2.2247  2.2409
 3223TIP3    H231085   5.867   2.741  12.107 -0.7599 -0.4281  0.6625
 3224TIP3   OH231086   3.134   1.695  14.508 -0.2565  0.1657  0.4165
 3224TIP3    H131087   3.156   1.777  14.463 -0.0536 -0.6391 -0.9930
 3224TIP3    H231088   3.214   1.670  14.554  0.0702  0.1265 -0.1647
 3225TIP3   OH231089   4.840   5.733   0.802  0.1110 -0.5799 -0.2906
 3225TIP3    H131090   4.849   5.828   0.807  0.4321 -0.6199 -0.0289
 3225TIP3    H231091   4.749   5.718   0.778  0.3434 -0.1746 -1.5182
 3226TIP3   OH231092   6.660   3.113  13.836  0.0070 -0.9145  0.2212
 3226TIP3    H131093   6.617   3.195  13.862 -1.2342 -1.0282 -1.3136
 3226TIP3    H231094   6.709   3.086  13.914 -1.0966  0.2828  1.3847
 3227TIP3   OH231095   6.219   1.704  16.143 -0.0783 -0.1832  0.8600
 3227TIP3    H131096   6.241   1.642  16.074  0.6846 -0.4992  1.3744
 3227TIP3    H231097   6.178   1.651  16.211 -0.2340  0.0206  0.9278
 3228TIP3   OH231098   4.159   3.901  11.873  0.1260 -0.1885  0.0923
 3228TIP3    H131099   4.195   3.828  11.923 -0.9730  0.0152  1.2116
 3228TIP3    H231100   4.176   3.978  11.927  0.1143  0.2184 -0.4761
 3229TIP3   OH231101   6.210   1.798   0.482  0.5785 -0.0517  0.0574
 3229TIP3    H131102   6.148   1.727   0.468  0.5195 -0.5770  2.5466
 3229TIP3    H231103   6.292   1.754   0.506  1.2565  0.6906 -0.8081
 3230TIP3   OH231104   5.006   4.864  13.567  0.2753 -0.0806 -0.2045
 3230TIP3    H131105   5.059   4.935  13.531 -0.7866  0.2211 -1.2054
 3230TIP3    H231106   4.926   4.906  13.599 -0.1096 -0.7522 -0.2639
 3231TIP3   OH231107   4.704   2.884  13.065  0.1879  0.7089  0.3397
 3231TIP3    H131108   4.744   2.797  13.063 -0.8294  0.2340  0.1202
 3231TIP3    H231109   4.735   2.922  13.147  2.4679  1.0469 -0.5992
 3232TIP3   OH231110   0.332   4.794   3.053 -0.3095  0.1751  0.0972
 3232TIP3    H131111   0.265   4.852   3.018  1.5684  1.2979 -1.8371
 3232TIP3    H231112   0.286   4.739   3.116 -3.1662  0.4454 -1.6157
 3233TIP3   OH231113   4.140   2.351   3.949 -0.0517 -0.4885  0.2676
 3233TIP3    H131114   4.110   2.321   4.034  0.4024 -0.3337  0.4861
 3233TIP3    H231115   4.209   2.290   3.925  0.3221 -0.1033  0.3469
 3234TIP3   OH231116   2.568   4.163   4.501  0.2588  0.1649  0.0208
 3234TIP3    H131117   2.596   4.073   4.486 -0.9125 -0.0832 -0.7637
 3234TIP3    H231118   2.613   4.188   4.582 -1.1578 -1.9075  1.5568
 3235TIP3   OH231119   4.219   6.167  11.191 -0.1965 -0.0263  0.1235
 3235TIP3    H131120   4.303   6.214  11.188 -1.5909  2.9809  2.3673
 3235TIP3    H231121   4.180   6.183  11.105 -0.7667  3.5461  0.8944
 3236TIP3   OH231122   2.190   5.569  12.419 -0.1496 -0.4334  0.2976
 3236TIP3    H131123   2.107   5.585  12.375 -1.0198 -1.9684  1.2774
 3236TIP3    H231124   2.256   5.609  12.362 -1.5370  0.8010 -0.5041
 3237TIP3   OH231125   3.428   6.565   5.288  0.1926  0.0797  0.2888
 3237TIP3    H131126   3.475   6.640   5.252  0.7362  0.3645  1.5473
 3237TIP3    H231127   3.442   6.571   5.382 -0.9403 -0.8144  0.5307
 3238TIP3   OH231128   2.706   6.019  10.917  0.1358 -0.3180 -0.1347
 3238TIP3    H131129   2.654   6.078  10.972  0.7621  0.0359  0.1014
 3238TIP3    H231130   2.714   6.065  10.833  0.1613 -0.3188 -0.1333
 3239TIP3   OH231131   4.878   4.906   3.039  0.2460 -0.2622  0.0146
 3239TIP3    H131132   4.877   4.979   2.976 -0.3020  0.7693  1.1605
 3239TIP3    H231133   4.943   4.932   3.104  0.6459 -1.2077  0.0020
 3240TIP3   OH231134   0.081   3.028   1.062 -0.5346 -0.2977 -0.1241
 3240TIP3    H131135   0.080   2.985   1.147  2.0348  0.8259  0.5636
 3240TIP3    H231136   0.033   3.110   1.075 -0.2689 -0.1942  0.2052
 3241TIP3   OH231137   5.333   0.801  12.614 -0.1330  0.0191 -0.6208
 3241TIP3    H131138   5.346   0.894  12.632 -1.4308  0.1204 -0.1223
 3241TIP3    H231139   5.330   0.760  12.701  1.9526 -0.7445 -0.8428
 3242TIP3   OH231140   1.286   0.734   0.171  0.2000 -0.0571  0.6338
 3242TIP3    H131141   1.357   0.676   0.143 -0.6337 -1.9154  2.0638
 3242TIP3    H231142   1.208   0.698   0.129 -0.5248 -0.8094  2.5136
 3243TIP3   OH231143   2.336   5.102  13.722  1.2747 -0.5215 -0.0974
 3243TIP3    H131144   2.301   5.175  13.671  1.2475  0.2683  1.0295
 3243TIP3    H231145   2.292   5.107  13.807  0.8681 -2.1819 -0.1683
 3244TIP3   OH231146   0.327   5.161  17.155  0.6876 -0.2058  0.8250
 3244TIP3    H131147   0.385   5.097  17.195 -1.8120 -1.7227  2.3188
 3244TIP3    H231148   0.259   5.177  17.221 -0.1588  2.1152 -0.4746
 3245TIP3   OH231149   5.824   3.873   1.911  0.9098 -0.1230 -0.3871
 3245TIP3    H131150   5.810   3.781   1.888 -1.7995  0.4679 -1.5283
 3245TIP3    H231151   5.735   3.908   1.921  1.8898  1.9196  2.0385
 3246TIP3   OH231152   3.730   1.556  12.752 -0.2865 -0.7720 -0.1838
 3246TIP3    H131153   3.681   1.542  12.671 -1.9346  1.4616  0.3328
 3246TIP3    H231154   3.807   1.607  12.726 -0.5903 -0.4256 -0.4087
 3247TIP3   OH231155   3.283   6.560  13.256 -0.3543  0.2900 -0.0624
 3247TIP3    H131156   3.319   6.543  13.169  1.8090  1.2573  0.5910
 3247TIP3    H231157   3.256   6.474  13.288  0.6277 -0.3581 -0.9216
 3248TIP3   OH231158   1.547   1.428   0.721  0.0767  0.0730 -0.2558
 3248TIP3    H131159   1.590   1.417   0.806  2.3780  0.2251 -1.3008
 3248TIP3    H231160   1.493   1.507   0.731  1.0900  0.6702  0.7932
 3249TIP3   OH231161   2.310   5.716  11.301 -0.1835 -0.0578 -0.4868
 3249TIP3    H131162   2.291   5.806  11.327 -1.3863 -0.4475  0.0602
 3249TIP3    H231163   2.405   5.706  11.313 -0.0711  1.0738 -0.3908
 3250TIP3   OH231164   2.790   6.543  12.832 -0.1185  0.3564 -0.0220
 3250TIP3    H131165   2.854   6.582  12.893 -0.3382  0.6325  0.0352
 3250TIP3    H231166   2.836   6.540  12.748  0.1417  0.0927  0.1266
 3251TIP3   OH231167   6.565   4.672  15.098 -0.5109  0.5613 -0.5277
 3251TIP3    H131168   6.522   4.594  15.132 -1.7746  0.8243 -1.4606
 3251TIP3    H231169   6.510   4.744  15.128  1.4260  1.2695  1.5726
 3252TIP3   OH231170   1.980   6.373  16.921  1.1071 -0.2420  0.3741
 3252TIP3    H131171   2.015   6.462  16.931  0.4731  0.0882 -0.2578
 3252TIP3    H231172   2.057   6.319  16.905  1.4347  0.3149  0.0227
 3253TIP3   OH231173   4.727   5.601   4.977 -0.0096  0.4305 -0.0193
 3253TIP3    H131174   4.643   5.588   5.021  0.8202 -0.6623  1.3218
 3253TIP3    H231175   4.787   5.628   5.046  1.3883 -1.5997 -0.3543
 3254TIP3   OH231176   1.828   1.707  11.907 -0.4982 -0.0107  0.6192
 3254TIP3    H131177   1.894   1.696  11.975 -0.6568  2.5858  1.2842
 3254TIP3    H231178   1.871   1.759  11.839 -1.4424  0.5922  0.4574
 3255TIP3   OH231179   3.340   4.446   0.658 -0.3505 -0.4243 -0.1964
 3255TIP3    H131180   3.433   4.465   0.664 -0.4145  0.3055 -1.2375
 3255TIP3    H231181   3.335   4.368   0.603 -0.3386 -0.6094  0.0660
 3256TIP3   OH231182   1.374   2.721  14.185 -0.1346 -0.1758  0.1090
 3256TIP3    H131183   1.450   2.691  14.235  2.1357  0.3568 -2.7014
 3256TIP3    H231184   1.412   2.771  14.112 -3.2657  0.7411 -1.0676
 3257TIP3   OH231185   3.564   6.543   3.231 -0.3492  0.2380 -0.2295
 3257TIP3    H131186   3.594   6.495   3.308 -1.7841  1.9605  1.4978
 3257TIP3    H231187   3.469   6.534   3.232 -0.3739 -2.5301 -3.8219
 3258TIP3   OH231188   2.582   5.312   5.833  0.1990 -0.3355 -0.3154
 3258TIP3    H131189   2.615   5.230   5.872 -0.7320  0.3105  2.0017
 3258TIP3    H231190   2.519   5.283   5.767  1.1037 -1.4867 -0.7155
 3259TIP3   OH231191   5.297   2.452   5.814  0.2547  0.2797 -0.8588
 3259TIP3    H131192   5.357   2.446   5.889  0.2326  2.2421 -0.6287
 3259TIP3    H231193   5.347   2.500   5.748 -0.5718  0.6857 -1.1954
 3260TIP3   OH231194   0.002   3.217   1.777 -0.6063 -0.2534 -0.3450
 3260TIP3    H131195  -0.059   3.282   1.740 -2.5921 -1.4393  0.6388
 3260TIP3    H231196  -0.017   3.218   1.870  2.3882  0.7386  0.3332
 3261TIP3   OH231197   5.485   3.974   0.584  0.2490  0.1668  0.0650
 3261TIP3    H131198   5.554   3.908   0.591 -0.5353 -0.7538 -0.5345
 3261TIP3    H231199   5.459   3.992   0.674 -0.0221 -0.9090  0.2156
 3262TIP3   OH231200   1.596   3.315   4.914  0.4951 -0.1721  0.9332
 3262TIP3    H131201   1.619   3.225   4.935  2.4967 -0.0044 -0.3346
 3262TIP3    H231202   1.518   3.332   4.966  0.1616 -2.5689  1.3345
 3263TIP3   OH231203   6.480   2.640  14.414 -0.0290  0.2860  0.3462
 3263TIP3    H131204   6.545   2.577  14.384 -1.0941 -0.4256 -0.5442
 3263TIP3    H231205   6.506   2.661  14.504  1.1115 -0.3749  0.1824
 3264TIP3   OH231206   3.942   2.856  11.772  0.7264 -0.1032  0.2713
 3264TIP3    H131207   3.876   2.802  11.814  0.0217 -1.2630 -2.1061
 3264TIP3    H231208   4.020   2.848  11.828  0.1790 -2.3751  0.8101
 3265TIP3   OH231209   0.581   3.228  12.120 -0.3987  0.1667  0.4319
 3265TIP3    H131210   0.668   3.228  12.081 -0.9942  0.5945 -0.9657
 3265TIP3    H231211   0.545   3.142  12.100  0.1739 -0.5445  2.2162
 3266TIP3   OH231212   4.569   6.627  11.771  0.0549 -0.2765  0.7014
 3266TIP3    H131213   4.519   6.649  11.850 -1.1506 -1.4007  0.2724
 3266TIP3    H231214   4.560   6.705  11.716 -1.0594 -0.3752  0.7193
 3267TIP3   OH231215   5.862   4.722  10.578 -0.4607  0.6755 -0.2521
 3267TIP3    H131216   5.824   4.732  10.490 -0.0575 -1.1965 -0.6732
 3267TIP3    H231217   5.924   4.795  10.584 -0.6495  0.9688 -1.4299
 3268TIP3   OH231218   5.493   2.123  11.862 -0.2302  0.1535 -0.4477
 3268TIP3    H131219   5.523   2.107  11.773 -2.8306 -0.2698 -1.3402
 3268TIP3    H231220   5.514   2.215  11.879  1.4686 -0.1085 -0.9421
 3269TIP3   OH231221   1.033   4.500   1.143  0.3795  0.3741  0.2810
 3269TIP3    H131222   1.078   4.578   1.177  0.1253  0.4000  0.5648
 3269TIP3    H231223   0.984   4.467   1.218 -0.5109  0.6588 -0.1651
 3270TIP3   OH231224   4.480   0.864   2.327  0.4395 -0.3373 -0.8186
 3270TIP3    H131225   4.565   0.820   2.335  0.6247 -0.2058 -1.9460
 3270TIP3    H231226   4.449   0.872   2.417  0.8763 -1.8571 -0.5058
 3271TIP3   OH231227   5.985   4.777   1.739  0.5139 -0.4879 -0.0141
 3271TIP3    H131228   6.069   4.811   1.709  0.3035  0.5807  0.5337
 3271TIP3    H231229   5.983   4.687   1.708  0.8265  0.1718 -2.0986
 3272TIP3   OH231230   4.351   0.237  14.325  0.1671 -0.3539  0.8861
 3272TIP3    H131231   4.257   0.227  14.340  0.0665 -0.5304  0.1493
 3272TIP3    H231232   4.381   0.150  14.301  0.1943  0.0509 -0.6118
 3273TIP3   OH231233   1.617   5.977   4.404  0.2918 -0.0212 -0.1644
 3273TIP3    H131234   1.669   5.902   4.435 -0.6212 -0.6980 -0.2200
 3273TIP3    H231235   1.585   5.949   4.318 -0.3939  0.2662 -0.0043
 3274TIP3   OH231236   0.195   5.933  11.738 -0.1938 -0.0118  0.1833
 3274TIP3    H131237   0.177   5.996  11.807 -0.1060  0.9661 -0.6637
 3274TIP3    H231238   0.226   5.855  11.785 -0.6617  0.4306  1.2676
 3275TIP3   OH231239   3.204   2.900  16.209  0.0312 -0.2277  0.8003
 3275TIP3    H131240   3.262   2.911  16.284 -1.5740 -0.4333  2.1383
 3275TIP3    H231241   3.158   2.984  16.203 -0.5515 -0.5492  0.6930
 3276TIP3   OH231242   0.961   3.991  15.576 -0.2057 -0.3122  0.2497
 3276TIP3    H131243   0.974   3.897  15.592  1.5151  0.1118  1.6124
 3276TIP3    H231244   1.047   4.030  15.591 -1.2199  1.6808  1.2715
 3277TIP3   OH231245   5.711   0.311   1.754 -0.1502 -0.3646  0.5801
 3277TIP3    H131246   5.726   0.394   1.799 -0.6408 -0.6936  1.3847
 3277TIP3    H231247   5.751   0.246   1.812 -1.7602 -0.9151  1.1491
 3278TIP3   OH231248   2.007   1.055  11.189  0.4191 -0.0158 -0.3241
 3278TIP3    H131249   2.075   0.994  11.160  1.4805  0.7977  0.3578
 3278TIP3    H231250   1.927   1.002  11.194  1.5682 -1.7201  1.5517
 3279TIP3   OH231251   0.048   1.422  17.160  0.4152 -0.0934 -0.2473
 3279TIP3    H131252   0.047   1.382  17.073  1.6581  0.8039 -0.7146
 3279TIP3    H231253  -0.044   1.433  17.183  0.0246 -2.7449 -0.2848
 3280TIP3   OH231254   6.027   2.364   3.012 -0.1863  0.2450  0.1292
 3280TIP3    H131255   5.973   2.290   2.983  1.2954 -0.5922 -0.5828
 3280TIP3    H231256   6.045   2.345   3.104  0.1134 -0.2426 -0.0254
 3281TIP3   OH231257   4.700   5.098   0.437 -0.6909  0.5940 -0.6451
 3281TIP3    H131258   4.707   5.061   0.524  1.4449  0.3268 -0.8733
 3281TIP3    H231259   4.669   5.187   0.450 -0.3396  0.5680  0.4026
 3282TIP3   OH231260   1.238   6.424  14.216  0.2724  0.2276  0.1138
 3282TIP3    H131261   1.205   6.385  14.297  1.1734  2.2949  1.5841
 3282TIP3    H231262   1.202   6.370  14.146 -1.0277 -1.2913  1.8673
 3283TIP3   OH231263   5.659   4.838   3.620 -0.2314  0.4427 -0.4219
 3283TIP3    H131264   5.702   4.788   3.551 -1.4159  2.5504 -2.8874
 3283TIP3    H231265   5.728   4.895   3.655  0.7440 -1.6756  1.3418
 3284TIP3   OH231266   2.056   2.044  16.289  0.2462 -0.5417  0.6825
 3284TIP3    H131267   1.980   2.024  16.234 -0.4477 -1.6972  2.0098
 3284TIP3    H231268   2.131   2.014  16.237 -0.0344  1.5344 -1.0924
 3285TIP3   OH231269   0.089   6.376  10.442  0.8466 -0.1693  0.3758
 3285TIP3    H131270   0.100   6.358  10.349  1.2851 -1.7819  0.7173
 3285TIP3    H231271   0.157   6.324  10.485  0.4621  0.3211  1.6301
 3286TIP3   OH231272   4.775   4.279  14.940  0.0644 -0.0347 -0.2255
 3286TIP3    H131273   4.777   4.362  14.894 -2.0660 -0.6118 -1.4951
 3286TIP3    H231274   4.747   4.215  14.874 -0.3494 -1.3921  1.1969
 3287TIP3   OH231275   3.522   1.804  12.271 -0.2968 -0.0449 -0.6799
 3287TIP3    H131276   3.535   1.898  12.257 -0.8275  0.5894  2.4088
 3287TIP3    H231277   3.450   1.781  12.213 -1.2769  1.8758 -0.3123
 3288TIP3   OH231278   0.924   1.875  14.005  0.0651 -0.1312  0.1779
 3288TIP3    H131279   0.926   1.847  14.096  1.1082  3.2330  1.3359
 3288TIP3    H231280   1.017   1.879  13.979  0.0830  2.6286  0.3608
 3289TIP3   OH231281   6.092   3.791   6.081 -0.0409 -0.2560 -0.0421
 3289TIP3    H131282   6.092   3.724   6.150 -0.9847 -0.1094  0.1216
 3289TIP3    H231283   6.135   3.866   6.121 -1.0675  0.0135  0.5984
 3290TIP3   OH231284   6.604   3.091  10.826 -0.4803  0.2103  0.2061
 3290TIP3    H131285   6.619   3.150  10.752  0.4739 -0.9769 -0.5747
 3290TIP3    H231286   6.664   3.018  10.811 -0.1149  0.0377  2.2647
 3291TIP3   OH231287   5.000   1.751   4.098 -0.4511 -0.2175 -0.0740
 3291TIP3    H131288   5.055   1.714   4.167 -1.3120 -1.1583  0.1303
 3291TIP3    H231289   5.031   1.841   4.089  1.5201 -0.8770 -0.4017
 3292TIP3   OH231290   5.451   6.595  10.810 -0.1072  0.0711  0.1234
 3292TIP3    H131291   5.520   6.657  10.786 -0.4420  0.5211  0.2940
 3292TIP3    H231292   5.497   6.513  10.828  0.2406 -0.0839 -1.3151
 3293TIP3   OH231293   5.886   1.444   3.154 -0.4132 -0.2076  0.4467
 3293TIP3    H131294   5.796   1.477   3.157 -0.3161  0.0403  0.6258
 3293TIP3    H231295   5.878   1.360   3.109 -0.7502 -0.2308  0.5401
 3294TIP3   OH231296   1.326   3.111  16.798  0.0466 -0.6447 -0.1936
 3294TIP3    H131297   1.328   3.206  16.784  1.4048 -0.4605  1.0090
 3294TIP3    H231298   1.295   3.075  16.715  1.2600  0.7389 -1.3020
 3295TIP3   OH231299   4.992   4.074  13.996 -0.8804  0.0995 -0.6252
 3295TIP3    H131300   4.996   4.072  13.901  0.6396 -0.3631 -0.5696
 3295TIP3    H231301   5.046   4.001  14.025 -3.0414 -1.1247  0.5897
 3296TIP3   OH231302   2.414   2.983   0.423  0.2132 -0.3618 -0.2343
 3296TIP3    H131303   2.349   2.917   0.400 -3.2900  2.8002 -0.3266
 3296TIP3    H231304   2.384   3.019   0.506  1.1552  2.0179 -0.8417
 3297TIP3   OH231305   2.499   1.031   5.542  0.2351  0.8150 -0.1781
 3297TIP3    H131306   2.416   0.983   5.545  0.6323  0.1682  0.7170
 3297TIP3    H231307   2.564   0.967   5.514  0.6008  1.0840  0.0460
 3298TIP3   OH231308   3.884   2.032   3.484  0.6438  0.4295  0.4617
 3298TIP3    H131309   3.885   2.082   3.403 -0.3516  0.4631  0.4510
 3298TIP3    H231310   3.921   1.947   3.461  2.7001  1.2344  0.5613
 3299TIP3   OH231311   0.123   2.018   0.977  0.4257  0.0422  0.2516
 3299TIP3    H131312   0.198   2.041   1.032  0.4014 -1.0441  0.7863
 3299TIP3    H231313   0.159   1.960   0.910  0.1381 -0.1718  0.2773
 3300TIP3   OH231314   3.448   2.560   5.004  0.2457 -0.2626  0.1634
 3300TIP3    H131315   3.380   2.574   5.070 -0.9590 -1.9567 -0.6564
 3300TIP3    H231316   3.404   2.577   4.921  1.4167  0.6390 -0.2981
 3301TIP3   OH231317   3.276   4.010   0.306 -0.7823  0.0312 -0.0303
 3301TIP3    H131318   3.227   4.089   0.328 -0.6337 -0.3025  1.6329
 3301TIP3    H231319   3.354   4.015   0.362  0.0695 -0.4643 -1.1425
 3302TIP3   OH231320   4.766   2.705   4.971 -0.3912  0.5362  0.2587
 3302TIP3    H131321   4.763   2.685   4.878 -1.1592  0.0036  0.3914
 3302TIP3    H231322   4.850   2.667   5.001  0.2285  1.3924 -0.3537
 3303TIP3   OH231323   2.869   2.034  11.239 -0.2040 -0.1177 -0.1805
 3303TIP3    H131324   2.848   2.016  11.147  2.6373 -1.6127 -0.6301
 3303TIP3    H231325   2.862   1.949  11.282 -0.1068  0.3110  0.6890
 3304TIP3   OH231326   3.644   4.835  12.629  0.5174 -0.0390  0.3355
 3304TIP3    H131327   3.683   4.796  12.550 -0.6763 -1.3685  0.3616
 3304TIP3    H231328   3.702   4.908  12.651  1.0535  0.1686 -1.5893
 3305TIP3   OH231329   5.457   1.564   5.274  0.3502 -0.1346 -0.0276
 3305TIP3    H131330   5.545   1.577   5.309  2.1588 -3.9575 -2.5149
 3305TIP3    H231331   5.410   1.520   5.345  1.2994 -0.4733  0.4077
 3306TIP3   OH231332   4.933   0.664   1.799  0.8736 -0.1103  0.2419
 3306TIP3    H131333   4.927   0.701   1.887 -0.7282 -0.8141  0.4591
 3306TIP3    H231334   4.999   0.595   1.806  0.2264 -0.6583  1.0818
 3307TIP3   OH231335   5.763   5.010   4.161 -0.2255  0.1972  0.4495
 3307TIP3    H131336   5.717   5.089   4.189  2.0584  1.6434  0.4332
 3307TIP3    H231337   5.772   5.019   4.066 -0.8293 -0.6075  0.3047
 3308TIP3   OH231338   5.240   3.379   2.937  0.2153  0.5130  0.4678
 3308TIP3    H131339   5.259   3.383   2.843 -0.9584 -1.4390  0.0974
 3308TIP3    H231340   5.210   3.467   2.959 -0.6407  0.6917 -1.2513
 3309TIP3   OH231341   6.242   1.316  13.698 -0.0496 -0.1851 -0.4129
 3309TIP3    H131342   6.217   1.229  13.668  0.5102 -1.6746  2.9995
 3309TIP3    H231343   6.324   1.334  13.653  0.7694 -2.2596  0.1271
 3310TIP3   OH231344   2.263   5.798   6.527 -0.1141 -0.5732  0.3064
 3310TIP3    H131345   2.329   5.743   6.485 -2.1445 -1.1350 -2.4672
 3310TIP3    H231346   2.238   5.861   6.460 -0.4643  1.4295  2.2058
 3311TIP3   OH231347   0.736   4.323  16.346  0.5766 -0.2629 -0.1856
 3311TIP3    H131348   0.779   4.408  16.362  1.0458 -0.4600 -0.3982
 3311TIP3    H231349   0.683   4.337  16.267  0.3263 -0.0528  0.0150
 3312TIP3   OH231350   6.362   5.387  14.132  0.1383  0.3609  0.6475
 3312TIP3    H131351   6.307   5.452  14.088 -0.9266 -1.6862 -1.2209
 3312TIP3    H231352   6.436   5.437  14.165 -1.7648  2.8870  1.3921
 3313TIP3   OH231353   5.093   4.528   3.626  0.1366  0.3876 -0.0195
 3313TIP3    H131354   5.054   4.526   3.539  3.2136 -0.3005 -1.5421
 3313TIP3    H231355   5.109   4.621   3.643 -0.5337  0.5303 -0.1475
 3314TIP3   OH231356   2.742   4.211  13.760 -0.7986  0.3082  0.0229
 3314TIP3    H131357   2.813   4.242  13.704 -1.0356  0.0753 -0.4071
 3314TIP3    H231358   2.783   4.145  13.817 -0.6244  0.3354 -0.0697
 3315TIP3   OH231359   6.434   4.438  11.934 -0.2404 -0.0902 -0.0411
 3315TIP3    H131360   6.426   4.473  12.023  1.3850 -0.2394  0.1962
 3315TIP3    H231361   6.473   4.510  11.883 -0.0926 -0.3931 -0.3585
 3316TIP3   OH231362   2.468   1.178   0.944 -0.7036  0.2579  0.0049
 3316TIP3    H131363   2.494   1.182   0.852 -0.8730 -0.3886 -0.0751
 3316TIP3    H231364   2.453   1.269   0.968  2.5985  0.8442  0.3358
 3317TIP3   OH231365   1.877   1.040  14.955  0.7261  0.3671  0.1011
 3317TIP3    H131366   1.815   0.981  14.998 -0.7905  2.2219  0.5542
 3317TIP3    H231367   1.839   1.056  14.869  1.9663 -0.5409 -0.6492
 3318TIP3   OH231368   6.767   6.509  14.914  0.2670 -0.3824  0.0743
 3318TIP3    H131369   6.775   6.428  14.863 -0.3832  0.0506 -0.7272
 3318TIP3    H231370   6.708   6.486  14.986  2.3663 -1.4279  1.5919
 3319TIP3   OH231371   1.415   3.773   6.085 -0.1039 -0.1583 -0.5644
 3319TIP3    H131372   1.449   3.729   6.163 -0.3323  0.7062  0.0405
 3319TIP3    H231373   1.320   3.767   6.094 -0.1963  2.0185  0.4886
 3320TIP3   OH231374   6.287   0.391   5.538  0.2592  0.2088  0.2345
 3320TIP3    H131375   6.265   0.331   5.466 -0.9557  1.5375 -0.5428
 3320TIP3    H231376   6.213   0.386   5.598  1.1390 -0.6745  1.3009
 3321TIP3   OH231377   0.723   0.394   0.751 -0.0572 -0.3784  0.2238
 3321TIP3    H131378   0.702   0.403   0.844 -1.3864 -0.1945 -0.0690
 3321TIP3    H231379   0.744   0.483   0.722  1.1471 -0.5542  0.5049
 3322TIP3   OH231380   3.854   3.415   1.320  0.0574  0.6418  0.3549
 3322TIP3    H131381   3.769   3.372   1.328  0.5932 -0.4422  0.4409
 3322TIP3    H231382   3.850   3.488   1.382 -0.8444  0.6761  0.2646
 3323TIP3   OH231383   4.297   0.212  12.968  0.2263 -0.2056 -0.4804
 3323TIP3    H131384   4.296   0.124  12.930  0.0181 -1.3401  1.9133
 3323TIP3    H231385   4.205   0.240  12.965  0.2896 -0.0736 -1.2375
 3324TIP3   OH231386   5.986   6.535  16.309  0.1902 -0.1639  0.0348
 3324TIP3    H131387   5.972   6.470  16.378 -0.6121 -0.0333  0.0027
 3324TIP3    H231388   6.005   6.483  16.231  2.2550 -0.3022  0.5538
 3325TIP3   OH231389   4.992   2.127  15.725 -0.4287  0.4040  0.2372
 3325TIP3    H131390   4.909   2.144  15.769 -0.6540  1.4988 -0.5656
 3325TIP3    H231391   5.057   2.176  15.775  0.0565 -1.7407  1.8417
 3326TIP3   OH231392   6.541   3.577  11.441 -0.0930  0.0021  0.0639
 3326TIP3    H131393   6.595   3.500  11.456 -0.6487 -0.5216 -0.5883
 3326TIP3    H231394   6.518   3.573  11.348 -4.4272 -1.9462  0.9365
 3327TIP3   OH231395   2.406   1.411   0.443  0.5045  0.8481  0.1088
 3327TIP3    H131396   2.356   1.481   0.400  0.7645  1.3135  0.5595
 3327TIP3    H231397   2.480   1.396   0.384 -0.5543 -0.4023 -0.9794
 3328TIP3   OH231398   0.239   2.755   0.194  0.0259  0.0723 -0.1082
 3328TIP3    H131399   0.301   2.724   0.128  0.0911 -1.0299  0.4551
 3328TIP3    H231400   0.284   2.741   0.278 -0.0661  1.4160  0.2038
 3329TIP3   OH231401   1.505   2.218  12.143  0.3391 -0.8301 -0.7451
 3329TIP3    H131402   1.466   2.297  12.105 -0.1891 -0.9988 -0.5590
 3329TIP3    H231403   1.522   2.161  12.069  0.0623 -0.8297 -0.8094
 3330TIP3   OH231404   0.247   0.290   0.972 -0.1440  0.1323  0.1873
 3330TIP3    H131405   0.169   0.323   0.927  0.9758  2.2354 -0.3291
 3330TIP3    H231406   0.318   0.302   0.909  1.0172  0.6455  1.5508
 3331TIP3   OH231407   2.913   4.850  12.519  0.1747  0.3467 -0.0869
 3331TIP3    H131408   2.838   4.877  12.466  0.2814  1.7833  0.4557
 3331TIP3    H231409   2.989   4.891  12.478  0.5806 -0.4632 -0.1754
 3332TIP3   OH231410   0.787   5.511   6.227  0.5526  0.3483 -0.4631
 3332TIP3    H131411   0.846   5.440   6.201 -0.6139 -1.1950  0.9103
 3332TIP3    H231412   0.777   5.501   6.322  0.8261  2.7554 -0.1232
 3333TIP3   OH231413   1.760   0.745   2.095 -0.0601  0.7554  0.3076
 3333TIP3    H131414   1.674   0.787   2.083 -0.6537 -0.7425 -0.9862
 3333TIP3    H231415   1.764   0.678   2.027  1.6472 -0.0190  1.1113
 3334TIP3   OH231416   0.959   6.752  11.936  0.3820  0.5158  0.5049
 3334TIP3    H131417   0.963   6.842  11.967  0.2716  0.5443  0.4381
 3334TIP3    H231418   0.871   6.743  11.900  0.1964  0.2084  1.0269
 3335TIP3   OH231419   5.523   0.238  15.194  0.3791 -0.0041 -0.0724
 3335TIP3    H131420   5.503   0.329  15.172  0.6749  0.1998  0.4706
 3335TIP3    H231421   5.501   0.232  15.287 -0.6988 -0.7940 -0.3614
 3336TIP3   OH231422   1.270   3.878   4.230  0.2544 -0.1184  0.0390
 3336TIP3    H131423   1.362   3.875   4.204  0.6666  4.9988 -0.1571
 3336TIP3    H231424   1.272   3.905   4.322 -0.9125  1.6646 -0.3911
 3337TIP3   OH231425   6.157   6.142  11.551 -0.0223 -0.0311  0.0375
 3337TIP3    H131426   6.162   6.082  11.625  0.7710 -0.2638 -0.1934
 3337TIP3    H231427   6.089   6.105  11.495  0.9159 -1.0969 -0.4287
 3338TIP3   OH231428   3.971   2.069  14.162  0.0012  0.6936 -0.3479
 3338TIP3    H131429   4.027   2.145  14.176  1.0837  0.3564 -2.4343
 3338TIP3    H231430   4.029   2.002  14.128 -0.6200 -1.6681  2.8119
 3339TIP3   OH231431   4.016   1.680   4.243  0.0133  0.2414 -0.1939
 3339TIP3    H131432   3.944   1.624   4.273  0.7372 -1.3854 -1.3615
 3339TIP3    H231433   4.091   1.620   4.233  1.0680  1.5817 -0.6507
 3340TIP3   OH231434   3.348   4.143  15.724  0.3558 -0.3740  0.1064
 3340TIP3    H131435   3.350   4.100  15.639 -1.4186 -0.2420 -0.0424
 3340TIP3    H231436   3.290   4.218  15.712  1.1163  0.4011  1.1078
 3341TIP3   OH231437   2.294   2.679  17.078 -0.0914 -0.0624  0.1165
 3341TIP3    H131438   2.198   2.669  17.080 -0.3020  0.7892 -2.3520
 3341TIP3    H231439   2.309   2.767  17.111 -0.1048 -0.3013  0.7833
 3342TIP3   OH231440   6.664   0.946  16.289 -0.1699 -0.0478 -0.3280
 3342TIP3    H131441   6.648   0.880  16.356  2.4244 -2.3580 -1.7675
 3342TIP3    H231442   6.616   0.914  16.212  1.0164 -0.2424 -1.0075
 3343TIP3   OH231443   4.133   1.644   2.380 -0.4440 -0.0025 -0.1168
 3343TIP3    H131444   4.196   1.708   2.347  0.1757 -1.1095 -1.1949
 3343TIP3    H231445   4.093   1.686   2.456  0.7298  1.2146 -0.1333
 3344TIP3   OH231446   2.628   4.146   2.816  0.4642  0.3116  0.5255
 3344TIP3    H131447   2.633   4.242   2.815 -0.4958  0.3700  0.7840
 3344TIP3    H231448   2.536   4.127   2.801  0.9062 -0.6169 -1.2717
 3345TIP3   OH231449   0.825   0.958   3.287  0.1191  0.2330 -0.1901
 3345TIP3    H131450   0.844   0.943   3.379  0.4267  0.4299 -0.2214
 3345TIP3    H231451   0.759   0.892   3.265  0.0656  0.1685  0.1611
 3346TIP3   OH231452   1.111   0.978  13.113 -0.2253 -0.4625  0.1941
 3346TIP3    H131453   1.080   1.056  13.067  1.3856 -1.4174 -2.8468
 3346TIP3    H231454   1.037   0.918  13.111 -0.7716  0.1864  0.5534
 3347TIP3   OH231455   0.850   5.516   0.193  0.0745  0.4818 -0.6846
 3347TIP3    H131456   0.852   5.609   0.214  0.6026  0.1233  1.0890
 3347TIP3    H231457   0.795   5.509   0.115 -1.6534  2.0634  0.3254
 3348TIP3   OH231458   4.084   0.162  14.390  0.0371  0.0467  0.0021
 3348TIP3    H131459   4.031   0.083  14.394 -1.1755  0.8366  3.3860
 3348TIP3    H231460   4.025   0.229  14.356 -0.8511  0.6067  2.4175
 3349TIP3   OH231461   4.862   1.294  14.478  0.0232  0.0309  0.7730
 3349TIP3    H131462   4.790   1.338  14.523 -0.8288 -1.7180  1.1974
 3349TIP3    H231463   4.854   1.202  14.503  0.1951 -0.8518 -2.0311
 3350TIP3   OH231464   3.690   6.450  12.133  0.6922 -0.9341 -1.0118
 3350TIP3    H131465   3.677   6.466  12.040 -3.1392 -2.3246 -0.8584
 3350TIP3    H231466   3.603   6.431  12.168  1.9367 -0.4769  2.9052
 3351TIP3   OH231467   1.164   0.284  15.578 -0.0475  0.3215  0.3577
 3351TIP3    H131468   1.175   0.217  15.511 -0.6840 -0.4489  1.0036
 3351TIP3    H231469   1.069   0.288  15.594  0.1580 -0.2594  1.9299
 3352TIP3   OH231470   4.321   1.882   5.084 -0.5286 -0.3538 -0.3171
 3352TIP3    H131471   4.382   1.851   5.151 -0.0733 -1.4587 -1.2166
 3352TIP3    H231472   4.235   1.857   5.116 -0.3595 -0.4022  0.1040
 3353TIP3   OH231473   5.521   1.283   6.248  0.1464  0.1220  0.3018
 3353TIP3    H131474   5.559   1.198   6.269  3.5624  1.2729 -0.5705
 3353TIP3    H231475   5.538   1.337   6.325  0.2780  0.6602 -0.0946
 3354TIP3   OH231476   0.512   0.658   2.089 -0.2779  0.2051 -0.2564
 3354TIP3    H131477   0.577   0.588   2.100 -0.6032 -0.0416  0.1144
 3354TIP3    H231478   0.562   0.731   2.053  0.5616  0.5609  1.5137
 3355TIP3   OH231479   3.456   4.090  12.151 -0.0700 -0.2905  0.3759
 3355TIP3    H131480   3.544   4.127  12.148  1.2239 -3.1870 -0.0889
 3355TIP3    H231481   3.399   4.167  12.155  2.3872  1.7230 -0.3081
 3356TIP3   OH231482   4.858   1.899  13.410 -0.6816  0.5748 -0.1781
 3356TIP3    H131483   4.826   1.948  13.485 -1.3471 -1.9876  1.3530
 3356TIP3    H231484   4.951   1.887  13.426 -0.5632  1.1087 -0.4417
 3357TIP3   OH231485   4.003   6.405  13.876  0.2360 -0.1199 -0.6747
 3357TIP3    H131486   4.015   6.496  13.849  1.3711 -0.0792 -0.0653
 3357TIP3    H231487   4.014   6.355  13.795 -0.0913  0.2558 -0.9565
 3358TIP3   OH231488   1.242   6.564  13.061 -0.2198  0.0055 -0.3292
 3358TIP3    H131489   1.256   6.619  12.983 -0.4877  1.9332  0.8982
 3358TIP3    H231490   1.148   6.569  13.077  0.1465  2.0436  1.6943
 3359TIP3   OH231491   5.852   2.738  10.865  0.1862  0.3339 -0.7328
 3359TIP3    H131492   5.816   2.684  10.936  0.0738 -0.4192 -1.3422
 3359TIP3    H231493   5.945   2.743  10.884 -0.1548  2.1562  0.7673
 3360TIP3   OH231494   1.120   5.814   1.240  0.1220 -0.1972  0.3468
 3360TIP3    H131495   1.144   5.891   1.292 -0.2943  0.2993 -0.1789
 3360TIP3    H231496   1.036   5.785   1.277 -0.7419  0.8277 -0.7292
 3361TIP3   OH231497   6.516   0.077   2.942  0.3919 -0.0775  0.3152
 3361TIP3    H131498   6.536   0.130   2.865  0.4916  0.1851  0.5170
 3361TIP3    H231499   6.420   0.068   2.941  0.3323  0.4466  0.4908
 3362TIP3   OH231500   3.789   3.677   0.364  0.4868  0.6271 -0.2387
 3362TIP3    H131501   3.877   3.652   0.392  1.0116  0.0467 -2.1856
 3362TIP3    H231502   3.802   3.757   0.312  0.0985 -0.1581 -1.6157
 3363TIP3   OH231503   0.742   3.780   0.802  0.0357  1.0026  0.0606
 3363TIP3    H131504   0.824   3.735   0.824  1.2441  2.0268 -2.0496
 3363TIP3    H231505   0.743   3.787   0.707 -2.1215  1.8482  0.0340
 3364TIP3   OH231506   1.236   0.487   4.814  0.1580  0.0467 -0.3397
 3364TIP3    H131507   1.185   0.542   4.873 -0.2616 -1.2592  0.5830
 3364TIP3    H231508   1.191   0.402   4.816  1.1279 -0.5115 -1.2021
 3365TIP3   OH231509   5.560   5.265  15.419  0.5325 -0.3897 -0.6955
 3365TIP3    H131510   5.646   5.297  15.391 -0.8240  3.0364 -1.4027
 3365TIP3    H231511   5.511   5.255  15.338 -0.4451 -0.0609 -0.1527
 3366TIP3   OH231512   3.545   1.473   6.280 -0.1206 -0.0894 -0.5359
 3366TIP3    H131513   3.493   1.553   6.282 -0.1218 -0.1072  0.1965
 3366TIP3    H231514   3.498   1.412   6.336  0.1350 -0.4483 -0.7104
 3367TIP3   OH231515   1.774   0.726  17.041 -0.8122  0.3467 -0.1013
 3367TIP3    H131516   1.687   0.714  17.078 -1.3585 -0.5684 -1.5822
 3367TIP3    H231517   1.830   0.668  17.092 -1.3245 -0.0346  0.0314
 3368TIP3   OH231518   5.558   0.839   5.774  0.4571  0.2193  0.1472
 3368TIP3    H131519   5.603   0.771   5.724  0.0203 -0.0371  0.0977
 3368TIP3    H231520   5.566   0.810   5.865 -2.9013 -1.9117 -0.0696
 3369TIP3   OH231521   6.162   1.630  15.712  0.6229 -0.2603  0.0746
 3369TIP3    H131522   6.234   1.679  15.750  0.6951 -1.7293  1.9783
 3369TIP3    H231523   6.192   1.607  15.624  1.6830  0.7541  0.1519
 3370TIP3   OH231524   6.145   4.405  16.816  0.4184 -0.7091  0.0575
 3370TIP3    H131525   6.223   4.378  16.768 -0.7173 -3.1377 -0.5929
 3370TIP3    H231526   6.156   4.369  16.904  0.1353 -0.8958  0.0191
 3371TIP3   OH231527   6.099   2.095   5.902  0.2656  0.4204  0.0523
 3371TIP3    H131528   6.087   2.141   5.985  0.5065  0.4387  0.0782
 3371TIP3    H231529   6.018   2.112   5.853  1.1497  2.5891 -0.7784
 3372TIP3   OH231530   2.739   4.124  15.284 -0.2172  0.0972 -0.2562
 3372TIP3    H131531   2.672   4.057  15.273  0.2176 -0.4266  0.2225
 3372TIP3    H231532   2.706   4.181  15.353 -0.0422 -0.3331  0.1895
 3373TIP3   OH231533   2.248   0.802  12.412  0.0233  0.1243 -0.5728
 3373TIP3    H131534   2.275   0.765  12.328  0.8177  0.3480 -0.4239
 3373TIP3    H231535   2.215   0.890  12.391  0.3131  0.2171 -0.6386
 3374TIP3   OH231536   2.531   5.462   4.482 -0.3007 -0.4322  0.3957
 3374TIP3    H131537   2.529   5.547   4.438 -1.6251 -0.5735  0.1432
 3374TIP3    H231538   2.452   5.417   4.451  1.9924 -3.1409 -2.1448
 3375TIP3   OH231539   0.741   1.241  15.707  0.5204 -0.3229 -0.0850
 3375TIP3    H131540   0.817   1.240  15.648 -0.3149 -0.9785 -1.1996
 3375TIP3    H231541   0.744   1.157  15.751  1.5720  0.4664  1.4277
 3376TIP3   OH231542   4.553   3.742  13.385 -0.4733  0.7610 -0.4311
 3376TIP3    H131543   4.647   3.741  13.406 -0.8316  1.0706  1.3585
 3376TIP3    H231544   4.510   3.744  13.470 -2.0599  6.7283 -0.9082
 3377TIP3   OH231545   0.501   1.015   0.337 -0.3687  0.4840  0.5764
 3377TIP3    H131546   0.465   1.098   0.304  1.5048  1.1710  0.1142
 3377TIP3    H231547   0.424   0.962   0.357 -1.6403  1.3708 -1.5693
 3378TIP3   OH231548   4.795   3.496   6.312 -0.0040  0.5241 -0.2031
 3378TIP3    H131549   4.723   3.436   6.293 -2.1796  2.5873  0.9945
 3378TIP3    H231550   4.871   3.456   6.271 -1.5753 -2.3569 -0.5661
 3379TIP3   OH231551   5.231   4.552  15.968  0.4267  1.3526 -0.0941
 3379TIP3    H131552   5.191   4.582  16.050 -1.5347 -0.5640 -0.2934
 3379TIP3    H231553   5.158   4.534  15.910  1.5103 -1.8718 -0.6471
 3380TIP3   OH231554   6.337   6.234   6.600  0.1849 -0.0505  0.1743
 3380TIP3    H131555   6.310   6.145   6.624 -2.7054  1.1904  2.1859
 3380TIP3    H231556   6.266   6.289   6.633  2.7286  3.2017  0.6381
 3381TIP3   OH231557   4.869   5.904   5.463  0.2762  0.3224 -0.0016
 3381TIP3    H131558   4.814   5.890   5.541 -1.7359 -0.7244 -1.5161
 3381TIP3    H231559   4.933   5.969   5.491 -0.9682  0.6979  2.2512
 3382TIP3   OH231560   2.508   5.550   6.416  0.2094  0.1230  0.3043
 3382TIP3    H131561   2.522   5.639   6.385 -0.9218  0.1178 -0.2906
 3382TIP3    H231562   2.566   5.540   6.491 -0.0009  1.5186  0.6653
 3383TIP3   OH231563   5.666   3.653  11.476  0.1689 -0.6007  0.7809
 3383TIP3    H131564   5.587   3.688  11.435  1.1995 -0.8843 -1.6086
 3383TIP3    H231565   5.663   3.559  11.456  0.2909 -0.9182  2.1605
 3384TIP3   OH231566   0.281   6.677  13.365  0.1009  0.0755  0.4751
 3384TIP3    H131567   0.303   6.768  13.344  1.1266 -0.0238  1.0555
 3384TIP3    H231568   0.356   6.626  13.333 -0.2840 -0.5226  0.5158
 3385TIP3   OH231569   3.075   1.377  11.169 -0.3752 -0.1103  0.0356
 3385TIP3    H131570   2.981   1.364  11.151 -0.7031  2.7215 -0.7820
 3385TIP3    H231571   3.117   1.372  11.083  0.1956 -0.9572  0.3514
 3386TIP3   OH231572   2.813   0.057   0.640  0.3773  0.2840  0.0125
 3386TIP3    H131573   2.828  -0.036   0.659 -0.5997 -0.0212 -0.6414
 3386TIP3    H231574   2.834   0.102   0.721  0.3024 -0.5744  0.5166
 3387TIP3   OH231575   3.433   6.183   0.104  0.2495  0.4069 -0.4769
 3387TIP3    H131576   3.367   6.121   0.073 -2.1201  2.3106  0.3817
 3387TIP3    H231577   3.400   6.269   0.076  3.1378  1.3895 -1.2399
 3388TIP3   OH231578   5.360   0.977  13.654  0.0728  0.7259  0.3442
 3388TIP3    H131579   5.407   1.044  13.605 -1.5091  2.1633  0.6868
 3388TIP3    H231580   5.288   1.024  13.696  0.7064 -0.6250  3.1882
 3389TIP3   OH231581   6.109   3.909   1.424 -0.0078 -0.0232 -0.1020
 3389TIP3    H131582   6.192   3.905   1.471  0.1922 -3.3087 -0.4739
 3389TIP3    H231583   6.130   3.951   1.340  0.5617  1.8679  0.9360
 3390TIP3   OH231584   0.036   6.492  16.985  0.2199 -0.4905 -0.0903
 3390TIP3    H131585   0.107   6.452  17.034  0.0249  0.3911  0.9394
 3390TIP3    H231586   0.004   6.422  16.927  0.9228 -1.3296  0.5126
 3391TIP3   OH231587   1.530   0.569   6.202  0.6639 -0.2747  0.0101
 3391TIP3    H131588   1.577   0.487   6.221 -0.6813 -0.9024  0.7675
 3391TIP3    H231589   1.568   0.633   6.262 -1.0202 -1.3581  2.3839
 3392TIP3   OH231590   3.474   0.227   1.079 -0.6019 -0.6781 -0.4701
 3392TIP3    H131591   3.563   0.193   1.067 -1.0275 -1.3727 -1.9310
 3392TIP3    H231592   3.420   0.150   1.093 -0.8889 -0.2037  1.3210
 3393TIP3   OH231593   6.770   2.940  15.458 -0.6498  0.0982 -0.1118
 3393TIP3    H131594   6.853   2.987  15.461  0.2975 -1.5338  0.9147
 3393TIP3    H231595   6.760   2.913  15.367  1.4468 -2.1304  0.2209
 3394TIP3   OH231596   0.384   1.387   5.254  0.1358  0.1214 -0.2849
 3394TIP3    H131597   0.364   1.468   5.302 -0.6813 -0.0233 -0.3675
 3394TIP3    H231598   0.477   1.396   5.230 -0.5070  2.1361 -2.3990
 3395TIP3   OH231599   6.373   0.732  14.280 -0.0985  0.7796  0.5341
 3395TIP3    H131600   6.421   0.649  14.278 -0.1028  0.7805  0.3585
 3395TIP3    H231601   6.387   0.766  14.368  0.9791  1.2288  0.2114
 3396TIP3   OH231602   6.279   2.512   4.251  0.1610  0.2043  0.3289
 3396TIP3    H131603   6.369   2.481   4.261 -0.3099 -2.4041 -2.0414
 3396TIP3    H231604   6.280   2.562   4.169 -0.1636  2.2100  1.4898
 3397TIP3   OH231605   0.233   4.057   2.969  0.0611 -0.9556 -0.1203
 3397TIP3    H131606   0.162   4.048   3.033  1.3680 -0.3601  1.4803
 3397TIP3    H231607   0.199   4.118   2.904 -1.6747 -2.3299 -0.5920
 3398TIP3   OH231608   3.648   0.860   2.701  0.2112  0.4101 -0.0024
 3398TIP3    H131609   3.741   0.840   2.692 -0.0119 -1.6565  1.4131
 3398TIP3    H231610   3.619   0.880   2.612  1.9280  0.7508 -0.5202
 3399TIP3   OH231611   5.492   2.626  16.018 -0.6414 -0.0192  0.5237
 3399TIP3    H131612   5.461   2.669  15.938  0.3111  1.0558  0.7088
 3399TIP3    H231613   5.525   2.541  15.988 -2.8778 -0.8583  0.1994
 3400TIP3   OH231614   5.070   0.125   1.239 -0.2056 -0.3220  0.4475
 3400TIP3    H131615   5.058   0.220   1.231 -0.1403 -0.4361 -1.3027
 3400TIP3    H231616   4.987   0.093   1.272 -0.7057  0.2101 -0.2566
 3401TIP3   OH231617   2.430   4.085   5.580  0.3907  0.3649 -0.0185
 3401TIP3    H131618   2.374   4.162   5.584 -1.0904 -0.6397 -0.5178
 3401TIP3    H231619   2.433   4.062   5.487  1.9282  0.5781 -0.0489
 3402TIP3   OH231620   5.018   5.487  13.909  0.2189  0.0862  0.5306
 3402TIP3    H131621   5.041   5.578  13.929  0.4807 -0.1868  1.5120
 3402TIP3    H231622   5.076   5.463  13.836  1.8226 -0.0131  1.7886
 3403TIP3   OH231623   5.453   1.592  13.999  0.1714  0.2024 -0.2338
 3403TIP3    H131624   5.403   1.510  14.001 -1.1177  0.8724 -1.9906
 3403TIP3    H231625   5.412   1.646  14.066  0.9829 -0.5309  0.8866
 3404TIP3   OH231626   3.794   3.796  12.367 -0.7107  0.0487  0.5437
 3404TIP3    H131627   3.785   3.771  12.275  2.5855  1.1749 -0.2096
 3404TIP3    H231628   3.725   3.861  12.380  0.2482  1.7213 -1.9186
 3405TIP3   OH231629   0.320   1.595   5.448  0.3868 -0.6065 -0.6266
 3405TIP3    H131630   0.339   1.615   5.540  0.2725 -2.1486 -0.2457
 3405TIP3    H231631   0.225   1.586   5.444  0.2778  0.5189 -1.1485
 3406TIP3   OH231632   0.013   3.978   2.367 -0.0171  0.0905  0.0652
 3406TIP3    H131633   0.003   4.026   2.449 -1.1265 -1.3856  0.8386
 3406TIP3    H231634   0.104   3.996   2.340 -0.7143  3.6179 -0.4289
 3407TIP3   OH231635   6.519   1.121   0.786  0.3833 -0.2813  0.4308
 3407TIP3    H131636   6.557   1.138   0.872 -1.4079 -0.1678  1.2545
 3407TIP3    H231637   6.506   1.208   0.749 -0.2679 -0.2534  0.7145
 3408TIP3   OH231638   6.318   1.862   1.602 -0.5377  0.3431 -0.1037
 3408TIP3    H131639   6.224   1.861   1.621 -0.6508  1.9962 -0.4403
 3408TIP3    H231640   6.357   1.812   1.674 -1.6647 -0.3992  0.0274
 3409TIP3   OH231641   5.283   0.955   5.336  0.6953  0.3022  0.0669
 3409TIP3    H131642   5.209   0.924   5.284  0.5757  0.1170  0.3519
 3409TIP3    H231643   5.308   0.880   5.390 -1.2863  1.4458  2.7514
 3410TIP3   OH231644   4.936   3.410  13.270 -0.2240 -0.2156 -0.0936
 3410TIP3    H131645   4.849   3.419  13.308 -0.7311  1.6274 -1.5508
 3410TIP3    H231646   4.921   3.370  13.184  0.4490 -0.5908 -0.0438
 3411TIP3   OH231647   5.698   1.386   1.853  0.3383  0.1455  0.5028
 3411TIP3    H131648   5.609   1.354   1.841 -0.1361  2.3085 -3.1661
 3411TIP3    H231649   5.696   1.476   1.820  3.4240  1.0788  2.4212
 3412TIP3   OH231650   4.913   2.828   4.390  0.1238 -0.4577 -0.1280
 3412TIP3    H131651   4.869   2.748   4.361 -0.2754 -0.1936 -0.2558
 3412TIP3    H231652   5.002   2.800   4.409  0.7465 -0.4584 -2.6416
 3413TIP3   OH231653   2.914   2.006   4.670  0.1967 -0.5837 -0.0746
 3413TIP3    H131654   2.827   2.046   4.667  0.4967  0.0846  0.0317
 3413TIP3    H231655   2.897   1.913   4.685 -0.4792 -0.3755  0.4741
 3414TIP3   OH231656   4.846   4.040  14.414  0.1121 -0.1035  0.1394
 3414TIP3    H131657   4.847   3.977  14.487  0.1709  1.0650  1.1755
 3414TIP3    H231658   4.932   4.031  14.374  0.0470 -0.8204  0.1351
 3415TIP3   OH231659   4.916   5.202   1.091  0.2491  0.0321 -0.7003
 3415TIP3    H131660   4.925   5.230   1.182 -1.4841  1.8866 -1.0232
 3415TIP3    H231661   5.003   5.216   1.053  0.5753  0.8108  0.2870
 3416TIP3   OH231662   4.814   1.666  11.288 -0.2061 -0.2546 -0.0973
 3416TIP3    H131663   4.766   1.664  11.371 -0.5414 -1.7422 -0.2960
 3416TIP3    H231664   4.766   1.607  11.231 -1.1013  2.2184 -2.0577
 3417TIP3   OH231665   6.583   0.519   6.977 -0.2146 -0.4281 -0.0132
 3417TIP3    H131666   6.501   0.568   6.980 -0.1524 -0.3441  0.4710
 3417TIP3    H231667   6.605   0.512   6.884 -1.1342 -1.0557 -0.1944
 3418TIP3   OH231668   4.430   3.619   2.091  0.2641 -0.2096 -0.4118
 3418TIP3    H131669   4.402   3.587   2.177  0.0486  0.5949 -0.1688
 3418TIP3    H231670   4.350   3.622   2.038 -0.4193  2.9228  0.5468
 3419TIP3   OH231671   2.291   2.377   6.155  0.4709  0.4670 -0.3380
 3419TIP3    H131672   2.205   2.348   6.127  0.1576  1.6079 -0.5943
 3419TIP3    H231673   2.321   2.309   6.216 -0.0194 -0.6114 -1.2878
 3420TIP3   OH231674   2.357   4.559   4.100  0.3163 -0.2164  0.0379
 3420TIP3    H131675   2.281   4.507   4.073 -0.3321  0.1105  1.1479
 3420TIP3    H231676   2.333   4.649   4.080  1.6032 -0.3155 -2.2559
 3421TIP3   OH231677   2.409   5.795   1.585  0.6563  0.3002  0.0953
 3421TIP3    H131678   2.370   5.853   1.521  2.2405  1.1532 -0.1606
 3421TIP3    H231679   2.497   5.777   1.551  2.2500  2.2081  2.7882
 3422TIP3   OH231680   0.278   5.997  15.046  0.5792 -0.3514 -0.2620
 3422TIP3    H131681   0.361   6.000  15.094 -0.2516  0.3735  1.1930
 3422TIP3    H231682   0.288   6.062  14.976  0.6827  0.8960  0.8779
 3423TIP3   OH231683   3.490   1.135   4.510 -0.2388  0.1758  0.4098
 3423TIP3    H131684   3.548   1.060   4.522 -0.4817  0.0680  0.9454
 3423TIP3    H231685   3.456   1.153   4.598  1.8615  2.6170  0.8189
 3424TIP3   OH231686   4.001   1.057   6.321  0.0058  0.0133  0.1468
 3424TIP3    H131687   4.003   1.029   6.230  2.3594  0.7407 -0.0837
 3424TIP3    H231688   4.035   1.146   6.320  0.9417 -0.2781  1.8156
 3425TIP3   OH231689   6.796   4.985  12.191  0.2371  0.4080  0.1085
 3425TIP3    H131690   6.838   4.960  12.109  0.5098 -0.5606  0.5344
 3425TIP3    H231691   6.799   4.906  12.245 -0.0361  0.9983  1.0126
 3426TIP3   OH231692   4.570   0.726   0.823  0.4452  0.0928 -0.1386
 3426TIP3    H131693   4.610   0.789   0.884  2.0222 -1.3835  0.4312
 3426TIP3    H231694   4.644   0.689   0.776 -0.2758 -2.3027  0.5045
 3427TIP3   OH231695   4.777   4.167  12.630 -0.1588 -0.1687  0.2376
 3427TIP3    H131696   4.796   4.084  12.585  0.9491  0.5325 -0.6280
 3427TIP3    H231697   4.813   4.155  12.718  0.7759 -0.2975 -0.1576
 3428TIP3   OH231698   3.064   5.052   5.186  0.2089 -0.0965  0.1431
 3428TIP3    H131699   3.041   4.993   5.114  2.7533  0.1544 -0.9996
 3428TIP3    H231700   3.028   5.137   5.159 -3.1296 -0.9107  1.6121
 3429TIP3   OH231701   0.120   3.325  16.976 -0.2477  0.2741  0.0532
 3429TIP3    H131702   0.105   3.342  17.069  0.6248  1.3250  0.0214
 3429TIP3    H231703   0.193   3.263  16.974 -0.3935  0.1005  0.0670
 3430TIP3   OH231704   6.078   5.172  12.628 -0.3124 -0.0700 -0.0305
 3430TIP3    H131705   6.041   5.152  12.542 -0.2625  1.0602 -0.3333
 3430TIP3    H231706   6.168   5.141  12.624 -0.6673 -1.1381  0.0558
 3431TIP3   OH231707   6.507   2.468  16.624  0.1674  0.2642 -0.1079
 3431TIP3    H131708   6.554   2.386  16.612  0.4190  0.4977 -0.8146
 3431TIP3    H231709   6.414   2.444  16.623  0.2480 -0.0490  0.0323
 3432TIP3   OH231710   4.252   3.907  17.059 -0.0984 -0.2292 -0.0402
 3432TIP3    H131711   4.209   3.885  16.976 -1.4173  2.8773 -0.3023
 3432TIP3    H231712   4.181   3.913  17.122  0.4946  0.5502  0.5693
 3433TIP3   OH231713   2.789   0.280   5.192 -0.9239  0.0941  0.1929
 3433TIP3    H131714   2.732   0.211   5.160  0.7360 -2.2321  1.8955
 3433TIP3    H231715   2.876   0.255   5.161 -0.1286  0.8147  1.7316
 3434TIP3   OH231716   4.575   0.444  12.718  0.3716  0.1944  0.3450
 3434TIP3    H131717   4.549   0.480  12.802  1.0068  2.1154 -0.2286
 3434TIP3    H231718   4.650   0.497  12.691  0.9584 -1.1729 -0.8749
 3435TIP3   OH231719   2.983   3.134   0.355 -0.0801  0.6722 -0.7342
 3435TIP3    H131720   3.078   3.128   0.355 -0.0819  0.5527 -1.4690
 3435TIP3    H231721   2.958   3.122   0.263 -0.8108  0.5806 -0.5299
 3436TIP3   OH231722   1.505   6.406   2.195 -0.3498  0.0158  0.0708
 3436TIP3    H131723   1.513   6.436   2.286 -0.2021 -0.9362  0.3831
 3436TIP3    H231724   1.594   6.412   2.161 -0.0332 -1.4100  0.5820
 3437TIP3   OH231725   5.124   6.753   1.933 -0.3079  0.5185  0.0791
 3437TIP3    H131726   5.086   6.758   2.020  1.1216 -0.3009  0.7833
 3437TIP3    H231727   5.167   6.667   1.930 -0.1688  0.6117 -1.3584
 3438TIP3   OH231728   2.486   1.216  14.708 -0.3382  0.5614  0.4961
 3438TIP3    H131729   2.576   1.199  14.735  0.6157  0.6528 -2.2514
 3438TIP3    H231730   2.463   1.299  14.750  0.7486  0.3867  1.4668
 3439TIP3   OH231731   4.435   2.613   1.910 -0.2728  0.3824 -0.1414
 3439TIP3    H131732   4.517   2.566   1.925  0.2261  0.0436 -3.3497
 3439TIP3    H231733   4.368   2.554   1.942  0.5900 -0.5427  0.0194
 3440TIP3   OH231734   6.688   1.880  12.153  0.1291 -0.2129  0.1031
 3440TIP3    H131735   6.627   1.824  12.201  0.0162 -0.1345  0.0504
 3440TIP3    H231736   6.634   1.951  12.118  0.1208 -0.5524 -0.5918
 3441TIP3   OH231737   0.533   6.772   6.784  0.0517  0.5410 -0.5191
 3441TIP3    H131738   0.541   6.782   6.689 -0.2764  0.7287 -0.5269
 3441TIP3    H231739   0.622   6.782   6.817  0.1799  0.3899 -0.8154
 3442TIP3   OH231740   3.615   4.309   2.937 -0.0047 -0.2046 -0.4841
 3442TIP3    H131741   3.521   4.307   2.918  0.0633 -1.6687 -0.8058
 3442TIP3    H231742   3.645   4.392   2.900 -1.1316  0.1760 -0.5824
 3443TIP3   OH231743   1.609   0.722  12.415 -0.2938  0.6638  0.8474
 3443TIP3    H131744   1.614   0.650  12.478 -1.5895  2.2349  2.8691
 3443TIP3    H231745   1.549   0.690  12.347 -0.2139 -0.4407  1.2781
 3444TIP3   OH231746   3.950   5.638   2.532 -0.2343  0.2687  0.0521
 3444TIP3    H131747   4.004   5.565   2.502 -0.8876  0.1123 -0.7585
 3444TIP3    H231748   3.938   5.621   2.626 -1.7419 -1.5852 -0.4224
 3445TIP3   OH231749   5.115   2.652  14.260 -0.5857  0.6196  0.2632
 3445TIP3    H131750   5.091   2.614  14.175  1.9375 -0.6542  0.0158
 3445TIP3    H231751   5.044   2.627  14.319 -0.9696 -1.0701 -0.8477
 3446TIP3   OH231752   4.068   4.751  16.426  0.0677 -0.4096 -0.0010
 3446TIP3    H131753   4.068   4.844  16.401 -0.4002 -0.0972  1.0890
 3446TIP3    H231754   4.021   4.708  16.354 -0.1334  0.2642 -0.2886
 3447TIP3   OH231755   4.326   4.349  11.297 -0.3422 -0.2911  0.1285
 3447TIP3    H131756   4.306   4.294  11.372  0.0514  1.0316  1.2560
 3447TIP3    H231757   4.349   4.288  11.227  0.4791 -1.5388  1.4423
 3448TIP3   OH231758   3.242   1.427  14.830 -0.0393 -0.4609 -0.1340
 3448TIP3    H131759   3.313   1.466  14.882 -0.5673 -1.0771  1.0727
 3448TIP3    H231760   3.198   1.503  14.791 -0.3163  0.1043  1.2195
 3449TIP3   OH231761   1.124   3.991   1.441  0.6012 -0.1605 -0.5435
 3449TIP3    H131762   1.195   3.943   1.399  0.4977  0.2684 -1.2173
 3449TIP3    H231763   1.115   4.071   1.389 -0.0938 -0.0192 -0.2116
 3450TIP3   OH231764   1.585   4.989  12.981 -0.0236 -0.5276 -0.1690
 3450TIP3    H131765   1.617   5.037  12.904  0.7075 -0.3339  0.2519
 3450TIP3    H231766   1.494   4.967  12.959  0.2242 -0.6213 -1.1612
 3451TIP3   OH231767   2.592   1.497  15.668 -0.1611 -0.0969 -0.0997
 3451TIP3    H131768   2.539   1.441  15.724 -0.6048 -1.5877 -1.8958
 3451TIP3    H231769   2.531   1.565  15.638 -0.2712 -0.0804  0.1589
 3452TIP3   OH231770   1.516   5.842  15.853 -0.1232  0.2175 -0.7046
 3452TIP3    H131771   1.540   5.750  15.857  1.4391  0.6043 -0.3604
 3452TIP3    H231772   1.501   5.859  15.760 -1.0853 -0.5199 -0.6999
 3453TIP3   OH231773   3.535   6.362   5.687  0.5965  0.1567  0.2313
 3453TIP3    H131774   3.630   6.361   5.689  0.6319 -1.8030 -0.0999
 3453TIP3    H231775   3.511   6.273   5.660 -1.3016  0.9483 -0.8797
 3454TIP3   OH231776   3.904   6.057  13.925 -0.6164  0.3933 -0.1425
 3454TIP3    H131777   3.905   5.968  13.959 -3.8408  0.2197 -0.2118
 3454TIP3    H231778   3.979   6.061  13.866 -0.9738 -2.6689 -0.9730
 3455TIP3   OH231779   4.358   5.081  17.003  0.7376  0.3331 -0.0207
 3455TIP3    H131780   4.323   5.135  17.074  1.8161  0.0141  0.7877
 3455TIP3    H231781   4.282   5.038  16.965  0.3932 -2.7240  3.6142
 3456TIP3   OH231782   1.225   2.238   1.587 -0.5910 -0.0520 -0.1845
 3456TIP3    H131783   1.302   2.199   1.546  0.4515  0.5870  1.0849
 3456TIP3    H231784   1.242   2.232   1.681 -0.6967  2.6922  0.0954
 3457TIP3   OH231785   4.648   3.718  12.767 -0.2141  0.0276  0.0537
 3457TIP3    H131786   4.616   3.650  12.826 -1.3714  0.0120 -0.5648
 3457TIP3    H231787   4.717   3.762  12.816 -0.0404 -1.0366  0.7850
 3458TIP3   OH231788   1.120   1.364  15.045  0.7300 -0.0099 -0.0098
 3458TIP3    H131789   1.117   1.269  15.031  0.5242 -0.0335  0.1731
 3458TIP3    H231790   1.028   1.391  15.042  0.9159  0.4954 -2.0752
 3459TIP3   OH231791   5.014   4.999  13.240  0.1249  0.0022 -0.7395
 3459TIP3    H131792   5.067   5.016  13.162  2.4504  0.5809  0.8832
 3459TIP3    H231793   5.017   4.904  13.250  0.1516 -0.0413 -1.1200
 3460TIP3   OH231794   1.514   5.579  14.292  0.3840 -0.3520 -0.6521
 3460TIP3    H131795   1.450   5.583  14.220 -0.0003 -1.6445 -0.3999
 3460TIP3    H231796   1.597   5.601  14.251 -0.3199  2.4365 -0.7950
 3461TIP3   OH231797   5.568   0.846   3.605 -0.6808  0.1884 -0.5419
 3461TIP3    H131798   5.658   0.871   3.626 -0.3339 -1.6603  0.4691
 3461TIP3    H231799   5.554   0.765   3.654 -1.8769 -1.2194 -2.9742
 3462TIP3   OH231800   5.505   5.025   1.168  0.0960 -0.3541 -0.1688
 3462TIP3    H131801   5.590   5.016   1.211  0.2039  0.5816 -0.1631
 3462TIP3    H231802   5.441   5.011   1.238  0.2525 -0.4502 -0.0439
 3463TIP3   OH231803   1.468   5.549  12.914  0.5081 -0.0855  0.4906
 3463TIP3    H131804   1.452   5.539  12.821  0.4253  2.4681  0.1676
 3463TIP3    H231805   1.555   5.589  12.920  0.2326  0.4123  1.4716
 3464TIP3   OH231806   6.647   3.328  15.464  0.1796  0.3131  0.5345
 3464TIP3    H131807   6.606   3.242  15.462 -0.4147  0.5954 -0.7382
 3464TIP3    H231808   6.692   3.336  15.380  2.2268  0.3417  1.5639
 3465TIP3   OH231809   0.669   6.082   1.867  0.0278 -0.6152  0.0684
 3465TIP3    H131810   0.582   6.108   1.837 -0.6882 -1.7648  1.0347
 3465TIP3    H231811   0.654   6.044   1.954  1.3430 -1.7902 -0.1736
 3466TIP3   OH231812   6.239   5.294  13.348  0.0571  0.1195 -0.3605
 3466TIP3    H131813   6.200   5.323  13.430  0.6832 -0.2228  0.0605
 3466TIP3    H231814   6.310   5.236  13.374  1.4504  1.4240 -1.0841
 3467TIP3   OH231815   5.540   1.017   6.330 -0.7724 -0.0439 -0.4079
 3467TIP3    H131816   5.476   0.960   6.372 -0.9297  1.2580  1.2276
 3467TIP3    H231817   5.621   1.001   6.377 -0.5356  0.2149 -0.7212
 3468TIP3   OH231818   5.036   6.724  12.564  0.6171 -0.2351 -0.4768
 3468TIP3    H131819   5.129   6.720  12.584  0.5254 -0.2522 -0.0408
 3468TIP3    H231820   5.017   6.818  12.557  0.0384 -0.0381  2.5540
 3469TIP3   OH231821   5.627   3.079  14.164  0.1215  0.2624  0.1874
 3469TIP3    H131822   5.624   3.161  14.116  0.5396  0.8986  1.2112
 3469TIP3    H231823   5.536   3.061  14.189  0.2497  1.4530  1.6293
 3470TIP3   OH231824   5.696   4.519   4.850  0.6868 -0.4043 -0.5239
 3470TIP3    H131825   5.764   4.464   4.811 -0.8841 -2.5891 -0.3212
 3470TIP3    H231826   5.744   4.597   4.881  2.7901 -1.0386 -1.9489
 3471TIP3   OH231827   0.726   1.137  12.255  0.0801 -0.4807  0.1270
 3471TIP3    H131828   0.783   1.060  12.265 -2.4902 -2.2395  3.7438
 3471TIP3    H231829   0.665   1.112  12.186  1.1966 -0.2505 -0.9796
 3472TIP3   OH231830   3.266   6.617   3.806 -0.0636 -0.6487  0.2906
 3472TIP3    H131831   3.239   6.525   3.809  0.1811 -0.7097  0.8375
 3472TIP3    H231832   3.197   6.664   3.853 -1.2353 -0.2645 -1.7105
 3473TIP3   OH231833   3.911   4.187  14.527 -0.0700 -0.4169 -0.4800
 3473TIP3    H131834   3.851   4.251  14.488  0.0975 -0.3040 -0.5541
 3473TIP3    H231835   3.863   4.150  14.601 -0.0760 -0.0359 -0.2962
 3474TIP3   OH231836   3.415   4.608   4.644  0.4998 -0.4504 -0.1618
 3474TIP3    H131837   3.463   4.527   4.660 -0.0939 -0.6899  0.4165
 3474TIP3    H231838   3.479   4.677   4.660  0.7775 -0.7762  0.1448
 3475TIP3   OH231839   0.423   5.512   5.321 -0.1057  0.3278 -0.1663
 3475TIP3    H131840   0.388   5.573   5.255 -0.4679  0.3386  0.0358
 3475TIP3    H231841   0.506   5.551   5.348 -0.5234  0.9428  0.2512
 3476TIP3   OH231842   5.994   3.860  16.437  0.1326 -0.4697  0.5142
 3476TIP3    H131843   6.071   3.808  16.460 -0.0429 -0.0422  2.2182
 3476TIP3    H231844   5.977   3.914  16.515 -1.0080  0.5228 -0.3762
 3477TIP3   OH231845   1.980   5.910   4.680 -0.1571 -0.3268 -0.3582
 3477TIP3    H131846   1.936   5.993   4.695  0.7546  0.0711  0.1777
 3477TIP3    H231847   2.026   5.922   4.597  1.2971  0.3061  0.4987
 3478TIP3   OH231848   1.932   3.562   6.011 -0.2017  0.0760 -0.4888
 3478TIP3    H131849   1.930   3.553   5.916  1.9926 -1.4008 -0.4653
 3478TIP3    H231850   1.956   3.654   6.026 -1.7380  0.6423 -1.2836
 3479TIP3   OH231851   6.300   2.304   5.403  0.0032  0.0635  0.1348
 3479TIP3    H131852   6.339   2.373   5.457 -3.0650  2.4574 -0.4418
 3479TIP3    H231853   6.259   2.351   5.330 -2.7181 -2.2633 -0.0148
 3480TIP3   OH231854   2.701   3.424   3.989 -0.1233  0.0080  0.4134
 3480TIP3    H131855   2.625   3.369   4.006 -1.1303  1.5049  0.9267
 3480TIP3    H231856   2.749   3.378   3.921 -1.1693 -1.2631  0.4991
 3481TIP3   OH231857   0.026   6.246  11.407 -0.4139  0.9162 -0.5169
 3481TIP3    H131858  -0.056   6.207  11.379 -1.1377  3.0221 -1.4983
 3481TIP3    H231859   0.065   6.282  11.327  0.8644  1.0400  0.1308
 3482TIP3   OH231860   3.927   1.499  13.791 -0.2473  0.5292 -0.0406
 3482TIP3    H131861   3.862   1.553  13.745  0.4963  1.0948 -0.4518
 3482TIP3    H231862   3.882   1.471  13.871 -1.1693  0.4821 -0.5614
 3483TIP3   OH231863   5.362   4.999  14.228 -0.2421 -0.0884  0.3624
 3483TIP3    H131864   5.444   4.955  14.206 -0.1053  0.0722  0.5524
 3483TIP3    H231865   5.357   4.995  14.323 -1.3424 -1.7109  0.2876
 3484TIP3   OH231866   2.896   5.949  14.770  0.2817 -0.4117 -0.1451
 3484TIP3    H131867   2.878   6.025  14.716 -1.2609 -0.5631  0.1169
 3484TIP3    H231868   2.931   5.883  14.709  1.8508  0.5485 -0.3302
 3485TIP3   OH231869   2.048   1.742   0.243  0.7168 -0.0045  0.1286
 3485TIP3    H131870   2.041   1.773   0.333 -2.0933 -0.8976  0.3400
 3485TIP3    H231871   2.005   1.810   0.191 -1.1812 -1.2068  0.0180
 3486TIP3   OH231872   4.942   1.265  11.344 -0.1252 -0.5686  0.3996
 3486TIP3    H131873   4.884   1.281  11.270  0.5945 -0.4418 -0.1471
 3486TIP3    H231874   4.898   1.306  11.418 -0.3211  0.2996 -0.1776
 3487TIP3   OH231875   3.738   0.412  14.247  0.4452  0.1128 -0.1903
 3487TIP3    H131876   3.768   0.466  14.174 -0.3350 -1.4490 -1.7375
 3487TIP3    H231877   3.812   0.412  14.308  0.8719  1.9747 -0.6441
 3488TIP3   OH231878   2.352   6.623  15.196 -0.1252 -0.0320 -0.2486
 3488TIP3    H131879   2.432   6.621  15.145 -0.6460 -0.3221 -1.0702
 3488TIP3    H231880   2.377   6.662  15.280  1.0508 -0.9159 -0.1747
 3489TIP3   OH231881   3.829   2.067  15.465  0.2899 -0.0012  0.2391
 3489TIP3    H131882   3.883   2.032  15.536  1.1090  2.8916  1.1824
 3489TIP3    H231883   3.859   2.157  15.454 -1.8275  0.5590 -1.8154
 3490TIP3   OH231884   1.319   0.637   1.590  0.0601  0.0572  0.8156
 3490TIP3    H131885   1.386   0.673   1.532  0.0985 -1.3027 -0.0149
 3490TIP3    H231886   1.355   0.553   1.619 -1.9236 -1.4846 -0.9196
 3491TIP3   OH231887   1.889   3.266   1.988 -0.1032  0.0587  0.6012
 3491TIP3    H131888   1.908   3.318   2.067  2.3376  1.8578 -1.0020
 3491TIP3    H231889   1.812   3.308   1.950 -0.5492 -0.0392  1.3711
 3492TIP3   OH231890   0.519   0.163  12.641 -0.0448  0.2532  0.1175
 3492TIP3    H131891   0.464   0.095  12.678 -1.2630  0.0223 -1.9662
 3492TIP3    H231892   0.467   0.243  12.650  0.8868  0.7380  1.4900
 3493TIP3   OH231893   5.030   5.268  13.067 -0.5307  0.4167  0.3638
 3493TIP3    H131894   4.961   5.302  13.011 -1.6134 -0.8417  0.8871
 3493TIP3    H231895   5.059   5.188  13.024 -0.2020  0.3227  0.7527
 3494TIP3   OH231896   2.505   2.609  12.928  0.8663 -0.0990  0.5267
 3494TIP3    H131897   2.432   2.562  12.888  0.9213 -0.6745  1.0824
 3494TIP3    H231898   2.472   2.698  12.940  1.2271  0.3883 -1.7698
 3495TIP3   OH231899   0.310   2.855  15.312 -0.1978  0.0077 -0.0601
 3495TIP3    H131900   0.290   2.913  15.385  0.5258  0.8784 -0.5189
 3495TIP3    H231901   0.360   2.910  15.251  0.6234 -1.1306 -0.4594
 3496TIP3   OH231902   3.812   0.301  11.765  0.0287  0.1058  1.0290
 3496TIP3    H131903   3.772   0.384  11.738 -1.4690 -0.4954  1.3581
 3496TIP3    H231904   3.862   0.273  11.688  1.5192  1.8529  1.2904
 3497TIP3   OH231905   3.761   6.179  12.244  0.2958 -0.4637  0.4662
 3497TIP3    H131906   3.761   6.100  12.190  1.2408  0.3751 -0.8344
 3497TIP3    H231907   3.796   6.247  12.186  0.2418  0.7403  1.7981
 3498TIP3   OH231908   4.238   4.239   2.644  0.6990 -0.1602 -0.1716
 3498TIP3    H131909   4.267   4.264   2.556 -0.0567 -0.1912 -0.4322
 3498TIP3    H231910   4.319   4.234   2.694  1.1411 -0.1430 -0.8624
 3499TIP3   OH231911   5.703   0.109  15.557 -0.2155  0.4148 -0.4439
 3499TIP3    H131912   5.762   0.132  15.485 -0.6494  0.8331 -0.6747
 3499TIP3    H231913   5.640   0.048  15.518  1.0330 -1.3907  0.2062
 3500TIP3   OH231914   5.825   6.778   3.968 -0.5912  0.2493  0.0345
 3500TIP3    H131915   5.834   6.690   4.004 -0.4649  0.5751  0.8289
 3500TIP3    H231916   5.793   6.765   3.879 -1.4536 -0.5770  0.4452
 3501TIP3   OH231917   2.544   1.119   1.313 -0.1869  0.2150  0.2023
 3501TIP3    H131918   2.606   1.108   1.241  0.5164 -0.3555  0.8900
 3501TIP3    H231919   2.586   1.079   1.389 -2.0339 -1.6659  0.3481
 3502TIP3   OH231920   1.346   4.465  15.901  0.1991  0.3435  0.4906
 3502TIP3    H131921   1.389   4.428  15.978  0.3718 -0.6342 -0.0606
 3502TIP3    H231922   1.269   4.410  15.888  0.0168  0.6767  0.1220
 3503TIP3   OH231923   0.540   3.598  15.046 -0.3939  0.3910  0.2675
 3503TIP3    H131924   0.537   3.680  15.095 -0.5560 -0.3419  1.5274
 3503TIP3    H231925   0.633   3.587  15.023 -0.2287  0.4912  0.8723
 3504TIP3   OH231926   1.391   1.049   1.453  0.7128  0.1519  0.3566
 3504TIP3    H131927   1.327   0.978   1.447  0.7969  0.1270 -0.2653
 3504TIP3    H231928   1.384   1.080   1.544 -0.1219  0.0981  0.3173
 3505TIP3   OH231929   1.056   2.053   0.160 -0.5860  0.5329 -0.2891
 3505TIP3    H131930   0.996   2.092   0.096 -2.4018  1.4592  1.8561
 3505TIP3    H231931   1.047   2.108   0.238  1.5250 -0.5695  0.8171
 3506TIP3   OH231932   1.190   1.917  17.129  0.1506 -0.7650 -0.6051
 3506TIP3    H131933   1.224   2.006  17.127 -1.6317 -0.0081  0.4704
 3506TIP3    H231934   1.129   1.913  17.056 -0.9531 -0.5686  0.2845
 3507TIP3   OH231935   3.592   1.158  13.981  0.1267  0.4572  0.4076
 3507TIP3    H131936   3.637   1.170  13.897 -0.3038  1.9171  0.3523
 3507TIP3    H231937   3.638   1.216  14.041  0.2190 -0.3303  1.1051
 3508TIP3   OH231938   3.815   1.030   4.367  0.1504  0.4127  0.1643
 3508TIP3    H131939   3.813   1.095   4.437  1.0470 -0.6663  1.2381
 3508TIP3    H231940   3.807   0.946   4.412  1.2535 -0.3454 -0.9807
 3509TIP3   OH231941   5.478   2.559  12.276 -0.5107 -0.4345 -0.3515
 3509TIP3    H131942   5.537   2.537  12.203 -0.4821 -0.4250 -0.3311
 3509TIP3    H231943   5.532   2.548  12.354 -1.2080 -2.9858 -0.1134
 3510TIP3   OH231944   2.079   2.604  12.099  0.2591 -0.7430 -0.0738
 3510TIP3    H131945   2.104   2.539  12.033 -0.7581 -0.0898 -1.1423
 3510TIP3    H231946   1.997   2.572  12.135 -0.1081 -0.2145 -0.4140
 3511TIP3   OH231947   5.847   0.757   0.717 -0.6716 -0.0307  0.2315
 3511TIP3    H131948   5.941   0.745   0.729 -0.5106  0.6225 -0.3378
 3511TIP3    H231949   5.808   0.673   0.743  0.0022 -0.0652  1.1658
 3512TIP3   OH231950   1.977   1.316  11.311 -0.2767 -0.2968  0.9666
 3512TIP3    H131951   2.035   1.373  11.261 -1.5436  0.6266  0.5043
 3512TIP3    H231952   1.985   1.231  11.269  0.7534 -0.1890  0.9269
 3513TIP3   OH231953   1.818   3.539   5.089  0.1861  0.2268  0.2046
 3513TIP3    H131954   1.774   3.575   5.166  0.4740  0.5538  0.2190
 3513TIP3    H231955   1.834   3.447   5.111 -2.8227 -0.6499 -0.8114
 3514TIP3   OH231956   6.256   2.100  12.059  0.9060 -0.2098 -0.4506
 3514TIP3    H131957   6.271   2.007  12.076  0.4488 -0.0856  0.7206
 3514TIP3    H231958   6.164   2.114  12.080  1.1463  0.6424  0.0983
 3515TIP3   OH231959   0.597   4.883   3.015  0.0802  0.3108 -0.1887
 3515TIP3    H131960   0.636   4.796   3.024  0.4409  0.4995  0.1021
 3515TIP3    H231961   0.503   4.868   3.020  0.1629  0.1251  1.6347
 3516TIP3   OH231962   5.820   2.337   0.191  0.4772 -0.2864 -0.1106
 3516TIP3    H131963   5.911   2.356   0.170  0.8485  0.2532  1.8062
 3516TIP3    H231964   5.770   2.383   0.124  1.5952  0.7714 -0.2608
 3517TIP3   OH231965   5.921   2.884   5.510 -0.0362  0.7634  0.2557
 3517TIP3    H131966   5.985   2.819   5.540 -1.3181 -0.4083  0.5628
 3517TIP3    H231967   5.903   2.938   5.587 -0.0454  0.5496  0.4041
 3518TIP3   OH231968   3.760   1.942   0.476  0.1189 -0.0629 -0.4898
 3518TIP3    H131969   3.760   2.021   0.423 -0.5302 -0.1705 -0.6591
 3518TIP3    H231970   3.813   1.879   0.427  0.5531  0.2355 -0.4024
 3519TIP3   OH231971   4.813   4.082  11.112 -0.0417  0.0622  0.3942
 3519TIP3    H131972   4.737   4.056  11.164  0.0951 -2.2089 -0.4146
 3519TIP3    H231973   4.799   4.041  11.026  1.3253  0.9242 -0.2707
 3520TIP3   OH231974   5.360   1.577   5.569 -0.1138  0.7462 -0.6288
 3520TIP3    H131975   5.409   1.568   5.651 -1.4386 -0.7108  0.0452
 3520TIP3    H231976   5.349   1.671   5.557  0.2814  0.9783  0.7550
 3521TIP3   OH231977   2.537   6.141  14.676 -0.4776  0.1203 -0.1089
 3521TIP3    H131978   2.504   6.225  14.642  1.2456  0.9401  0.1232
 3521TIP3    H231979   2.526   6.080  14.603 -1.5930  0.5720 -0.3457
 3522TIP3   OH231980   4.968   6.363  10.468 -0.1603  0.4931 -0.1640
 3522TIP3    H131981   4.919   6.387  10.547  0.9073  1.4193  0.2427
 3522TIP3    H231982   5.036   6.430  10.460  1.0156 -0.7106 -0.7322
 3523TIP3   OH231983   5.442   6.323  11.114 -0.7162 -0.0004  0.8153
 3523TIP3    H131984   5.406   6.302  11.028  0.0848  0.8020  0.2720
 3523TIP3    H231985   5.418   6.248  11.169 -0.5813 -0.8757 -0.2929
 3524TIP3   OH231986   6.655   6.325  10.738  0.2634  0.0143 -0.1286
 3524TIP3    H131987   6.641   6.231  10.732 -2.1994  0.2315  1.0195
 3524TIP3    H231988   6.615   6.361  10.659  0.4314  0.1602 -0.1491
 3525TIP3   OH231989   6.080   0.822  11.874  0.3527  0.0890  0.4576
 3525TIP3    H131990   6.006   0.770  11.905 -0.4704  1.0566  0.1554
 3525TIP3    H231991   6.156   0.764  11.884 -0.6149 -1.3861 -0.4528
 3526TIP3   OH231992   1.585   6.773   2.376  0.2347  0.2407 -0.3537
 3526TIP3    H131993   1.517   6.840   2.372  1.5600  1.6826  0.4999
 3526TIP3    H231994   1.667   6.821   2.384  1.2831 -1.4738 -0.1605
 3527TIP3   OH231995   0.903   4.175   6.189  0.1681  0.0279 -0.7599
 3527TIP3    H131996   0.840   4.247   6.190  0.7792  0.5766 -1.3638
 3527TIP3    H231997   0.988   4.217   6.179  0.5849 -0.7445 -0.5151
 3528TIP3   OH231998   3.391   0.103   0.799  0.7239  0.1394  0.1207
 3528TIP3    H131999   3.476   0.145   0.806 -0.3704  2.2356  1.7872
 3528TIP3    H232000   3.328   0.175   0.797 -1.0775 -1.3580 -0.4475
 3529TIP3   OH232001   3.485   2.862   0.440 -0.3185  0.1269 -0.0706
 3529TIP3    H132002   3.422   2.916   0.393 -0.1121 -0.1179 -0.6310
 3529TIP3    H232003   3.545   2.926   0.480 -0.6292  0.3415  0.0600
 3530TIP3   OH232004   0.784   2.278   5.696  0.1965  0.1296 -0.4351
 3530TIP3    H132005   0.773   2.351   5.635 -1.6771  0.1336 -0.1495
 3530TIP3    H232006   0.873   2.286   5.727  0.2358  1.9132 -0.9030
 3531TIP3   OH232007   3.346   3.671   6.467 -0.0401 -0.5460  0.0287
 3531TIP3    H132008   3.316   3.627   6.388  0.8216  0.0703 -0.6563
 3531TIP3    H232009   3.367   3.760   6.439  0.2870 -0.3217  0.9433
 3532TIP3   OH232010   3.435   0.292  10.697 -0.6103  0.1109  0.1263
 3532TIP3    H132011   3.388   0.366  10.735  0.4593 -0.7169  3.3532
 3532TIP3    H232012   3.527   0.309  10.717 -0.3314 -1.9874  0.8142
 3533TIP3   OH232013   5.506   5.683  15.966 -0.6797 -0.2907  0.0097
 3533TIP3    H132014   5.574   5.659  16.029 -1.3314  0.2368  0.9374
 3533TIP3    H232015   5.512   5.778  15.958 -0.6676 -0.3442 -0.6523
 3534TIP3   OH232016   6.317   5.764  15.315 -0.1848 -0.2236  0.3404
 3534TIP3    H132017   6.261   5.830  15.358  1.6651  1.2391  0.6215
 3534TIP3    H232018   6.376   5.734  15.384  0.4009 -0.5986 -0.3153
 3535TIP3   OH232019   3.007   3.535  14.506  0.4025 -0.1634 -0.0248
 3535TIP3    H132020   2.939   3.476  14.473  0.8622 -0.7290  0.0240
 3535TIP3    H232021   2.959   3.610  14.542 -0.2262 -0.8199  0.5262
 3536TIP3   OH232022   2.389   6.033  11.816  0.1428  0.0384  0.0608
 3536TIP3    H132023   2.352   5.978  11.747  1.6428 -0.9175 -0.0295
 3536TIP3    H232024   2.334   6.014  11.893 -1.7629  1.3860 -0.8811
 3537TIP3   OH232025   3.676   1.335   6.561 -0.0496  0.7442 -0.1583
 3537TIP3    H132026   3.596   1.326   6.510  0.1443  1.0913 -0.5287
 3537TIP3    H232027   3.646   1.346   6.651 -0.3805 -0.3386 -0.1241
 3538TIP3   OH232028   5.387   4.793  11.270 -0.5572  0.5697 -0.2320
 3538TIP3    H132029   5.353   4.883  11.268 -1.2277  0.3900  1.2880
 3538TIP3    H232030   5.315   4.740  11.235 -0.2757  0.5894 -0.8450
 3539TIP3   OH232031   4.889   5.311  12.682 -0.0402  0.6829 -0.2639
 3539TIP3    H132032   4.837   5.240  12.718  1.1927 -0.4647 -0.6812
 3539TIP3    H232033   4.850   5.329  12.597  0.1073 -0.0519 -0.4955
 3540TIP3   OH232034   2.629   0.894   1.453  0.1385  0.4046  0.3876
 3540TIP3    H132035   2.578   0.821   1.487  0.7944 -0.3835 -0.3003
 3540TIP3    H232036   2.605   0.900   1.361  1.9635 -0.5934 -0.2006
 3541TIP3   OH232037   5.888   3.335  16.209 -0.5641  0.0515  0.1414
 3541TIP3    H132038   5.911   3.424  16.236 -0.1804  0.6979 -2.0595
 3541TIP3    H232039   5.966   3.284  16.227 -0.7566  0.1592  1.3503
 3542TIP3   OH232040   4.346   1.776  16.662 -0.3163  0.3982 -0.3837
 3542TIP3    H132041   4.310   1.763  16.750 -0.8426 -0.0150 -0.6554
 3542TIP3    H232042   4.288   1.840  16.622  0.8465  1.8301  0.1009
 3543TIP3   OH232043   0.401   3.749   1.136 -0.1158  0.7539 -0.5737
 3543TIP3    H132044   0.474   3.718   1.082 -0.5104 -0.1538 -0.6007
 3543TIP3    H232045   0.390   3.840   1.110  0.0262  0.4746 -1.6753
 3544TIP3   OH232046   0.921   1.191   1.343  0.1396 -0.0672  0.8034
 3544TIP3    H132047   0.843   1.155   1.385  1.0342 -1.6869  1.1157
 3544TIP3    H232048   0.910   1.170   1.250  0.0108  0.0869  0.7825
 3545TIP3   OH232049   4.388   0.457   0.339  0.7203  0.1504  0.0160
 3545TIP3    H132050   4.404   0.541   0.383  1.3052  0.0818 -0.0530
 3545TIP3    H232051   4.345   0.404   0.406  0.6890  0.3823  0.1831
 3546TIP3   OH232052   2.829   2.803   4.098  0.1979 -0.1951  0.0678
 3546TIP3    H132053   2.821   2.709   4.114 -2.5476  0.0183  0.5538
 3546TIP3    H232054   2.738   2.834   4.097  0.9743  2.2850 -1.1506
 3547TIP3   OH232055   3.839   6.352   5.656  0.5560  0.5421  0.0553
 3547TIP3    H132056   3.869   6.442   5.642 -0.5003  0.9301  0.2488
 3547TIP3    H232057   3.844   6.340   5.751  1.4229  0.1231 -0.0279
 3548TIP3   OH232058   6.512   2.183   1.349 -0.1653  0.0199  0.1385
 3548TIP3    H132059   6.450   2.256   1.342 -0.1222 -0.0757 -1.4768
 3548TIP3    H232060   6.458   2.105   1.341 -0.3203 -0.2159  2.6406
 3549TIP3   OH232061   3.215   2.945   3.134  0.6549 -0.3248 -0.4722
 3549TIP3    H132062   3.192   2.909   3.220 -1.2006  0.5882 -0.5159
 3549TIP3    H232063   3.292   2.896   3.107 -0.0260 -2.1835  0.7410
 3550TIP3   OH232064   4.711   2.049  17.112  0.2479  0.0075  0.3795
 3550TIP3    H132065   4.739   2.133  17.149 -1.4791  2.0040 -2.4098
 3550TIP3    H232066   4.620   2.040  17.140 -0.4991  0.6324 -1.6951
 3551TIP3   OH232067   0.117   3.227  13.289  0.2991  0.2023  0.7313
 3551TIP3    H132068   0.205   3.221  13.326 -0.2069  1.0707  2.1626
 3551TIP3    H232069   0.126   3.284  13.213  0.9739  0.2450  0.8391
 3552TIP3   OH232070   1.183   0.016  11.272 -0.2989  0.1653  0.3147
 3552TIP3    H132071   1.155   0.103  11.299 -1.2222 -0.3172  0.9756
 3552TIP3    H232072   1.173   0.014  11.177 -1.4784  0.3748  0.4252
 3553TIP3   OH232073   5.066   5.650  15.131  0.3681 -0.3277 -0.1550
 3553TIP3    H132074   5.051   5.559  15.159 -0.1885 -0.1978 -0.0158
 3553TIP3    H232075   5.087   5.696  15.212  0.7502 -0.3494 -0.2407
 3554TIP3   OH232076   1.101   2.684  13.316  0.3424 -0.1203  0.3056
 3554TIP3    H132077   1.166   2.725  13.373  1.7754  2.8184 -3.0678
 3554TIP3    H232078   1.024   2.740  13.323  0.1837 -0.3065  0.0666
 3555TIP3   OH232079   4.191   1.998  15.949 -0.2593  0.1826  0.3129
 3555TIP3    H132080   4.209   2.037  16.034 -1.0076 -0.7723  0.9334
 3555TIP3    H232081   4.226   2.061  15.885 -0.7091  1.4558  1.2834
 3556TIP3   OH232082   3.377   6.620   2.416  0.2654  0.2102 -0.9548
 3556TIP3    H132083   3.378   6.690   2.351 -1.6752  1.5730  0.4118
 3556TIP3    H232084   3.312   6.647   2.481  1.2086 -1.7056  0.9138
 3557TIP3   OH232085   5.366   4.453  11.302  0.1731  0.0729 -0.1280
 3557TIP3    H132086   5.285   4.467  11.351  1.2311 -0.1466  1.8029
 3557TIP3    H232087   5.435   4.481  11.362  1.6388 -1.7014 -0.8942
 3558TIP3   OH232088   1.293   3.319  15.646 -0.1078 -0.0802  0.8899
 3558TIP3    H132089   1.254   3.394  15.601  0.9036  0.3074  0.6118
 3558TIP3    H232090   1.321   3.260  15.576 -2.1348 -1.4097  1.1325
 3559TIP3   OH232091   4.546   6.147  17.050  0.2214  0.6581 -0.3847
 3559TIP3    H132092   4.605   6.138  16.975  1.4869  1.1900  0.5111
 3559TIP3    H232093   4.553   6.239  17.075  0.7531  0.2525  1.0937
 3560TIP3   OH232094   0.542   1.774   3.358  0.4033  0.7847 -0.2978
 3560TIP3    H132095   0.461   1.808   3.321 -0.1848  0.7789  0.9498
 3560TIP3    H232096   0.521   1.684   3.383  1.0814  0.4672 -0.8288
 3561TIP3   OH232097   3.650   0.202   0.171 -0.3098 -0.1646  0.3196
 3561TIP3    H132098   3.741   0.231   0.165 -1.1040  2.2526 -1.6723
 3561TIP3    H232099   3.655   0.107   0.167  2.0524 -0.0663 -1.4388
 3562TIP3   OH232100   5.118   4.227  15.462  0.0949  0.1476  0.4713
 3562TIP3    H132101   5.149   4.255  15.548  0.4500 -2.5170  1.3091
 3562TIP3    H232102   5.170   4.148  15.443 -0.0275  0.6183 -2.1626
 3563TIP3   OH232103   2.579   5.582  16.966 -0.3592  0.3509  0.0703
 3563TIP3    H132104   2.619   5.666  16.942 -0.0146 -0.2261 -1.5428
 3563TIP3    H232105   2.593   5.527  16.889 -0.7125 -1.1469  1.0406
 3564TIP3   OH232106   5.836   3.408   3.440 -0.5577 -0.0775 -0.2169
 3564TIP3    H132107   5.824   3.403   3.535  0.3688 -0.6149 -0.1180
 3564TIP3    H232108   5.822   3.319   3.408  0.2022 -0.1303 -0.4369
 3565TIP3   OH232109   6.343   1.849  11.374  0.3555 -0.4060  0.2415
 3565TIP3    H132110   6.285   1.845  11.299 -0.8535  0.1705  1.1152
 3565TIP3    H232111   6.307   1.787  11.437  1.7253 -1.3642  0.1248
 3566TIP3   OH232112   1.564   3.134   2.551 -0.1575  0.4023  0.0978
 3566TIP3    H132113   1.544   3.050   2.510 -1.9281  0.0305  1.5991
 3566TIP3    H232114   1.483   3.185   2.542  0.8604  1.9652 -0.7262
 3567TIP3   OH232115   2.369   0.798   5.265  0.3022  0.1471 -0.1113
 3567TIP3    H132116   2.415   0.727   5.309 -2.2806 -1.9978 -0.6399
 3567TIP3    H232117   2.432   0.870   5.265  2.5090 -1.6008  1.8104
 3568TIP3   OH232118   1.869   4.929  13.878 -0.5065 -0.4284  0.0060
 3568TIP3    H132119   1.891   4.855  13.935 -0.1812 -0.7314 -0.5105
 3568TIP3    H232120   1.860   4.891  13.791  0.9408  0.3214 -0.5119
 3569TIP3   OH232121   0.594   4.128  14.515  0.3240 -0.0672  0.0851
 3569TIP3    H132122   0.659   4.153  14.581 -0.4072  0.2395  0.7080
 3569TIP3    H232123   0.642   4.129  14.432  1.1201  0.1038  0.5362
 3570TIP3   OH232124   5.491   3.540  10.886 -0.0301  0.2863 -0.6185
 3570TIP3    H132125   5.508   3.450  10.856 -1.6566 -0.5903  0.8728
 3570TIP3    H232126   5.446   3.581  10.813  0.3154 -0.2486 -1.1503
 3571TIP3   OH232127   2.677   4.520  16.871 -0.0803  0.1349  0.0393
 3571TIP3    H132128   2.602   4.478  16.913  1.7033 -2.7649  0.5375
 3571TIP3    H232129   2.726   4.559  16.943 -0.1117  0.3915 -0.0756
 3572TIP3   OH232130   4.335   2.198   5.418  0.7611  0.2444  0.5457
 3572TIP3    H132131   4.271   2.244   5.473  0.7788  0.1158  0.6764
 3572TIP3    H232132   4.301   2.109   5.412  0.7186  0.2795  0.2798
 3573TIP3   OH232133   4.445   1.991   6.566 -0.1319  0.8977  0.1712
 3573TIP3    H132134   4.456   2.054   6.495  2.3490  2.0746  1.4906
 3573TIP3    H232135   4.423   1.909   6.521 -0.5470  2.0172 -1.7931
 3574TIP3   OH232136   5.821   6.340   2.430  0.3621  0.4709  0.0321
 3574TIP3    H132137   5.882   6.347   2.503 -1.0644  0.6581  1.2616
 3574TIP3    H232138   5.828   6.249   2.401 -1.5186 -0.6573  2.7255
 3575TIP3   OH232139   1.651   5.135  14.515 -0.7327 -0.4552 -0.5013
 3575TIP3    H132140   1.654   5.230  14.503 -0.9660 -0.3751  0.0627
 3575TIP3    H232141   1.702   5.119  14.594 -0.9974 -0.7664 -0.3921
 3576TIP3   OH232142   6.300   0.725   1.207  0.2387  0.2488 -0.2929
 3576TIP3    H132143   6.376   0.669   1.224 -1.0024 -1.1327  1.0287
 3576TIP3    H232144   6.316   0.804   1.258  0.9407  0.1273 -0.3085
 3577TIP3   OH232145   3.359   4.833  14.004  0.5404  0.4953  0.6540
 3577TIP3    H132146   3.378   4.740  13.995  0.5675  0.6110 -0.6246
 3577TIP3    H232147   3.266   4.842  13.983  0.7603  0.8772 -0.1867
 3578TIP3   OH232148   4.333   5.421  11.920 -0.7326  0.2887  0.1120
 3578TIP3    H132149   4.254   5.375  11.948 -0.4367  0.5534  1.4888
 3578TIP3    H232150   4.370   5.456  12.002  2.4605 -2.3839  0.0269
 3579TIP3   OH232151   2.987   3.846   1.921 -0.0681  0.2263  0.1261
 3579TIP3    H132152   2.976   3.808   2.009 -0.8193  0.2305  0.0456
 3579TIP3    H232153   2.901   3.882   1.901  0.6823  2.3008  0.3461
 3580TIP3   OH232154   4.025   6.733   0.772  0.1692  0.1179 -0.9463
 3580TIP3    H132155   3.941   6.741   0.727 -0.2313 -1.1562 -0.4557
 3580TIP3    H232156   4.071   6.664   0.725 -1.0076 -2.6097  1.6055
 3581TIP3   OH232157   5.547   4.403   0.086 -0.0257  1.0068  0.2655
 3581TIP3    H132158   5.594   4.480   0.118 -0.1555  1.1647  0.0843
 3581TIP3    H232159   5.460   4.437   0.061 -0.1297  0.7770  0.3149
 3582TIP3   OH232160   1.936   1.333  16.327  0.0095 -0.2598 -0.2323
 3582TIP3    H132161   1.961   1.339  16.235  1.3804 -1.4895  0.0189
 3582TIP3    H232162   1.922   1.423  16.354 -0.0502  0.1503 -1.5373
 3583TIP3   OH232163   2.982   3.561  13.296 -0.0835  0.5205 -0.3786
 3583TIP3    H132164   2.929   3.611  13.358  0.8203  0.2055  0.6745
 3583TIP3    H232165   2.920   3.499  13.256 -0.4636 -0.0371  1.0337
 3584TIP3   OH232166   2.808   3.153  12.604  0.0074 -0.6815 -0.1412
 3584TIP3    H132167   2.742   3.165  12.672  0.6105 -0.8427  0.4880
 3584TIP3    H232168   2.890   3.180  12.646  0.4355 -1.1017 -0.6972
 3585TIP3   OH232169   5.498   3.609   1.230 -0.2032  0.2465  0.3305
 3585TIP3    H132170   5.576   3.555   1.220 -0.8548 -0.7785  0.6460
 3585TIP3    H232171   5.532   3.697   1.247  0.9067 -0.4321  1.8480
 3586TIP3   OH232172   2.949   3.314  16.901  0.3396  0.3762 -0.1219
 3586TIP3    H132173   3.028   3.319  16.847  1.0393  0.7744  0.9043
 3586TIP3    H232174   2.979   3.334  16.989 -1.3665  3.5224 -0.1049
 3587TIP3   OH232175   3.742   5.659  13.746  0.0308 -0.1584  0.1925
 3587TIP3    H132176   3.837   5.663  13.734 -0.2911 -0.2427 -3.7732
 3587TIP3    H232177   3.727   5.581  13.798  2.0671 -2.6295 -2.5727
 3588TIP3   OH232178   2.926   5.026  16.802 -0.5271 -0.3716  0.3657
 3588TIP3    H132179   2.894   5.071  16.880 -0.1238  0.1807  0.2159
 3588TIP3    H232180   2.856   5.036  16.737  0.1294  1.2611 -0.1241
 3589TIP3   OH232181   1.051   6.178  14.601  0.3827  0.1213  0.0707
 3589TIP3    H132182   0.981   6.185  14.666  0.4304 -3.3060  0.6690
 3589TIP3    H232183   1.006   6.178  14.516 -0.3661 -1.6021  0.4346
 3590TIP3   OH232184   5.068   0.657  13.955  0.0956 -0.0503  0.3750
 3590TIP3    H132185   5.061   0.707  13.875  0.4244  0.0769  0.4252
 3590TIP3    H232186   4.980   0.660  13.993 -0.6319 -1.8520 -1.0100
 3591TIP3   OH232187   5.918   0.328   4.923  0.3694  0.0609 -0.2268
 3591TIP3    H132188   5.944   0.252   4.871 -0.6256  1.6044 -3.2157
 3591TIP3    H232189   5.823   0.325   4.925  0.3399  0.8539  0.2061
 3592TIP3   OH232190   5.672   1.248   2.922  0.3589 -0.3318 -0.5524
 3592TIP3    H132191   5.698   1.270   2.833 -0.0238  0.8624 -0.3848
 3592TIP3    H232192   5.586   1.206   2.913  0.2015  0.0279 -0.7263
 3593TIP3   OH232193   3.311   3.786  14.259  0.0260 -0.7341 -0.2076
 3593TIP3    H132194   3.388   3.731  14.275 -0.4479 -0.9149  1.6794
 3593TIP3    H232195   3.339   3.846  14.190  2.0957 -0.4096  0.8238
 3594TIP3   OH232196   2.616   3.126   3.485 -0.4884 -0.1751  0.0741
 3594TIP3    H132197   2.575   3.212   3.492  1.0825  0.7529 -1.3732
 3594TIP3    H232198   2.567   3.082   3.416 -0.1677  0.2601 -0.4379
 3595TIP3   OH232199   3.621   2.394   0.550 -0.3990  0.4060 -0.0489
 3595TIP3    H132200   3.611   2.340   0.471 -0.6934 -1.0416  0.9375
 3595TIP3    H232201   3.549   2.456   0.546  0.1098  0.9482 -1.3593
 3596TIP3   OH232202   0.051   1.960   4.956  0.0033  0.0062 -0.4194
 3596TIP3    H132203   0.076   2.015   5.030  2.8947 -1.2733 -0.3132
 3596TIP3    H232204  -0.045   1.966   4.953  0.0168  2.8500  1.2039
 3597TIP3   OH232205   1.299   5.834   1.613 -0.4678 -0.6434  0.2914
 3597TIP3    H132206   1.220   5.794   1.577 -0.7899 -0.1276  0.4202
 3597TIP3    H232207   1.268   5.882   1.690 -0.2455  0.6342 -0.3908
 3598TIP3   OH232208   2.285   3.968   1.989 -0.2921 -0.1283  0.4829
 3598TIP3    H132209   2.277   3.914   2.067 -1.7705 -2.3358 -1.0488
 3598TIP3    H232210   2.207   4.025   1.991 -1.5961 -1.7805 -0.4139
 3599TIP3   OH232211   4.121   6.795  13.200 -0.6426 -0.9859 -0.0942
 3599TIP3    H132212   4.085   6.787  13.288  0.6271  0.3540  0.6000
 3599TIP3    H232213   4.207   6.753  13.205 -0.8726 -1.5896 -0.9245
 3600TIP3   OH232214   3.753   3.011  17.022 -0.2384  0.2692  0.0867
 3600TIP3    H132215   3.723   3.008  17.113  1.6329 -1.3801  0.7206
 3600TIP3    H232216   3.776   3.102  17.007 -4.4614  1.4974 -0.1749
 3601TIP3   OH232217   0.954   4.241   5.113 -0.2256  0.4931  0.3216
 3601TIP3    H132218   0.937   4.292   5.192  0.1787  1.5322 -0.2515
 3601TIP3    H232219   0.965   4.151   5.145 -2.4622  0.4618  1.1913
 3602TIP3   OH232220   6.457   6.058   5.288 -0.2991 -0.0880 -0.1396
 3602TIP3    H132221   6.456   5.987   5.224  1.4308 -0.3509  0.0517
 3602TIP3    H232222   6.387   6.037   5.350  1.1646 -2.5552  0.8159
 3603TIP3   OH232223   4.943   1.331   1.117  0.7203  0.4498  0.7014
 3603TIP3    H132224   4.975   1.276   1.045  1.1774  0.4221  0.9211
 3603TIP3    H232225   5.005   1.315   1.189  0.5800  0.8907  0.9251
 3604TIP3   OH232226   0.058   2.656   5.407  0.0344  0.6188  0.3715
 3604TIP3    H132227   0.089   2.586   5.464  0.9553  1.5885  1.1094
 3604TIP3    H232228   0.033   2.612   5.326  3.1768 -0.2858 -0.2100
 3605TIP3   OH232229   0.219   5.817  13.080 -0.0641 -0.3503 -0.1683
 3605TIP3    H132230   0.247   5.736  13.037 -0.2899  0.1205 -1.2382
 3605TIP3    H232231   0.301   5.859  13.105  0.2288  0.4590 -2.2439
 3606TIP3   OH232232   3.641   0.015  10.618  0.0599  0.3508  0.4074
 3606TIP3    H132233   3.624  -0.058  10.678  0.8342 -0.2918 -0.1404
 3606TIP3    H232234   3.558   0.025  10.570  0.0444 -0.3940  0.2535
 3607TIP3   OH232235   3.550   3.388   3.741 -0.9810 -0.5867  0.2024
 3607TIP3    H132236   3.481   3.363   3.802  0.9237 -1.0740  2.3136
 3607TIP3    H232237   3.579   3.474   3.771 -0.2850 -0.6480 -0.2644
 3608TIP3   OH232238   2.364   1.448  15.386  0.5689 -0.2597 -0.3902
 3608TIP3    H132239   2.373   1.522  15.447 -0.6398 -0.6274  0.2738
 3608TIP3    H232240   2.437   1.458  15.325  0.9271  0.9895  0.2083
 3609TIP3   OH232241   4.249   4.956  12.098 -0.6661 -0.4163 -0.4483
 3609TIP3    H132242   4.325   4.904  12.124 -1.6997 -0.8686  1.8592
 3609TIP3    H232243   4.206   4.902  12.032 -0.2492 -1.2293 -0.0720
 3610TIP3   OH232244   4.311   1.751  12.989  0.0108  0.3153  0.5619
 3610TIP3    H132245   4.367   1.768  12.913  0.9312  0.8640  1.3356
 3610TIP3    H232246   4.371   1.719  13.056 -1.0000 -1.5735  0.6349
 3611TIP3   OH232247   0.427   5.831   3.832 -0.1207  0.5506  0.4154
 3611TIP3    H132248   0.378   5.750   3.846 -0.7443  1.0056  0.8995
 3611TIP3    H232249   0.490   5.833   3.904  0.1941  0.2802  0.1513
 3612TIP3   OH232250   1.792   5.741   4.391  0.0834  0.2126 -0.2581
 3612TIP3    H132251   1.885   5.723   4.392  0.0160 -0.1997 -0.9998
 3612TIP3    H232252   1.762   5.712   4.305 -1.1835 -1.9312  0.8272
 3613TIP3   OH232253   4.713   1.570   3.308 -0.1753  0.2894 -0.5378
 3613TIP3    H132254   4.754   1.483   3.312 -0.3998  0.2252  1.3872
 3613TIP3    H232255   4.628   1.559   3.351  0.5834  1.8325  1.5496
 3614TIP3   OH232256   2.178   6.261   5.122  0.2252 -0.4504  0.8429
 3614TIP3    H132257   2.123   6.313   5.062  1.4373  0.0984  0.1829
 3614TIP3    H232258   2.154   6.293   5.209 -0.0190  0.2782  0.5205
 3615TIP3   OH232259   3.524   4.599  14.250  0.4329 -0.3081 -0.1273
 3615TIP3    H132260   3.474   4.563  14.324  1.2859  0.0870  0.6636
 3615TIP3    H232261   3.463   4.598  14.177  0.1243 -2.4614  0.0932
 3616TIP3   OH232262   2.271   2.043   0.562  0.1763 -0.1171  0.2206
 3616TIP3    H132263   2.284   1.974   0.497 -1.6860  0.0972 -0.4356
 3616TIP3    H232264   2.182   2.075   0.546  0.2087  0.9605  1.9196
 3617TIP3   OH232265   4.028   1.750   1.984 -0.2703  0.2129 -0.1186
 3617TIP3    H132266   3.993   1.828   1.941 -2.2409 -0.6477 -0.1926
 3617TIP3    H232267   4.031   1.684   1.915  0.3364 -0.0928  0.1912
 3618TIP3   OH232268   2.632   0.871   3.620  0.2684 -0.0617 -0.2593
 3618TIP3    H132269   2.562   0.920   3.577  0.5128 -1.1077 -1.9748
 3618TIP3    H232270   2.704   0.874   3.558  2.9074  3.3325  2.5717
 3619TIP3   OH232271   4.023   5.658   5.386  0.2565 -0.7139 -0.2201
 3619TIP3    H132272   4.033   5.752   5.404 -1.0709 -0.5224 -0.4081
 3619TIP3    H232273   4.022   5.653   5.290  0.5308 -0.9444 -0.2105
 3620TIP3   OH232274   1.502   2.567  10.733  0.3224 -0.3906  0.1950
 3620TIP3    H132275   1.456   2.483  10.727  0.4800 -0.9083  3.9204
 3620TIP3    H232276   1.467   2.608  10.812  2.0558  1.9252 -0.1313
 3621TIP3   OH232277   0.315   6.619   3.764 -0.3392 -0.4069  0.1670
 3621TIP3    H132278   0.240   6.566   3.736  1.1359 -2.6365  0.2242
 3621TIP3    H232279   0.319   6.607   3.859 -0.0362 -0.1304  0.1911
 3622TIP3   OH232280   4.564   5.758  13.014  0.1352  0.3010  0.3894
 3622TIP3    H132281   4.652   5.779  13.044 -0.3553  2.1425  0.6162
 3622TIP3    H232282   4.507   5.818  13.061 -1.2512 -0.7686  0.1470
 3623TIP3   OH232283   2.472   4.279   4.986 -0.6553 -0.0870  0.2532
 3623TIP3    H132284   2.410   4.350   5.001 -1.4723 -1.0372  1.5310
 3623TIP3    H232285   2.492   4.244   5.073  1.5777  0.0759 -0.1248
 3624TIP3   OH232286   4.149   2.177  11.033  0.4040 -0.2140  0.1965
 3624TIP3    H132287   4.212   2.114  11.067 -0.5575 -0.2769  1.9432
 3624TIP3    H232288   4.071   2.125  11.014  0.4522  0.0590 -0.8216
 3625TIP3   OH232289   2.180   1.578  15.890 -0.0296  0.1515 -0.2512
 3625TIP3    H132290   2.219   1.574  15.803 -1.2164  1.0403 -0.8620
 3625TIP3    H232291   2.086   1.585  15.873 -0.2796  0.2828  1.1030
 3626TIP3   OH232292   6.215   5.242  15.249 -0.1830  0.5044  0.9908
 3626TIP3    H132293   6.262   5.213  15.171 -3.3867 -1.2244 -0.5388
 3626TIP3    H232294   6.216   5.338  15.244  1.5835  0.4777  0.1198
 3627TIP3   OH232295   0.587   0.876  12.685  0.3812 -0.4063  0.0700
 3627TIP3    H132296   0.677   0.871  12.652 -0.1287  0.5088 -1.5592
 3627TIP3    H232297   0.535   0.832  12.617 -0.4181 -0.9671  1.0210
 3628TIP3   OH232298   5.967   2.040  12.015 -0.0225 -0.0622 -0.1926
 3628TIP3    H132299   5.924   1.958  12.040 -0.1283 -0.1862 -0.7678
 3628TIP3    H232300   5.901   2.107  12.031 -1.0934 -0.4213 -2.6677
 3629TIP3   OH232301   1.037   4.980   5.840 -0.5877 -0.0253  0.2695
 3629TIP3    H132302   1.019   5.058   5.788 -0.4249  0.0652  0.3479
 3629TIP3    H232303   1.023   5.007   5.931  2.4934  0.8476  0.6021
 3630TIP3   OH232304   6.390   5.933   0.242  0.1654 -0.4370  0.3879
 3630TIP3    H132305   6.375   5.881   0.163 -0.1608 -0.8598  0.7243
 3630TIP3    H232306   6.468   5.985   0.222 -0.1642 -0.2231 -0.3700
 3631TIP3   OH232307   1.247   2.572   0.584  0.7454  0.3132  0.0545
 3631TIP3    H132308   1.306   2.512   0.540  1.8053  1.2909  0.1027
 3631TIP3    H232309   1.298   2.652   0.596 -1.2545  2.0893 -2.0469
 3632TIP3   OH232310   5.382   2.766   5.276  0.1478  0.2145 -0.4276
 3632TIP3    H132311   5.464   2.718   5.264  0.1175 -0.2453  1.0004
 3632TIP3    H232312   5.331   2.712   5.337 -0.0835  1.8182  0.8708
 3633TIP3   OH232313   4.368   5.979   3.137  0.6480  0.0762  0.1266
 3633TIP3    H132314   4.406   6.050   3.087  1.3746 -0.1025  0.4071
 3633TIP3    H232315   4.444   5.931   3.172  0.1647 -0.2947  0.6859
 3634TIP3   OH232316   0.576   0.897  11.382  0.2867  0.2802  0.0083
 3634TIP3    H132317   0.621   0.835  11.439 -1.0661 -0.0071  0.8262
 3634TIP3    H232318   0.602   0.983  11.415 -0.6710  0.1236  1.2903
 3635TIP3   OH232319   5.202   3.647  17.087  0.2231  0.0513 -0.6215
 3635TIP3    H132320   5.273   3.612  17.034  0.1894 -0.0324 -0.6111
 3635TIP3    H232321   5.135   3.578  17.085  0.2580  0.0115 -0.3981
 3636TIP3   OH232322   2.437   2.758   3.696  0.3401  0.2099 -0.1740
 3636TIP3    H132323   2.499   2.746   3.768  0.9480  0.0544 -0.7094
 3636TIP3    H232324   2.463   2.693   3.631 -1.1364 -0.6533  0.0803
 3637TIP3   OH232325   4.365   4.795   0.241  0.6374 -0.4501  0.2558
 3637TIP3    H132326   4.375   4.809   0.147  0.4946 -0.9227  0.1659
 3637TIP3    H232327   4.329   4.706   0.248  1.9556 -0.9701  0.8088
 3638TIP3   OH232328   6.579   1.369   0.618 -0.0016  0.5747 -0.2374
 3638TIP3    H132329   6.653   1.308   0.624  0.2926  0.9599  0.1525
 3638TIP3    H232330   6.545   1.357   0.530  0.8709  0.7803 -0.6179
 3639TIP3   OH232331   5.558   0.987   2.037 -0.3773  0.4864 -0.9302
 3639TIP3    H132332   5.523   0.939   2.112  3.2447  0.1997  0.8122
 3639TIP3    H232333   5.591   1.069   2.074 -0.1496  1.1804 -2.5755
 3640TIP3   OH232334   5.240   5.621  14.695 -0.3808  0.1435 -0.1895
 3640TIP3    H132335   5.299   5.556  14.657 -1.7497 -0.6371 -1.0357
 3640TIP3    H232336   5.162   5.618  14.641 -2.5759 -1.2301  2.7715
 3641TIP3   OH232337   2.575   2.371   0.390  0.0442 -0.1649 -0.6414
 3641TIP3    H132338   2.562   2.465   0.377  1.6028 -0.0142 -1.2540
 3641TIP3    H232339   2.519   2.329   0.324 -0.5172  0.3190 -0.4847
 3642TIP3   OH232340   5.336   3.522  13.505 -0.2243 -0.5337  0.1940
 3642TIP3    H132341   5.355   3.429  13.493 -1.4577 -0.8311  0.4028
 3642TIP3    H232342   5.395   3.567  13.444 -0.8759 -1.5624 -1.2786
 3643TIP3   OH232343   5.791   0.386   5.931  0.2932  0.4929 -0.5052
 3643TIP3    H132344   5.763   0.328   6.001 -1.1279 -2.4081 -3.1909
 3643TIP3    H232345   5.886   0.375   5.926  0.1621 -0.9008 -0.3097
 3644TIP3   OH232346   0.661   3.848   2.721 -0.0793  0.5456 -0.1717
 3644TIP3    H132347   0.573   3.884   2.709 -0.3971 -0.1124  0.1630
 3644TIP3    H232348   0.720   3.920   2.697 -0.6896  0.4518 -2.0637
 3645TIP3   OH232349   2.550   6.584  15.583 -0.0160 -0.2244  0.4957
 3645TIP3    H132350   2.490   6.649  15.545  0.2175 -0.9750 -1.2734
 3645TIP3    H232351   2.630   6.593  15.532  0.0174 -1.8715  0.2024
 3646TIP3   OH232352   2.705   0.545   1.461 -0.2910  0.2748 -0.0922
 3646TIP3    H132353   2.709   0.587   1.375  0.8610  0.7723  0.1814
 3646TIP3    H232354   2.612   0.544   1.483 -0.5205  0.9340 -0.9666
 3647TIP3   OH232355   0.062   0.546   0.120  0.0208 -0.0382  0.7010
 3647TIP3    H132356   0.044   0.600   0.198  1.2765  1.4692 -0.0022
 3647TIP3    H232357   0.157   0.549   0.109  0.0121 -1.4973 -0.0304
 3648TIP3   OH232358   1.386   4.557  11.499 -0.1964 -0.7986  0.3568
 3648TIP3    H132359   1.439   4.636  11.507 -0.7918 -0.4623  1.1529
 3648TIP3    H232360   1.367   4.550  11.405  0.2977 -0.2849  0.2139
 3649TIP3   OH232361   0.476   0.752  11.149 -0.3455  0.0099 -0.2632
 3649TIP3    H132362   0.517   0.807  11.216 -0.7055  0.3598 -0.3227
 3649TIP3    H232363   0.406   0.706  11.196 -1.2769  1.0253 -0.5822
 3650TIP3   OH232364   6.252   1.116   0.256  0.5095 -0.3732  0.3894
 3650TIP3    H132365   6.204   1.034   0.243 -1.5819  0.9807 -1.1687
 3650TIP3    H232366   6.197   1.183   0.214  2.8985  1.6059  0.1688
 3651TIP3   OH232367   2.838   2.600  14.605 -0.6096 -0.0252 -0.4704
 3651TIP3    H132368   2.834   2.541  14.529 -0.9809  0.5163 -0.8817
 3651TIP3    H232369   2.835   2.688  14.567  0.9733  0.2895  0.0729
 3652TIP3   OH232370   2.835   3.729  13.475  0.4429 -0.1879  0.0556
 3652TIP3    H132371   2.746   3.754  13.454  0.7221 -0.2360 -1.2829
 3652TIP3    H232372   2.878   3.811  13.500  0.4938  0.1458 -1.0933
 3653TIP3   OH232373   2.227   4.110   2.926  0.0849  0.0610  0.2894
 3653TIP3    H132374   2.278   4.113   2.845 -0.5567 -0.7565 -0.1695
 3653TIP3    H232375   2.244   4.022   2.961 -1.0404 -0.2412  0.1000
 3654TIP3   OH232376   2.753   2.905   4.757  0.2119  0.2056 -0.0396
 3654TIP3    H132377   2.762   3.000   4.764  1.2699  0.0241  1.3750
 3654TIP3    H232378   2.820   2.880   4.693  1.1653  0.2355  0.9260
 3655TIP3   OH232379   4.970   2.223   0.172 -0.2013 -0.8019  0.0657
 3655TIP3    H132380   4.930   2.154   0.225  0.9454 -1.3015  0.3140
 3655TIP3    H232381   4.992   2.180   0.089 -0.1064 -0.5628 -0.0331
 3656TIP3   OH232382   5.871   1.389   2.443  0.2707  0.1686 -0.2739
 3656TIP3    H132383   5.953   1.439   2.445 -0.0522  0.6846  0.3291
 3656TIP3    H232384   5.836   1.397   2.531 -0.0837 -0.6436 -0.3298
 3657TIP3   OH232385   2.708   2.468   1.541 -0.9602 -0.4834 -0.3468
 3657TIP3    H132386   2.713   2.553   1.586  1.2770 -0.9171  0.3277
 3657TIP3    H232387   2.637   2.422   1.586 -0.9050  0.3102  0.5847
 3658TIP3   OH232388   1.437   5.466   5.739  0.0068 -0.7991 -0.2115
 3658TIP3    H132389   1.367   5.516   5.698  0.2986 -0.9411 -0.9004
 3658TIP3    H232390   1.495   5.532   5.778 -0.9636 -0.7115  1.1450
 3659TIP3   OH232391   3.245   2.152   3.650 -0.2360  0.1916 -0.3901
 3659TIP3    H132392   3.216   2.242   3.634 -2.2531 -0.2201  0.6163
 3659TIP3    H232393   3.203   2.128   3.733  0.9360 -1.4052 -0.2203
 3660TIP3   OH232394   3.465   2.931  14.589  0.3119 -0.8635 -0.2741
 3660TIP3    H132395   3.393   2.896  14.642  0.3449  0.2669  0.5559
 3660TIP3    H232396   3.433   3.015  14.557  0.7818 -0.9498 -0.9910
 3661TIP3   OH232397   2.987   5.907  13.771 -0.7420  0.2789  0.2698
 3661TIP3    H132398   3.040   5.986  13.767 -1.2204  0.6887  1.6678
 3661TIP3    H232399   2.898   5.938  13.788 -0.8316 -0.5693  1.4838
 3662TIP3   OH232400   0.049   1.216  13.918 -0.4242 -0.0329 -0.7624
 3662TIP3    H132401  -0.014   1.160  13.873 -1.0218  2.4564 -3.3478
 3662TIP3    H232402  -0.003   1.259  13.986 -1.0856  0.5713 -1.6261
 3663TIP3   OH232403   1.288   6.263  16.916 -0.6237  0.3445 -0.4999
 3663TIP3    H132404   1.346   6.330  16.880 -0.1128 -0.3609 -1.0176
 3663TIP3    H232405   1.328   6.180  16.890 -3.4480 -0.2603 -3.6389
 3664TIP3   OH232406   3.539   2.223  14.997 -0.3307  0.0345  0.2423
 3664TIP3    H132407   3.573   2.178  15.074 -3.7470 -2.0219  0.7251
 3664TIP3    H232408   3.604   2.205  14.929  0.7101 -1.7397  1.6091
 3665TIP3   OH232409   0.531   5.584   4.972  0.0080  0.5533  0.0141
 3665TIP3    H132410   0.619   5.580   5.009  0.2908 -0.1551 -0.6918
 3665TIP3    H232411   0.518   5.497   4.933 -2.4289 -0.7095  3.2226
 3666TIP3   OH232412   5.804   6.474   4.622 -0.0765  0.0780  0.2460
 3666TIP3    H132413   5.852   6.392   4.612 -1.2070 -0.3973 -1.9321
 3666TIP3    H232414   5.712   6.448   4.623 -0.4017  1.1379  2.1387
 3667TIP3   OH232415   1.842   1.708  12.695 -0.3175 -0.1380 -0.2668
 3667TIP3    H132416   1.816   1.783  12.642 -1.4226 -0.6096 -0.4106
 3667TIP3    H232417   1.919   1.673  12.650 -0.8069 -0.0984 -1.1623
 3668TIP3   OH232418   2.010   1.363   1.272  0.1430 -0.2469 -0.4234
 3668TIP3    H132419   1.999   1.439   1.214 -0.2289  0.0255  0.0010
 3668TIP3    H232420   2.073   1.307   1.225 -0.8417 -0.4669 -1.5311
 3669TIP3   OH232421   1.196   3.648   6.253 -0.3304  0.6967  0.5488
 3669TIP3    H132422   1.271   3.589   6.254  0.0927  1.2023 -0.1955
 3669TIP3    H232423   1.217   3.715   6.318  1.7709  3.0684 -2.2821
 3670TIP3   OH232424   6.738   0.054   2.234  0.0969 -0.0697 -0.4756
 3670TIP3    H132425   6.757   0.001   2.157  0.5311 -1.7905  0.7601
 3670TIP3    H232426   6.806   0.121   2.234  1.0191 -0.9809 -0.7882
 3671TIP3   OH232427   5.660   4.655  13.763  0.0186  0.0293  0.9851
 3671TIP3    H132428   5.591   4.597  13.729  0.8857  0.4165 -1.6654
 3671TIP3    H232429   5.707   4.601  13.827 -0.6806 -1.3821  0.3517
 3672TIP3   OH232430   0.883   6.035  13.352  0.3683 -0.4435  0.2757
 3672TIP3    H132431   0.816   6.079  13.300  0.8570  0.2736  0.2329
 3672TIP3    H232432   0.954   6.099  13.359  0.2052 -0.4058  2.0732
 3673TIP3   OH232433   1.291   4.143   0.459  0.0208 -0.7660  0.1227
 3673TIP3    H132434   1.236   4.170   0.385  0.7157  1.3203  0.3136
 3673TIP3    H232435   1.243   4.170   0.537  1.2536  1.1169  0.2923
 3674TIP3   OH232436   4.601   3.691   1.505 -0.6773  0.1044 -0.4874
 3674TIP3    H132437   4.685   3.656   1.535 -0.5527  0.2005 -0.7179
 3674TIP3    H232438   4.580   3.760   1.568  0.0223  0.9194 -1.1125
 3675TIP3   OH232439   1.910   6.061  16.035 -0.0268  0.1037 -0.0947
 3675TIP3    H132440   1.976   6.073  15.967  1.2651 -0.8137  0.9613
 3675TIP3    H232441   1.901   5.967  16.044 -0.3991  0.2136  0.7920
 3676TIP3   OH232442   6.609   1.884  16.000  0.5180 -0.3546 -0.1876
 3676TIP3    H132443   6.543   1.953  16.006  1.6240  0.8603 -1.4078
 3676TIP3    H232444   6.598   1.834  16.081 -0.7811  0.8217  0.4107
 3677TIP3   OH232445   1.948   3.580   3.709  0.1493 -0.4479 -0.1630
 3677TIP3    H132446   1.918   3.651   3.653 -0.1766 -0.1331  0.3982
 3677TIP3    H232447   2.031   3.551   3.670 -0.3125 -0.5627 -1.0739
 3678TIP3   OH232448   2.423   5.588   3.718  0.1147 -0.1297 -0.0502
 3678TIP3    H132449   2.362   5.515   3.712 -0.6667  0.5033  0.0037
 3678TIP3    H232450   2.413   5.620   3.808 -1.7185  1.8597 -0.8825
 3679TIP3   OH232451   5.765   6.664   1.752  0.6131 -0.1597 -0.1199
 3679TIP3    H132452   5.685   6.704   1.717  1.6704  1.9143 -0.3014
 3679TIP3    H232453   5.767   6.577   1.713 -0.9304  0.1875 -1.0613
 3680TIP3   OH232454   4.232   5.845  15.150 -0.7789  0.1600 -0.5061
 3680TIP3    H132455   4.224   5.861  15.244  0.4454  1.3593 -0.5635
 3680TIP3    H232456   4.327   5.840  15.135 -0.9753 -1.7077 -1.4384
 3681TIP3   OH232457   5.361   2.985  13.508 -0.4426  0.5980  0.2560
 3681TIP3    H132458   5.430   2.936  13.554  0.1549  1.3493  0.1743
 3681TIP3    H232459   5.306   3.021  13.578 -2.0415 -1.7446  0.3143
 3682TIP3   OH232460   0.975   0.483  12.041  0.4307  0.6649 -0.0003
 3682TIP3    H132461   0.966   0.466  12.134  1.4316 -0.0291 -0.0156
 3682TIP3    H232462   0.886   0.475  12.007  0.3274 -1.1652  0.5810
 3683TIP3   OH232463   4.269   4.714   1.483 -0.2038 -0.2315 -0.1922
 3683TIP3    H132464   4.244   4.791   1.431 -2.1918  0.1335  1.1894
 3683TIP3    H232465   4.354   4.738   1.521 -0.1978  0.7527 -0.7807
 3684TIP3   OH232466   1.970   4.609  13.620  0.0051 -0.5186 -0.0188
 3684TIP3    H132467   1.977   4.704  13.611 -0.6438 -0.5096 -0.4865
 3684TIP3    H232468   2.055   4.576  13.592  1.9494  0.1341  4.3345
 3685TIP3   OH232469   3.960   0.597  10.622 -0.4870  0.9070 -0.0128
 3685TIP3    H132470   3.869   0.569  10.613 -0.9340  2.6110 -1.1488
 3685TIP3    H232471   3.964   0.636  10.709 -1.6008  3.2771 -0.9478
 3686TIP3   OH232472   2.111   2.254  14.773  0.3933  0.5027  0.1337
 3686TIP3    H132473   2.154   2.319  14.716 -1.2876  1.0156 -0.5975
 3686TIP3    H232474   2.019   2.257  14.748 -0.2005 -0.1347  2.0795
 3687TIP3   OH232475   4.616   0.047  13.610 -0.1773  0.2504 -0.1559
 3687TIP3    H132476   4.619  -0.045  13.639 -0.0179 -0.2255 -1.5951
 3687TIP3    H232477   4.683   0.091  13.662  1.6037 -1.0274 -1.2558
 3688TIP3   OH232478   0.562   0.728   1.080 -0.5401  0.0764 -0.1567
 3688TIP3    H132479   0.521   0.736   1.166 -0.2437  1.9967 -0.1574
 3688TIP3    H232480   0.637   0.787   1.083  0.7868 -1.4812 -1.0067
 3689TIP3   OH232481   5.361   4.312   2.358 -0.3015  0.0092  0.7995
 3689TIP3    H132482   5.286   4.370   2.369  0.2868  1.0697 -0.5243
 3689TIP3    H232483   5.433   4.359   2.399 -0.2138 -0.7073  1.4841
 3690TIP3   OH232484   0.697   1.355   0.823  0.0185  0.3630 -0.4919
 3690TIP3    H132485   0.696   1.286   0.757 -1.0909  0.0498 -0.1690
 3690TIP3    H232486   0.662   1.432   0.778 -0.9371  0.0955 -0.2401
 3691TIP3   OH232487   5.801   1.501  14.167 -0.0685  0.3074 -0.5122
 3691TIP3    H132488   5.853   1.551  14.103  0.4417  0.2841 -0.1258
 3691TIP3    H232489   5.779   1.420  14.122  0.7073  0.0793 -0.4936
 3692TIP3   OH232490   2.647   2.576   4.344 -0.8199  0.1938 -0.2712
 3692TIP3    H132491   2.561   2.606   4.371 -0.7087 -0.7491  1.2339
 3692TIP3    H232492   2.708   2.640   4.381 -0.7054 -0.7933  1.3330
 3693TIP3   OH232493   6.190   6.629  17.043  0.1503 -0.5848 -0.0528
 3693TIP3    H132494   6.283   6.635  17.064  0.8745  1.2848 -3.0649
 3693TIP3    H232495   6.150   6.701  17.091  0.5694 -0.4394  0.0866
 3694TIP3   OH232496   1.682   3.461  15.996 -0.1452 -0.1363 -0.2614
 3694TIP3    H132497   1.633   3.378  16.000  1.4157 -1.0435  1.9097
 3694TIP3    H232498   1.742   3.450  15.922 -1.4377 -0.0004 -1.3779
 3695TIP3   OH232499   4.316   0.125  16.720  0.0507  0.9846  0.1844
 3695TIP3    H132500   4.385   0.180  16.758  2.2335 -0.4200 -1.4811
 3695TIP3    H232501   4.347   0.035  16.733 -2.3971  0.1805  0.9798
 3696TIP3   OH232502   6.670   2.423  13.970 -0.3573  0.1088  0.6723
 3696TIP3    H132503   6.718   2.462  14.044  2.6472 -3.4396  0.8733
 3696TIP3    H232504   6.623   2.349  14.008  0.1651 -0.9851 -0.7337
 3697TIP3   OH232505   1.713   1.782  14.948  0.0146  0.3907  0.1891
 3697TIP3    H132506   1.646   1.715  14.936 -0.4893  0.7662  0.8258
 3697TIP3    H232507   1.772   1.746  15.013 -0.1156  0.4571  0.3452
 3698TIP3   OH232508   2.674   6.113   5.065 -0.3544  0.2896  0.1275
 3698TIP3    H132509   2.596   6.077   5.109 -2.5767  0.7166 -3.1561
 3698TIP3    H232510   2.739   6.043   5.073 -1.7991 -1.0341  1.0619
 3699TIP3   OH232511   2.519   2.106  16.661  0.3147  0.4049 -0.4650
 3699TIP3    H132512   2.455   2.172  16.688  0.7909  0.3080  0.9576
 3699TIP3    H232513   2.467   2.028  16.643 -0.0868  0.6736 -0.4864
 3700TIP3   OH232514   2.309   1.573  16.867  0.4302  0.5885  0.5710
 3700TIP3    H132515   2.393   1.609  16.840  0.6837 -1.8605 -2.4923
 3700TIP3    H232516   2.244   1.629  16.825  0.6102  0.7841  0.5530
 3701TIP3   OH232517   1.762   3.744   3.550 -0.0177  0.6651  0.5027
 3701TIP3    H132518   1.696   3.675   3.554  1.3084 -0.6049  1.7010
 3701TIP3    H232519   1.712   3.825   3.548 -1.6180 -0.3029 -0.1572
 3702TIP3   OH232520   1.706   0.121  16.692  0.5219 -0.0818  0.2434
 3702TIP3    H132521   1.782   0.063  16.683 -0.0617 -0.7237 -0.7507
 3702TIP3    H232522   1.741   0.208  16.675  1.0105 -0.3938 -0.4071
 3703TIP3   OH232523   4.531   5.984   0.588  0.4119 -0.0646 -0.1573
 3703TIP3    H132524   4.522   5.893   0.560  2.1710 -0.1539 -0.5400
 3703TIP3    H232525   4.465   6.031   0.536  0.6252 -0.8829 -1.2154
 3704TIP3   OH232526   0.218   5.927   0.523  0.4903  0.6000 -0.2886
 3704TIP3    H132527   0.255   6.015   0.511  1.5397  0.3535  0.9094
 3704TIP3    H232528   0.231   5.884   0.439  0.2348  1.4932 -0.7971
 3705TIP3   OH232529   3.400   4.821  12.896  0.6466 -0.6814 -0.3785
 3705TIP3    H132530   3.319   4.872  12.900  0.2541 -1.2934 -0.4898
 3705TIP3    H232531   3.452   4.852  12.970 -0.2877 -1.2959  0.5564
 3706TIP3   OH232532   1.089   5.162  15.745  0.2144  0.5082 -0.4580
 3706TIP3    H132533   1.108   5.184  15.836  1.8378 -0.9139 -0.4025
 3706TIP3    H232534   1.014   5.102  15.751  1.9761 -1.7523  0.2397
 3707TIP3   OH232535   0.113   3.634   5.726  0.2356  0.1331 -0.4039
 3707TIP3    H132536   0.024   3.620   5.695 -0.2941  2.0595  0.1513
 3707TIP3    H232537   0.106   3.706   5.789  1.6184 -1.9665  2.3741
 3708TIP3   OH232538   5.597   5.694  16.811  0.0948  0.1521  0.0097
 3708TIP3    H132539   5.588   5.751  16.735 -0.0695  0.1351  0.0163
 3708TIP3    H232540   5.622   5.609  16.774  1.4325  0.5003  0.0776
 3709TIP3   OH232541   1.588   0.138  14.916  0.9586 -0.3997  0.2755
 3709TIP3    H132542   1.561   0.104  14.830 -1.6100 -0.5836  1.0761
 3709TIP3    H232543   1.659   0.080  14.942  1.2520 -0.8468 -1.3652
 3710TIP3   OH232544   1.542   6.574   4.079 -0.4083 -0.1820  0.0349
 3710TIP3    H132545   1.608   6.505   4.073 -1.5562 -1.2336 -1.0736
 3710TIP3    H232546   1.528   6.586   4.173  0.1358 -1.1521  0.2519
 3711TIP3   OH232547   0.605   3.816  11.422  0.0813 -0.3395  0.1365
 3711TIP3    H132548   0.529   3.867  11.449  0.4593  0.3954 -0.1593
 3711TIP3    H232549   0.665   3.880  11.384 -0.0939 -1.2405 -1.7364
 3712TIP3   OH232550   5.734   5.067   2.951 -0.5812 -0.2499  0.0161
 3712TIP3    H132551   5.651   5.081   2.906 -0.1066 -0.6948 -1.0343
 3712TIP3    H232552   5.800   5.096   2.888  0.0367  1.4317  1.3388
 3713TIP3   OH232553   2.876   0.220   2.039 -0.2708  0.1424 -0.1947
 3713TIP3    H132554   2.923   0.272   1.974 -0.9677 -0.5909 -1.3335
 3713TIP3    H232555   2.804   0.276   2.068  0.3621  0.6790  0.3803
 3714TIP3   OH232556   5.540   2.121  12.305 -0.0792  0.3889 -0.1538
 3714TIP3    H132557   5.451   2.118  12.341 -0.0510 -0.9907 -0.1670
 3714TIP3    H232558   5.539   2.060  12.232  1.2200 -0.6243  0.6328
 3715TIP3   OH232559   4.304   4.505   0.233 -0.4166  0.4487 -0.2562
 3715TIP3    H132560   4.228   4.508   0.175  0.2166  1.0755 -1.0782
 3715TIP3    H232561   4.283   4.436   0.297 -1.0795 -0.3473 -1.3044
 3716TIP3   OH232562   3.614   5.973  14.844  0.5137  0.2826 -0.2239
 3716TIP3    H132563   3.698   6.011  14.869  1.5655 -0.8497 -1.8749
 3716TIP3    H232564   3.591   6.017  14.762 -0.7594  0.9006  0.4295
 3717TIP3   OH232565   4.456   5.126  12.875 -0.6922 -0.0236 -0.0051
 3717TIP3    H132566   4.440   5.063  12.804 -0.2828  2.0123 -2.0001
 3717TIP3    H232567   4.374   5.174  12.884 -0.1955  0.9210 -0.3628
 3718TIP3   OH232568   2.770   6.285  12.027  0.7060 -0.0618 -0.3926
 3718TIP3    H132569   2.744   6.203  12.070 -0.6056  0.7951  0.5096
 3718TIP3    H232570   2.763   6.351  12.095  1.8075  0.8074 -1.1013
 3719TIP3   OH232571   4.748   6.107   4.267  0.3659  0.3440  0.1758
 3719TIP3    H132572   4.746   6.094   4.362  0.5612  0.5258  0.2048
 3719TIP3    H232573   4.683   6.046   4.234  2.9783 -2.6348  0.0862
 3720TIP3   OH232574   5.876   5.381  14.416 -0.3150 -0.2104 -0.2639
 3720TIP3    H132575   5.896   5.473  14.432  1.4271 -0.8123  1.5213
 3720TIP3    H232576   5.912   5.335  14.493  1.3634 -2.6366 -2.3147
 3721TIP3   OH232577   4.724   1.342   2.822  0.6712 -0.1188 -0.3290
 3721TIP3    H132578   4.745   1.271   2.883  2.8811  0.4693 -0.3542
 3721TIP3    H232579   4.738   1.304   2.735  0.6254 -0.0166 -0.3806
 3722TIP3   OH232580   4.498   0.404  12.452  0.0220 -0.0703 -0.0501
 3722TIP3    H132581   4.518   0.479  12.396  3.5780 -0.9871 -0.2023
 3722TIP3    H232582   4.476   0.442  12.537 -0.2471  1.1564 -0.6502
 3723TIP3   OH232583   4.059   2.329  17.083  0.3287 -0.2755 -0.2126
 3723TIP3    H132584   4.078   2.388  17.010  1.2341 -0.1122  0.1423
 3723TIP3    H232585   4.090   2.376  17.160 -0.2491 -0.6196  0.2320
 3724TIP3   OH232586   4.890   2.356  12.854 -0.5255 -0.8976 -0.2809
 3724TIP3    H132587   4.956   2.293  12.882 -0.4108 -0.9354 -0.6413
 3724TIP3    H232588   4.807   2.309  12.865 -0.4656 -0.9909 -0.2206
 3725TIP3   OH232589   5.968   1.174  13.871  0.1603  0.2822  0.1220
 3725TIP3    H132590   5.915   1.212  13.941  2.6355  1.4468  1.4785
 3725TIP3    H232591   6.038   1.237  13.856  0.7789 -0.8124 -2.1464
 3726TIP3   OH232592   4.678   4.172  16.514  0.5521  0.3535 -0.4715
 3726TIP3    H132593   4.748   4.227  16.478  0.8169 -0.4760 -1.2415
 3726TIP3    H232594   4.673   4.097  16.456 -0.1064 -0.2441  0.3241
 3727TIP3   OH232595   2.255   6.657  10.768  0.2252  0.0515 -0.2386
 3727TIP3    H132596   2.229   6.599  10.696 -1.8130 -0.1489  0.5936
 3727TIP3    H232597   2.214   6.741  10.747  2.2744  0.9413 -0.8866
 3728TIP3   OH232598   2.698   5.515   0.006  0.4758  0.2545 -0.0318
 3728TIP3    H132599   2.793   5.517   0.014  0.4886 -0.0592 -0.0968
 3728TIP3    H232600   2.680   5.554  -0.079  0.5054  0.9392  0.2691
 3729TIP3   OH232601   0.679   5.219  10.306 -0.9580  0.4160  0.2525
 3729TIP3    H132602   0.607   5.212  10.244  0.2812 -1.0483 -1.1170
 3729TIP3    H232603   0.722   5.301  10.283  0.3564 -0.7782 -1.9351
 3730TIP3   OH232604   4.311   2.800  16.248 -0.5808 -0.3327  0.4111
 3730TIP3    H132605   4.230   2.807  16.197 -0.8207 -1.4824  0.6082
 3730TIP3    H232606   4.380   2.798  16.182 -0.8521 -1.2009  0.1260
 3731TIP3   OH232607   2.662   6.001  11.761  0.1984  0.7152  0.1948
 3731TIP3    H132608   2.599   6.052  11.811  0.9679  0.8699  1.0202
 3731TIP3    H232609   2.608   5.950  11.700 -0.7532  0.5734  1.1216
 3732TIP3   OH232610   3.217   5.986  14.727 -0.0959  0.9179 -0.2088
 3732TIP3    H132611   3.132   5.943  14.724  0.8885 -1.1423 -0.0885
 3732TIP3    H232612   3.271   5.938  14.664  0.9169  2.3696 -0.5035
 3733TIP3   OH232613   1.154   4.718   3.655 -0.1361 -0.0015  0.0994
 3733TIP3    H132614   1.188   4.629   3.646  0.1488  0.1317 -0.1775
 3733TIP3    H232615   1.232   4.771   3.672 -0.3162  0.1833  0.3538
 3734TIP3   OH232616   3.038   0.143   4.828 -0.5735 -0.2978  0.3658
 3734TIP3    H132617   3.021   0.232   4.861 -0.0967 -0.3624  0.8112
 3734TIP3    H232618   3.083   0.157   4.745 -1.7964 -0.1311 -0.2871
 3735TIP3   OH232619   3.893   1.334  15.111 -1.1781 -0.3469  0.3672
 3735TIP3    H132620   3.935   1.347  15.196 -0.3637 -0.9358  0.0643
 3735TIP3    H232621   3.818   1.393  15.113 -0.1863  0.9533  0.8062
 3736TIP3   OH232622   4.623   6.085  16.284 -0.2039  0.2646  0.4702
 3736TIP3    H132623   4.617   6.168  16.332  1.1975  1.0130 -0.5587
 3736TIP3    H232624   4.717   6.073  16.272 -0.3295 -1.9294  1.3194
 3737TIP3   OH232625   5.540   3.078   6.330 -0.6876 -0.1921 -0.3551
 3737TIP3    H132626   5.577   3.099   6.416  0.7778 -0.0511 -0.9883
 3737TIP3    H232627   5.450   3.108   6.335 -0.3802  0.6103  0.8542
 3738TIP3   OH232628   5.357   5.530  16.934  0.0594 -0.5421 -0.8145
 3738TIP3    H132629   5.292   5.476  16.889  0.0086 -0.3228 -1.0038
 3738TIP3    H232630   5.360   5.611  16.884  1.4749 -1.0668 -1.6415
 3739TIP3   OH232631   2.239   5.085   0.920 -0.2512  0.0128 -0.2112
 3739TIP3    H132632   2.198   4.998   0.921  0.1900 -0.1923  0.2866
 3739TIP3    H232633   2.235   5.115   1.011  0.3605  0.1479 -0.2234
 3740TIP3   OH232634   0.050   5.453   3.105 -0.3079 -0.2704  0.2712
 3740TIP3    H132635   0.076   5.545   3.119 -1.2993  0.0401  0.1112
 3740TIP3    H232636   0.075   5.435   3.014  1.1034 -0.5876  0.6954
 3741TIP3   OH232637   5.227   3.616   4.327 -0.2357 -0.0105 -0.5827
 3741TIP3    H132638   5.284   3.541   4.342 -1.4676 -0.7155  0.8709
 3741TIP3    H232639   5.257   3.682   4.389 -1.5706 -0.7676  0.9692
 3742TIP3   OH232640   5.564   0.401   4.666  0.0471  0.3463 -0.2926
 3742TIP3    H132641   5.648   0.408   4.621  0.7085 -1.3054  0.5968
 3742TIP3    H232642   5.587   0.383   4.757 -1.2759  1.7958  0.3651
 3743TIP3   OH232643   5.146   3.316  14.868 -0.1524  0.0417 -0.0799
 3743TIP3    H132644   5.205   3.391  14.868 -0.6670  0.5269  2.0797
 3743TIP3    H232645   5.199   3.243  14.900 -0.8572  0.7342  3.0301
 3744TIP3   OH232646   0.705   2.591  15.682 -0.9892 -0.1015  0.3048
 3744TIP3    H132647   0.638   2.529  15.652  0.5803 -1.7963  0.1460
 3744TIP3    H232648   0.695   2.667  15.624 -1.8852 -0.8824 -0.5998
 3745TIP3   OH232649   6.607   3.742  11.998  0.6749 -0.0496  0.2026
 3745TIP3    H132650   6.593   3.716  11.907  2.1308 -1.7347  0.4121
 3745TIP3    H232651   6.674   3.810  11.993  0.2577  0.3512 -0.0179
 3746TIP3   OH232652   3.856   0.518  14.769  0.1952 -0.5294  0.2879
 3746TIP3    H132653   3.808   0.588  14.726  1.5914 -1.1073 -2.4049
 3746TIP3    H232654   3.801   0.494  14.844 -1.7633  1.4022 -0.4342
 3747TIP3   OH232655   6.428   1.386   5.190 -0.1236 -0.3189  0.2364
 3747TIP3    H132656   6.454   1.433   5.269 -0.9043  2.0668 -0.8173
 3747TIP3    H232657   6.502   1.397   5.130 -1.3194  1.9695 -0.9362
 3748TIP3   OH232658   2.272   4.186  15.187  0.2808  0.2491 -0.1607
 3748TIP3    H132659   2.269   4.225  15.274 -1.4587  1.3847 -0.6618
 3748TIP3    H232660   2.332   4.243  15.138 -0.2504  0.7862 -0.2015
 3749TIP3   OH232661   6.745   4.314  16.202 -0.4797  0.2764 -0.1963
 3749TIP3    H132662   6.741   4.220  16.181 -0.5358  0.0625  0.7180
 3749TIP3    H232663   6.828   4.343  16.164  0.1671 -0.4455  0.5913
 3750TIP3   OH232664   2.000   3.863  10.726  0.4080  0.2132 -0.4372
 3750TIP3    H132665   1.910   3.895  10.717  0.2935 -0.0389 -0.2111
 3750TIP3    H232666   2.032   3.857  10.636  0.1674  0.2250 -0.5255
 3751TIP3   OH232667   1.143   3.040  16.565 -0.0094 -0.6584 -0.6680
 3751TIP3    H132668   1.055   3.070  16.544 -0.3179 -1.7567 -0.9853
 3751TIP3    H232669   1.171   2.991  16.487 -0.7485 -3.8669  0.9176
 3752TIP3   OH232670   6.526   6.425  15.690 -0.4004  0.1570 -0.1768
 3752TIP3    H132671   6.526   6.392  15.600  0.1813 -0.5797  0.0855
 3752TIP3    H232672   6.448   6.386  15.729 -0.2031 -0.1881 -0.1252
 3753TIP3   OH232673   4.635   5.962   3.015 -0.0825 -0.0807  0.2224
 3753TIP3    H132674   4.604   6.051   3.004 -0.5487 -0.3032 -0.2804
 3753TIP3    H232675   4.696   5.948   2.942 -1.9930 -1.0341 -1.2745
 3754TIP3   OH232676   1.938   6.363   3.180  0.4542  0.1388 -0.1447
 3754TIP3    H132677   1.891   6.444   3.199 -0.8638 -0.5542 -0.3438
 3754TIP3    H232678   1.872   6.305   3.142  1.3018 -1.1276  0.2450
 3755TIP3   OH232679   0.845   1.803  15.227  0.3312  0.0357  0.0114
 3755TIP3    H132680   0.761   1.805  15.182  0.6380  3.1361 -0.6599
 3755TIP3    H232681   0.834   1.859  15.303  1.4461 -0.5807  0.6623
 3756TIP3   OH232682   0.259   4.695  12.783  0.1660 -0.3851  0.2200
 3756TIP3    H132683   0.320   4.647  12.726  0.4802  2.1613 -1.7973
 3756TIP3    H232684   0.309   4.770  12.814 -0.5683 -0.7786  2.5267
 3757TIP3   OH232685   6.004   1.547   1.845  0.8633  1.0797 -0.0934
 3757TIP3    H132686   5.913   1.555   1.817 -0.0655  0.1076  2.3492
 3757TIP3    H232687   6.049   1.508   1.770 -1.7395 -2.8619  0.0815
 3758TIP3   OH232688   6.096   6.316   1.414 -0.0510  0.6782  0.4449
 3758TIP3    H132689   6.046   6.234   1.413  2.6179 -1.1126 -0.7381
 3758TIP3    H232690   6.095   6.344   1.505 -1.2044 -0.5519  0.8540
 3759TIP3   OH232691   0.821   3.395   1.234  0.2333  0.2220  0.3436
 3759TIP3    H132692   0.910   3.424   1.214  0.3879  0.1279  0.8869
 3759TIP3    H232693   0.812   3.311   1.189  0.3308  0.3482  0.0848
 3760TIP3   OH232694   1.788   0.401   1.332 -0.6691  0.4077  0.1263
 3760TIP3    H132695   1.703   0.357   1.342 -0.6537  0.4811  0.6230
 3760TIP3    H232696   1.830   0.389   1.417  0.6562 -1.3502 -0.7222
 3761TIP3   OH232697   0.526   2.739   3.403  0.1952  0.0391  0.1311
 3761TIP3    H132698   0.459   2.684   3.362 -1.5245  0.7159  1.8768
 3761TIP3    H232699   0.609   2.704   3.370 -0.9802 -0.8207 -2.1357
 3762TIP3   OH232700   3.893   4.131   0.503 -0.2543 -0.2654  0.1584
 3762TIP3    H132701   3.948   4.160   0.576  0.5004 -1.4164  0.0827
 3762TIP3    H232702   3.955   4.088   0.443 -0.9147  0.3694 -0.9964
 3763TIP3   OH232703   6.554   2.714   1.224  0.0879 -0.4608 -0.0672
 3763TIP3    H132704   6.609   2.786   1.192 -2.2655  1.1958 -0.6386
 3763TIP3    H232705   6.613   2.663   1.280  2.5765  0.3382 -1.7457
 3764TIP3   OH232706   2.118   3.133  11.971  1.0065  0.7040  0.0117
 3764TIP3    H132707   2.128   3.044  12.005 -1.1188 -0.4607 -2.0280
 3764TIP3    H232708   2.063   3.177  12.035  0.3244 -0.1659  0.0477
 3765TIP3   OH232709   5.208   3.098  13.716  0.6195 -0.6945  0.2507
 3765TIP3    H132710   5.230   3.040  13.789  2.3983  0.0155  0.3109
 3765TIP3    H232711   5.229   3.185  13.748  0.6150 -0.2894 -0.8296
 3766TIP3   OH232712   0.880   0.282   1.168  0.0380 -0.7253 -0.5018
 3766TIP3    H132713   0.871   0.265   1.262 -1.1864  0.6314 -0.3508
 3766TIP3    H232714   0.949   0.222   1.140  1.0534 -0.5295  1.4326
 3767TIP3   OH232715   3.575   1.641  16.326  0.1246  0.5761 -0.3572
 3767TIP3    H132716   3.498   1.645  16.268 -1.5049  1.4069  1.7216
 3767TIP3    H232717   3.554   1.570  16.388  2.7153 -1.6994 -1.8311
 3768TIP3   OH232718   0.956   2.889   2.210  0.0830 -0.2010  0.3229
 3768TIP3    H132719   0.905   2.882   2.130  0.1766  0.9044  0.1453
 3768TIP3    H232720   1.032   2.834   2.195  0.0727 -0.0450 -0.3323
 3769TIP3   OH232721   3.191   5.464  12.011 -0.2129  0.0661 -0.1756
 3769TIP3    H132722   3.147   5.416  11.940 -1.8919 -0.7478  1.3297
 3769TIP3    H232723   3.140   5.545  12.019 -0.3862 -0.0989  0.4431
 3770TIP3   OH232724   1.177   0.312  14.687 -0.1817 -0.4106 -0.2484
 3770TIP3    H132725   1.125   0.258  14.627  1.4171 -1.7721 -0.4619
 3770TIP3    H232726   1.253   0.259  14.708 -0.3491  0.2615  2.5209
 3771TIP3   OH232727   5.543   4.857   1.600  0.6050  0.1042  0.1831
 3771TIP3    H132728   5.456   4.846   1.639  0.8863  0.6994  1.0125
 3771TIP3    H232729   5.528   4.911   1.523  0.3471  0.9671  0.8207
 3772TIP3   OH232730   6.628   0.192  12.273  0.1986 -0.1725 -0.0571
 3772TIP3    H132731   6.644   0.161  12.362 -2.7156 -0.8092  0.3453
 3772TIP3    H232732   6.581   0.120  12.231  0.2545  0.6842 -1.6488
 3773TIP3   OH232733   0.006   6.195   0.081 -0.0728  0.5711 -0.8237
 3773TIP3    H132734   0.028   6.153  -0.002  0.3774 -1.7821  0.4009
 3773TIP3    H232735   0.086   6.192   0.132 -0.3911  1.8356 -0.2006
 3774TIP3   OH232736   3.545   3.691  13.779  0.3301  0.7744  0.0147
 3774TIP3    H132737   3.595   3.658  13.854  1.1807  1.1824 -0.3608
 3774TIP3    H232738   3.577   3.639  13.705 -1.9699 -1.1040  0.2024
 3775TIP3   OH232739   5.967   2.629  13.844  0.0475  0.9121  0.2869
 3775TIP3    H132740   6.058   2.651  13.863  0.3595  0.0775 -0.1687
 3775TIP3    H232741   5.919   2.656  13.922  0.8225  0.4763  0.9295
 3776TIP3   OH232742   4.977   0.399   3.639 -0.7123 -0.1055 -0.3025
 3776TIP3    H132743   5.005   0.467   3.701 -0.5771 -0.4840  0.0630
 3776TIP3    H232744   4.992   0.317   3.687 -0.5228 -0.4059 -0.8757
 3777TIP3   OH232745   2.685   4.691  11.915  0.0672 -0.6905 -0.3248
 3777TIP3    H132746   2.733   4.767  11.881 -2.3856  0.5614 -1.2778
 3777TIP3    H232747   2.594   4.721  11.920 -0.8296 -3.2654  0.3186
 3778TIP3   OH232748   0.252   3.319  15.445 -0.3601  0.3833  0.2921
 3778TIP3    H132749   0.286   3.367  15.521 -0.5387  0.8513  0.0779
 3778TIP3    H232750   0.261   3.227  15.469 -1.5775  0.5205  1.4102
 3779TIP3   OH232751   6.730   3.012  11.722  0.1769  0.2716  0.0677
 3779TIP3    H132752   6.694   3.019  11.811 -0.5864 -0.3184 -0.1870
 3779TIP3    H232753   6.802   3.076  11.721 -0.8121  1.4523  0.6224
 3780TIP3   OH232754   2.071   2.812  10.822  0.1386 -0.4812  0.0593
 3780TIP3    H132755   2.154   2.818  10.775  0.3290 -0.9285  0.3362
 3780TIP3    H232756   2.005   2.800  10.753  0.2621  0.1901 -0.1844
 3781TIP3   OH232757   6.011   3.687   2.731 -0.0872  0.3043 -0.2902
 3781TIP3    H132758   5.996   3.737   2.651 -0.5446  0.2067 -0.2717
 3781TIP3    H232759   5.938   3.711   2.789 -0.5410 -0.6709 -0.4285
 3782TIP3   OH232760   2.507   0.445  14.270 -0.3466  0.5287 -0.5166
 3782TIP3    H132761   2.459   0.515  14.313  1.2632  0.7535  1.0515
 3782TIP3    H232762   2.548   0.397  14.342  1.3124  0.0336 -1.7374
 3783TIP3   OH232763   0.044   5.872  14.765  0.1989  0.3019  0.1061
 3783TIP3    H132764  -0.027   5.910  14.817  0.1355 -0.7074  0.7828
 3783TIP3    H232765   0.003   5.803  14.713  0.6568 -0.2118  0.4152
 3784TIP3   OH232766   0.774   2.046  10.676  0.3196  0.3246 -0.1820
 3784TIP3    H132767   0.740   1.963  10.708  1.1895 -0.1707 -0.5091
 3784TIP3    H232768   0.856   2.024  10.633  0.9210  1.4440  0.3310
 3785TIP3   OH232769   1.435   0.063  12.223 -1.0027 -0.1304  0.0721
 3785TIP3    H132770   1.498  -0.006  12.202 -0.5572  0.0967  0.6288
 3785TIP3    H232771   1.489   0.137  12.251 -1.4900  0.3262 -0.1724
 3786TIP3   OH232772   5.154   1.738   3.193  0.3594  0.7618  0.2055
 3786TIP3    H132773   5.130   1.821   3.234 -0.1422  1.5970 -1.7013
 3786TIP3    H232774   5.071   1.702   3.161  0.6419 -0.2426  0.5644
 3787TIP3   OH232775   3.839   4.632   6.243 -0.2797 -0.4861  0.0055
 3787TIP3    H132776   3.840   4.719   6.205  1.3566 -0.2861  0.4193
 3787TIP3    H232777   3.760   4.630   6.297 -1.2951  0.0837 -1.4106
 3788TIP3   OH232778   4.099   0.152   0.587  0.4232 -0.2111 -0.6580
 3788TIP3    H132779   4.135   0.087   0.648  0.8797  0.5052 -0.1470
 3788TIP3    H232780   4.012   0.170   0.622 -0.4537 -1.8856 -1.8496
 3789TIP3   OH232781   2.628   2.763  16.059  0.2192 -0.5392 -0.1330
 3789TIP3    H132782   2.660   2.757  15.969  2.6627 -0.3301  0.6528
 3789TIP3    H232783   2.680   2.699  16.108 -0.0572  0.3215  1.3731
 3790TIP3   OH232784   0.160   1.510   1.944  0.2177  1.1796 -0.4290
 3790TIP3    H132785   0.199   1.502   1.857 -0.7640  1.5971 -0.9237
 3790TIP3    H232786   0.092   1.442   1.946  2.0530 -0.7198  1.0600
 3791TIP3   OH232787   5.028   6.464  15.660 -0.3151  0.1453  0.2346
 3791TIP3    H132788   5.108   6.513  15.679 -1.0310  1.4670 -0.0208
 3791TIP3    H232789   4.965   6.531  15.634 -0.6967 -1.1203 -2.4135
 3792TIP3   OH232790   1.126   5.495   5.155 -0.5136 -0.2323  0.5623
 3792TIP3    H132791   1.147   5.588   5.143 -2.0391  0.0663  0.0036
 3792TIP3    H232792   1.071   5.493   5.234 -1.1486 -0.5511  0.1171
 3793TIP3   OH232793   2.200   1.738   4.748 -0.6705  0.0677 -0.3258
 3793TIP3    H132794   2.237   1.660   4.790 -2.3202  0.1977  1.5512
 3793TIP3    H232795   2.273   1.800   4.744  0.4847 -1.2949 -1.1977
 3794TIP3   OH232796   3.679   4.750   3.248  0.1624 -0.2340 -0.1363
 3794TIP3    H132797   3.647   4.703   3.325 -1.4848  1.1647  0.0780
 3794TIP3    H232798   3.601   4.766   3.195  0.8893  1.0780 -0.8530
 3795TIP3   OH232799   0.551   0.644  16.066  0.3334  0.1660 -0.3025
 3795TIP3    H132800   0.645   0.655  16.083  0.9539 -1.9104 -1.9394
 3795TIP3    H232801   0.509   0.714  16.116  2.7821  1.4727  0.0817
 3796TIP3   OH232802   4.299   5.751   4.758 -0.3365  0.4302 -0.0682
 3796TIP3    H132803   4.329   5.819   4.698 -0.2278  1.5910  1.2545
 3796TIP3    H232804   4.373   5.690   4.764 -1.0514 -0.8415 -2.6106
 3797TIP3   OH232805   0.386   6.763  12.773  0.2850 -0.2304  0.1389
 3797TIP3    H132806   0.328   6.817  12.827  0.8850  1.0016 -0.4091
 3797TIP3    H232807   0.468   6.760  12.822 -0.1896 -1.9474  0.8989
 3798TIP3   OH232808   5.894   2.117   5.701  0.3883 -0.3485 -0.0214
 3798TIP3    H132809   5.945   2.039   5.676 -1.0959 -0.6730 -2.3517
 3798TIP3    H232810   5.806   2.083   5.717 -0.3142  0.8405 -1.2193
 3799TIP3   OH232811   3.732   6.111  14.206 -0.0778  0.6171  0.0730
 3799TIP3    H132812   3.694   6.033  14.246  2.6448 -0.6607  0.3781
 3799TIP3    H232813   3.706   6.183  14.263 -2.4439 -0.0349 -0.0833
 3800TIP3   OH232814   2.675   2.733  15.496  0.4030  0.5371  0.4758
 3800TIP3    H132815   2.595   2.714  15.447  1.0053 -1.2498  0.1043
 3800TIP3    H232816   2.671   2.827  15.514 -1.0103  0.7681 -0.8856
 3801TIP3   OH232817   5.779   1.087  16.924 -0.0409 -0.6534  0.4983
 3801TIP3    H132818   5.747   1.000  16.901  1.6377 -0.9873 -0.7830
 3801TIP3    H232819   5.856   1.070  16.979  1.0675 -0.0592 -0.8130
 3802TIP3   OH232820   3.887   5.659  12.977 -0.1605  0.4864  0.1583
 3802TIP3    H132821   3.800   5.625  12.995 -0.5671  1.0911 -0.6243
 3802TIP3    H232822   3.946   5.585  12.996 -1.0548 -0.8352 -1.9084
 3803TIP3   OH232823   1.528   1.664   2.170  0.1048 -0.1272 -0.1163
 3803TIP3    H132824   1.545   1.675   2.264  1.6521 -0.8097 -0.2799
 3803TIP3    H232825   1.610   1.689   2.128 -0.9290  1.2696 -1.4023
 3804TIP3   OH232826   2.288   5.343  13.585 -0.0295 -0.4400 -0.0134
 3804TIP3    H132827   2.353   5.322  13.519 -1.4172 -0.4551 -1.4267
 3804TIP3    H232828   2.213   5.375  13.536 -1.4936 -1.4078  1.4789
 3805TIP3   OH232829   4.875   5.287  11.544 -0.7228 -0.0741 -0.2167
 3805TIP3    H132830   4.969   5.273  11.558 -0.3828  2.8862  1.0210
 3805TIP3    H232831   4.865   5.290  11.449  0.8753  1.7422 -0.3803
 3806TIP3   OH232832   1.346   2.579   0.255  0.0462 -0.6360 -0.2796
 3806TIP3    H132833   1.364   2.565   0.162 -0.8578  0.7540 -0.6975
 3806TIP3    H232834   1.407   2.647   0.282 -0.3333 -0.3560 -0.1078
 3807TIP3   OH232835   6.118   3.016  16.058 -0.9399 -0.5554 -0.3300
 3807TIP3    H132836   6.126   2.940  16.116 -0.2496  0.5509  1.0860
 3807TIP3    H232837   6.024   3.033  16.052 -1.0165 -0.6604  0.5241
 3808TIP3   OH232838   6.738   6.559  16.654  0.2049 -0.5234 -0.5225
 3808TIP3    H132839   6.741   6.470  16.688 -0.6914 -1.3806 -2.5668
 3808TIP3    H232840   6.647   6.572  16.627 -0.6331  2.3171  2.8876
 3809TIP3   OH232841   5.508   1.867   1.492  0.3427 -0.0079 -0.3037
 3809TIP3    H132842   5.439   1.808   1.523 -1.4940  1.8043 -0.7268
 3809TIP3    H232843   5.555   1.892   1.571 -0.2344 -0.3629  0.1647
 3810TIP3   OH232844   5.243   6.094   4.577  0.0242 -0.2786  0.4625
 3810TIP3    H132845   5.264   6.131   4.662  1.7633 -1.9894  0.8432
 3810TIP3    H232846   5.320   6.111   4.523 -0.0698 -1.2983 -0.0204
 3811TIP3   OH232847   2.993   3.256  12.881 -0.3982  0.3818 -0.3379
 3811TIP3    H132848   2.962   3.311  12.953 -0.8117  0.0329 -0.2434
 3811TIP3    H232849   3.037   3.316  12.821  0.1517  0.6394  0.3193
 3812TIP3   OH232850   2.747   1.309   5.280 -0.5604  0.2398 -0.1505
 3812TIP3    H132851   2.711   1.233   5.233 -1.4110  0.5806 -0.0683
 3812TIP3    H232852   2.741   1.381   5.217 -2.4272  0.8795  0.6824
 3813TIP3   OH232853   0.415   1.360   3.571  0.2330 -0.0050 -0.3490
 3813TIP3    H132854   0.405   1.387   3.662 -0.7189 -0.9671 -0.1464
 3813TIP3    H232855   0.509   1.352   3.559  0.3397 -0.8945  0.8768
 3814TIP3   OH232856   2.195   3.353  13.954 -0.3606  0.0669  0.5820
 3814TIP3    H132857   2.138   3.310  13.891 -0.3105 -0.0019  0.5842
 3814TIP3    H232858   2.199   3.293  14.028 -0.7517  0.3357  0.8211
 3815TIP3   OH232859   5.074   1.403  12.208  0.0434  0.0233 -0.2423
 3815TIP3    H132860   5.005   1.457  12.246  0.3203  0.8764 -0.9078
 3815TIP3    H232861   5.077   1.429  12.116  0.5623 -0.7379 -0.4536
 3816TIP3   OH232862   1.591   3.051   3.828 -0.5257  0.7233  0.4504
 3816TIP3    H132863   1.552   2.977   3.782  0.7991  0.3530 -0.1454
 3816TIP3    H232864   1.518   3.096   3.869 -1.8732  1.3548 -2.4108
 3817TIP3   OH232865   0.115   5.203  15.593  0.0630 -0.0327 -0.2635
 3817TIP3    H132866   0.106   5.275  15.531 -0.1809  0.9135  0.8362
 3817TIP3    H232867   0.207   5.177  15.587  0.6969  1.7960  0.8140
 3818TIP3   OH232868   2.856   6.087   6.401  0.6798 -0.1159  0.2886
 3818TIP3    H132869   2.850   6.173   6.443 -0.2271 -0.2447  0.4533
 3818TIP3    H232870   2.776   6.080   6.349 -1.3337 -2.3778  3.2870
 3819TIP3   OH232871   5.065   6.676   4.880  0.3342 -0.1348 -0.5846
 3819TIP3    H132872   5.034   6.705   4.794 -0.1435 -0.4686 -0.5270
 3819TIP3    H232873   5.068   6.581   4.874  0.3923 -0.1543 -0.2608
 3820TIP3   OH232874   5.875   2.236  11.526  0.7649 -0.2960  0.3617
 3820TIP3    H132875   5.858   2.327  11.499 -0.2250 -0.7539 -0.6409
 3820TIP3    H232876   5.926   2.245  11.607  4.3701  1.1558 -1.8208
 3821TIP3   OH232877   1.258   4.199   3.797  0.2875  0.1175 -0.3019
 3821TIP3    H132878   1.333   4.258   3.801  0.0251  0.4021  0.4916
 3821TIP3    H232879   1.264   4.147   3.877 -0.5107  0.3387 -0.0907
 3822TIP3   OH232880   6.058   1.170   2.134 -0.1665  0.6294 -0.6290
 3822TIP3    H132881   6.119   1.101   2.110 -1.0800  0.4199 -2.4678
 3822TIP3    H232882   6.000   1.129   2.199  1.1785  0.6426  0.6441
 3823TIP3   OH232883   5.616   5.966  11.858 -0.5646 -0.0965  0.3071
 3823TIP3    H132884   5.682   5.897  11.854 -1.0209 -0.5091 -0.3573
 3823TIP3    H232885   5.653   6.037  11.804 -0.2338  0.0670  0.7406
 3824TIP3   OH232886   6.358   0.978   3.808 -0.5346 -0.1493 -1.2210
 3824TIP3    H132887   6.311   1.040   3.754 -0.2183  0.4354 -0.8340
 3824TIP3    H232888   6.446   1.015   3.818 -1.3469  1.2729  2.0229
 3825TIP3   OH232889   1.244   3.384  16.480  0.3750 -0.0856 -0.0998
 3825TIP3    H132890   1.244   3.354  16.571 -0.8455 -2.5196 -0.8134
 3825TIP3    H232891   1.232   3.478  16.486  1.9097  0.0451  2.2793
 3826TIP3   OH232892   4.472   4.154  11.164 -0.0127 -0.2066  0.1596
 3826TIP3    H132893   4.491   4.077  11.218  1.1358  0.4730  0.7585
 3826TIP3    H232894   4.498   4.130  11.076  2.9280  0.3673  0.7828
 3827TIP3   OH232895   3.086   1.622  16.275  0.5388  0.0175 -0.1120
 3827TIP3    H132896   3.054   1.662  16.356  2.1454  0.9234  0.1144
 3827TIP3    H232897   3.008   1.610  16.221 -0.7542 -1.7172  1.9952
 3828TIP3   OH232898   3.405   1.292  14.133 -0.0246 -0.2198  0.7352
 3828TIP3    H132899   3.313   1.287  14.157  0.4362 -2.3177  2.3019
 3828TIP3    H232900   3.405   1.293  14.037 -1.6527  0.3016  0.7116
 3829TIP3   OH232901   0.143   0.301  15.770  0.6746  0.1047  0.3012
 3829TIP3    H132902   0.144   0.380  15.824  1.5206 -1.3507  2.5866
 3829TIP3    H232903   0.217   0.312  15.710  2.3273  0.0679  2.2239
 3830TIP3   OH232904   5.187   0.092  11.448 -0.1533 -0.2219  0.3163
 3830TIP3    H132905   5.100   0.104  11.486 -0.3578 -0.7100  0.0059
 3830TIP3    H232906   5.215   0.006  11.479 -0.3212 -0.6228 -0.6377
 3831TIP3   OH232907   6.525   3.082  15.503  0.2736  0.4162 -0.1550
 3831TIP3    H132908   6.597   3.020  15.518 -1.0968 -1.8893 -2.3021
 3831TIP3    H232909   6.459   3.058  15.567  1.0795  2.1018  1.3771
 3832TIP3   OH232910   0.041   6.167   1.011  0.6882  0.3344 -0.8606
 3832TIP3    H132911   0.025   6.091   0.955 -1.0806  1.2745 -1.7354
 3832TIP3    H232912   0.018   6.137   1.099 -2.5672  0.4723 -1.5405
 3833TIP3   OH232913   1.593   3.803  15.124  0.0809  0.6110  0.1133
 3833TIP3    H132914   1.670   3.765  15.166 -0.2701 -0.1791  0.0558
 3833TIP3    H232915   1.607   3.790  15.031  0.4608  1.6093  0.0153
 3834TIP3   OH232916   2.203   5.874   0.633 -0.7745  0.1788 -0.4801
 3834TIP3    H132917   2.191   5.912   0.721 -0.8126  1.6987 -1.1038
 3834TIP3    H232918   2.113   5.863   0.600 -0.7630 -0.5034 -0.2821
 3835TIP3   OH232919   6.157   0.889   2.604 -0.2051 -0.0563  0.1093
 3835TIP3    H132920   6.124   0.799   2.606  0.3985 -0.2729  0.3553
 3835TIP3    H232921   6.197   0.903   2.689  1.7872 -0.3566 -0.7179
 3836TIP3   OH232922   5.190   0.406  11.894 -0.6147  0.7641  0.3570
 3836TIP3    H132923   5.117   0.447  11.847 -0.6687  0.2930  0.0196
 3836TIP3    H232924   5.240   0.361  11.825  1.2169  2.8115  0.2106
 3837TIP3   OH232925   5.157   0.054   2.227  0.9672  0.1479  0.4587
 3837TIP3    H132926   5.231   0.085   2.278 -0.7424  1.2428  2.3887
 3837TIP3    H232927   5.112   0.133   2.198  0.2688 -0.4965 -0.2905
 3838TIP3   OH232928   4.949   5.602   4.827  0.3763  0.1885 -0.0026
 3838TIP3    H132929   4.863   5.625   4.862  0.5640  0.1533  0.4815
 3838TIP3    H232930   4.953   5.507   4.834 -0.3232 -0.0152 -1.8316
 3839TIP3   OH232931   3.126   5.487   4.604  0.4210 -1.0975 -0.1909
 3839TIP3    H132932   3.162   5.433   4.673 -0.1020 -1.0953  0.0901
 3839TIP3    H232933   3.031   5.471   4.607  0.3263 -0.6310 -0.4975
 3840TIP3   OH232934   0.534   4.311  10.910  0.0707 -0.2127 -0.5021
 3840TIP3    H132935   0.601   4.363  10.866  0.9489  0.0631  1.0748
 3840TIP3    H232936   0.504   4.249  10.844  2.1402 -0.5808 -1.1683
 3841TIP3   OH232937   4.666   0.934   2.758  0.0028  0.3935  0.4004
 3841TIP3    H132938   4.753   0.912   2.792  0.3625 -0.4191 -0.9783
 3841TIP3    H232939   4.619   0.967   2.835  0.8759 -1.0397  1.6197
 3842TIP3   OH232940   5.241   0.696  11.534 -0.5744  0.4586  0.1673
 3842TIP3    H132941   5.235   0.634  11.461 -0.1708  0.3084  0.2589
 3842TIP3    H232942   5.184   0.659  11.601 -0.0038 -0.0399  0.3821
 3843TIP3   OH232943   5.615   6.377  10.852  0.2128  0.0352 -0.3282
 3843TIP3    H132944   5.703   6.357  10.820  0.3928  0.6818 -0.2495
 3843TIP3    H232945   5.624   6.376  10.947  0.3096  0.8185 -0.3210
 3844TIP3   OH232946   3.117   1.827   2.567 -0.3349 -0.0849  0.2999
 3844TIP3    H132947   3.145   1.742   2.532 -1.0714  0.7401 -2.4988
 3844TIP3    H232948   3.054   1.805   2.636  0.4990 -1.8121  0.5511
 3845TIP3   OH232949   2.689   3.083   2.642  0.3689  0.1722 -0.4036
 3845TIP3    H132950   2.681   2.988   2.643  0.3851  0.1294 -1.7369
 3845TIP3    H232951   2.613   3.113   2.591 -0.4885  1.0111  1.2576
 3846TIP3   OH232952   1.120   3.606  14.065  0.8171  0.2504 -0.5864
 3846TIP3    H132953   1.158   3.544  14.127 -1.0241 -0.3562  0.0172
 3846TIP3    H232954   1.050   3.557  14.021  3.0260  0.1501 -4.3922
 3847TIP3   OH232955   3.685   0.171   2.035  0.1964  0.4788  0.2616
 3847TIP3    H132956   3.771   0.130   2.023 -0.0576 -0.1978  0.6769
 3847TIP3    H232957   3.693   0.222   2.116  0.1749  0.3267  0.3598
 3848TIP3   OH232958   2.557   0.219   3.427  0.7765 -0.1685 -0.6693
 3848TIP3    H132959   2.527   0.304   3.460  1.1649  0.6898 -2.4026
 3848TIP3    H232960   2.477   0.169   3.415  0.5204  0.0378  0.1525
 3849TIP3   OH232961   2.686   3.381   2.216  0.0525 -0.6188 -0.0984
 3849TIP3    H132962   2.762   3.357   2.270 -0.6626 -0.5297  0.9750
 3849TIP3    H232963   2.622   3.312   2.234 -1.2422  0.9008  1.3753
 3850TIP3   OH232964   2.063   5.846  15.211  0.6065 -0.0706 -0.5424
 3850TIP3    H132965   2.017   5.821  15.291  1.8029 -0.0186  0.1821
 3850TIP3    H232966   2.149   5.805  15.218  1.0312  0.6147 -1.4097
 3851TIP3   OH232967   4.246   4.383  12.099 -0.1808  0.2038 -0.5136
 3851TIP3    H132968   4.183   4.454  12.111  0.3298  1.0902 -2.6391
 3851TIP3    H232969   4.317   4.422  12.047  1.3398 -1.2075  0.4133
 3852TIP3   OH232970   2.665   5.226   0.139  0.1705 -0.6539  0.0095
 3852TIP3    H132971   2.743   5.264   0.179  0.9135 -2.2536  0.1148
 3852TIP3    H232972   2.671   5.249   0.047 -0.5121  1.3023  0.3996
 3853TIP3   OH232973   0.808   2.960   2.594 -0.0006 -0.0729  0.2436
 3853TIP3    H132974   0.755   2.938   2.671 -0.8425  0.2922 -0.2090
 3853TIP3    H232975   0.862   3.034   2.623  0.3627 -0.5357  0.7545
 3854TIP3   OH232976   4.822   1.946   3.923  0.0162  0.1512 -0.0610
 3854TIP3    H132977   4.839   1.858   3.955  2.5269  0.8383  0.7717
 3854TIP3    H232978   4.862   1.948   3.836  0.6053  0.6170  0.2068
 3855TIP3   OH232979   1.768   6.024   2.455  0.3286 -0.5016  0.2182
 3855TIP3    H132980   1.786   6.032   2.362 -0.3972  0.1481  0.1227
 3855TIP3    H232981   1.853   6.010   2.495  0.8757  1.0044 -0.3538
 3856TIP3   OH232982   6.198   3.702  16.556  0.2877  0.7191  0.1366
 3856TIP3    H132983   6.226   3.743  16.637  1.4870  0.5148 -0.1491
 3856TIP3    H232984   6.280   3.680  16.511 -0.3255 -0.9597 -0.2239
 3857TIP3   OH232985   2.888   5.054   2.056  0.6568 -0.5656 -0.1847
 3857TIP3    H132986   2.880   5.148   2.075 -0.2489 -0.3916 -1.3239
 3857TIP3    H232987   2.802   5.018   2.079  1.7032 -1.6079  2.5882
 3858TIP3   OH232988   5.658   2.756   6.573 -0.1796 -0.0975  0.4313
 3858TIP3    H132989   5.752   2.762   6.586 -0.2769  0.5444  0.9271
 3858TIP3    H232990   5.647   2.722   6.485  0.5194  2.0273 -0.5355
 3859TIP3   OH232991   4.373   1.337   3.257 -0.2209 -0.1520  0.5758
 3859TIP3    H132992   4.391   1.262   3.313  1.3783 -1.4228 -1.4683
 3859TIP3    H232993   4.455   1.351   3.209 -0.2706  3.2855  1.2524
 3860TIP3   OH232994   6.339   3.381   0.998  0.1521 -0.3357  0.1653
 3860TIP3    H132995   6.262   3.359   0.945  2.1483 -1.8689 -2.3709
 3860TIP3    H232996   6.378   3.456   0.954  1.3481 -1.0526 -0.0527
 3861TIP3   OH232997   5.274   6.492   1.884  0.1170 -0.1865 -0.1129
 3861TIP3    H132998   5.354   6.495   1.936  0.1041 -0.8846 -0.0511
 3861TIP3    H232999   5.301   6.452   1.801 -0.3167 -1.1297  0.1915
 3862TIP3   OH233000   0.899   1.790   0.062  0.0089 -0.8962 -0.0283
 3862TIP3    H133001   0.861   1.709   0.027 -0.9630 -0.7349  0.6305
 3862TIP3    H233002   0.835   1.857   0.041 -0.0581 -0.6084  1.0531
 3863TIP3   OH233003   3.459   5.249   3.428 -0.2391  0.2296 -0.3270
 3863TIP3    H133004   3.521   5.185   3.463  0.5620  1.4362  0.5014
 3863TIP3    H233005   3.485   5.261   3.336  0.8827  0.8622  0.0632
 3864TIP3   OH233006   1.758   6.487  15.961 -0.1241 -0.5852 -1.0624
 3864TIP3    H133007   1.684   6.531  16.002  1.5072  0.5470  0.8857
 3864TIP3    H233008   1.775   6.410  16.015 -1.0575 -1.9843 -2.6734
 3865TIP3   OH233009   6.266   4.425  10.833  0.4527  0.3831  0.1527
 3865TIP3    H133010   6.223   4.472  10.762 -0.4439  0.3036  0.6185
 3865TIP3    H233011   6.356   4.456  10.832  0.4177  0.4804 -0.9201
 3866TIP3   OH233012   1.807   2.687   1.959 -0.2506 -0.1153 -0.2043
 3866TIP3    H133013   1.798   2.777   1.988 -0.5637  0.3444 -1.6498
 3866TIP3    H233014   1.731   2.671   1.904 -1.2462 -1.9201  1.5614
 3867TIP3   OH233015   3.937   2.426  13.433 -0.3164  0.7904 -0.0689
 3867TIP3    H133016   3.898   2.373  13.502  1.2239  1.4894  1.4117
 3867TIP3    H233017   3.911   2.515  13.453 -0.2956  0.9420 -0.7026
 3868TIP3   OH233018   1.830   2.728  17.121 -0.2475 -0.1384  0.3260
 3868TIP3    H133019   1.745   2.703  17.085 -0.5164  0.7308  0.3362
 3868TIP3    H233020   1.814   2.737  17.215 -0.3833  0.9577  0.2069
 3869TIP3   OH233021   4.094   6.512  15.905 -0.0764 -0.5902 -0.4017
 3869TIP3    H133022   4.071   6.582  15.967 -0.9733 -0.7570 -0.5423
 3869TIP3    H233023   4.119   6.439  15.961  2.4313  0.2931 -0.2309
 3870TIP3   OH233024   2.565   6.045  12.598 -0.3666 -0.7232  0.3061
 3870TIP3    H133025   2.520   6.061  12.516  1.3279 -0.0013 -0.5296
 3870TIP3    H233026   2.504   6.074  12.665 -1.5024 -0.6745 -0.7223
 3871TIP3   OH233027   0.041   4.281   3.389 -0.0576 -0.1885  0.4700
 3871TIP3    H133028  -0.007   4.336   3.450  0.1412 -0.1936  0.6318
 3871TIP3    H233029   0.081   4.213   3.444  2.0783  1.1481  0.6764
 3872TIP3   OH233030   2.174   1.768   5.165 -0.1449  0.5110  0.7978
 3872TIP3    H133031   2.231   1.691   5.163 -0.4587  0.2847 -0.0657
 3872TIP3    H233032   2.187   1.805   5.252  0.3860 -0.2360  1.0532
 3873TIP3   OH233033   6.748   1.017   5.812 -0.3285  0.0346 -0.0892
 3873TIP3    H133034   6.789   0.957   5.875 -0.6511  0.5497  0.6287
 3873TIP3    H233035   6.689   1.070   5.866  1.4737  2.4296 -0.3192
 3874TIP3   OH233036   3.822   6.478   0.950  0.8481 -0.8032 -0.3914
 3874TIP3    H133037   3.853   6.404   1.002 -0.1230 -1.1815 -0.3212
 3874TIP3    H233038   3.854   6.555   0.996  1.1345 -1.1604  0.0212
 3875TIP3   OH233039   6.144   2.187  13.305 -0.0534 -0.4914  0.4513
 3875TIP3    H133040   6.060   2.157  13.270  0.5601 -2.2816  0.4629
 3875TIP3    H233041   6.197   2.205  13.227  0.1390 -1.0733  0.4465
 3876TIP3   OH233042   3.961   6.462  13.142 -0.5740  0.2755 -0.3276
 3876TIP3    H133043   4.041   6.503  13.174 -1.2713  0.5547  1.1560
 3876TIP3    H233044   3.963   6.374  13.179  0.1101 -0.5150 -2.1419
 3877TIP3   OH233045   4.140   5.345   4.081  0.0299 -0.5006 -0.2408
 3877TIP3    H133046   4.164   5.279   4.015  0.7933 -0.2065 -0.2695
 3877TIP3    H233047   4.215   5.347   4.140  0.4959  1.0838 -0.8295
 3878TIP3   OH233048   6.069   1.620  11.382  0.0387  0.1720 -0.1313
 3878TIP3    H133049   6.055   1.711  11.354  1.6635  0.4593 -0.0819
 3878TIP3    H233050   6.114   1.579  11.308 -2.8155 -1.3283 -1.1956
 3879TIP3   OH233051   3.608   3.645   3.830 -0.3658  0.2185  0.2705
 3879TIP3    H133052   3.570   3.732   3.847 -1.9314 -0.4521  0.3838
 3879TIP3    H233053   3.665   3.629   3.905 -1.0695  0.6142  0.9140
 3880TIP3   OH233054   4.406   4.493   5.892 -0.4582 -0.2822 -0.3889
 3880TIP3    H133055   4.400   4.397   5.884  2.6950 -0.6422 -0.0077
 3880TIP3    H233056   4.496   4.508   5.920 -1.3850  2.7571  1.3275
 3881TIP3   OH233057   5.177   1.644   2.923  0.0157 -0.0305  0.1720
 3881TIP3    H133058   5.082   1.642   2.907  0.2184  0.1945 -1.1684
 3881TIP3    H233059   5.187   1.700   3.001 -0.8662  1.0786 -0.4774
 3882TIP3   OH233060   3.409   3.100  14.337 -0.3201  0.2562 -0.5087
 3882TIP3    H133061   3.495   3.089  14.296  0.6711 -0.3101  1.5518
 3882TIP3    H233062   3.411   3.188  14.375 -0.9981  0.5599 -1.1507
 3883TIP3   OH233063   3.577   4.606   1.415  0.5455 -0.1057 -0.2886
 3883TIP3    H133064   3.538   4.684   1.454  0.5325 -0.0054 -0.4997
 3883TIP3    H233065   3.510   4.538   1.424  0.0735  0.2203 -1.1932
 3884TIP3   OH233066   1.970   3.687   4.320  0.4942 -0.0165  0.8482
 3884TIP3    H133067   2.017   3.736   4.252  1.2287  0.1109  1.4472
 3884TIP3    H233068   2.011   3.714   4.402 -2.2520  2.0820  1.6931
 3885TIP3   OH233069   2.817   2.807   3.693 -0.0546 -0.2560 -0.0021
 3885TIP3    H133070   2.768   2.727   3.672 -0.9670 -0.2857  2.0459
 3885TIP3    H233071   2.894   2.776   3.740 -1.3752  0.0865  2.5496
 3886TIP3   OH233072   3.666   2.049   0.027  0.1049 -0.1124 -0.2513
 3886TIP3    H133073   3.730   2.107  -0.013  0.3235  0.4243  0.8265
 3886TIP3    H233074   3.707   1.962   0.024  0.8502  0.2068  0.3345
 3887TIP3   OH233075   1.442   6.315   1.653 -0.2098  0.1970  0.1037
 3887TIP3    H133076   1.470   6.234   1.695 -0.6287  0.3322  0.6527
 3887TIP3    H233077   1.392   6.361   1.720  1.2044  1.5711  0.2694
 3888TIP3   OH233078   0.372   1.681   5.699  0.4409 -0.3947 -0.4158
 3888TIP3    H133079   0.375   1.608   5.761  1.8386  0.7164  0.9124
 3888TIP3    H233080   0.381   1.759   5.754 -0.4346  0.7572 -1.8518
 3889TIP3   OH233081   5.229   5.649   1.936 -0.4654 -0.2052  0.0327
 3889TIP3    H133082   5.272   5.571   1.972 -0.7020 -1.2975 -1.8826
 3889TIP3    H233083   5.301   5.706   1.909 -0.1811 -1.2471 -1.5400
 3890TIP3   OH233084   3.505   3.653   1.566  0.0731  0.1183  0.3426
 3890TIP3    H133085   3.527   3.746   1.573 -2.7049  0.9063 -0.3118
 3890TIP3    H233086   3.489   3.626   1.657 -1.1754  0.8701  0.3650
 3891TIP3   OH233087   4.394   1.908   0.590 -0.1647  0.4669 -0.7922
 3891TIP3    H133088   4.345   1.977   0.635 -0.1527  1.5480 -2.3750
 3891TIP3    H233089   4.485   1.936   0.594 -0.1538  0.5201 -1.4057
 3892TIP3   OH233090   4.276   5.421   3.215  0.7182  0.3140  0.3588
 3892TIP3    H133091   4.292   5.515   3.212  0.4783  0.3379 -0.5629
 3892TIP3    H233092   4.232   5.407   3.299 -2.3688  1.5719 -0.8794
 3893TIP3   OH233093   4.852   0.972  16.106  0.2209  0.0258  0.2479
 3893TIP3    H133094   4.798   1.051  16.099 -2.2735 -1.5371  0.5726
 3893TIP3    H233095   4.852   0.950  16.199 -0.1079 -0.9933  0.0204
 3894TIP3   OH233096   6.488   0.183  16.529 -0.2157 -0.1296 -0.2844
 3894TIP3    H133097   6.543   0.191  16.451  1.9772  0.9675  1.2496
 3894TIP3    H233098   6.544   0.140  16.593 -0.1654  3.0452  2.0917
 3895TIP3   OH233099   5.058   0.358  11.499 -0.1978 -0.1138  0.7656
 3895TIP3    H133100   5.100   0.417  11.435  0.3701 -0.5719  0.7073
 3895TIP3    H233101   5.006   0.298  11.446  0.2438 -0.4706  0.7354
 3896TIP3   OH233102   3.804   4.600   4.123 -0.1316 -0.1249 -0.9142
 3896TIP3    H133103   3.714   4.568   4.118  0.3723 -1.7335 -0.2789
 3896TIP3    H233104   3.803   4.663   4.195 -0.4353 -1.2697  0.0991
 3897TIP3   OH233105   1.817   0.760   0.979 -0.3204  0.2716  0.2478
 3897TIP3    H133106   1.889   0.819   1.002  0.9556 -0.9124 -0.5707
 3897TIP3    H233107   1.772   0.804   0.907  1.1786 -0.1114 -0.9872
 3898TIP3   OH233108   4.709   4.233   5.551  0.5568  0.6697  0.6921
 3898TIP3    H133109   4.797   4.194   5.550  1.3154  2.3147  0.8004
 3898TIP3    H233110   4.650   4.159   5.534  2.1198 -0.0080 -2.7466
 3899TIP3   OH233111   5.123   4.029   4.908  0.3765  0.2124  0.1777
 3899TIP3    H133112   5.171   4.007   4.987 -0.7767  2.6322  1.6864
 3899TIP3    H233113   5.053   3.964   4.904  1.2282 -0.7390  0.3688
 3900TIP3   OH233114   5.909   6.699  16.556 -0.6211  0.5351 -0.1204
 3900TIP3    H133115   5.996   6.692  16.596 -0.7356  0.0146  0.0371
 3900TIP3    H233116   5.853   6.732  16.626 -1.0063 -1.2114  0.4203
 3901TIP3   OH233117   1.840   5.686   0.058 -0.0838 -0.0863  0.0632
 3901TIP3    H133118   1.778   5.709   0.128 -1.3579  1.1760 -1.3917
 3901TIP3    H233119   1.882   5.606   0.088 -2.2165 -0.8295  1.2830
 3902TIP3   OH233120   6.582   4.731   3.915  0.3630 -0.8501  0.1776
 3902TIP3    H133121   6.663   4.777   3.895 -0.3950  0.7497  0.6571
 3902TIP3    H233122   6.592   4.645   3.874  0.9504  0.4381 -2.5701
 3903TIP3   OH233123   3.105   6.251  14.893 -0.2910  0.0553  0.2433
 3903TIP3    H133124   3.039   6.193  14.930  1.0186 -0.8896  1.1831
 3903TIP3    H233125   3.188   6.205  14.906  0.6718  1.6099 -0.0719
 3904TIP3   OH233126   6.787   0.854   6.532 -0.1124 -0.2119 -0.0502
 3904TIP3    H133127   6.725   0.799   6.484 -1.7338  0.5472  1.0505
 3904TIP3    H233128   6.735   0.930   6.560  1.2726  0.3784  1.0919
 3905TIP3   OH233129   5.082   4.561  11.811 -0.3447 -0.3319 -0.2942
 3905TIP3    H133130   5.088   4.466  11.794  0.2592 -0.1158 -1.4417
 3905TIP3    H233131   4.990   4.576  11.831 -0.2918 -1.2932  0.7825
 3906TIP3   OH233132   6.098   1.893   1.284  0.0195 -0.2438  0.1965
 3906TIP3    H133133   6.026   1.915   1.343 -0.4712 -0.2224 -0.4053
 3906TIP3    H233134   6.066   1.819   1.233  0.2860 -0.0091 -0.3227
 3907TIP3   OH233135   4.144   3.760   3.609  0.1840  0.6233 -0.2172
 3907TIP3    H133136   4.061   3.765   3.562  0.1959  1.2341 -0.1894
 3907TIP3    H233137   4.120   3.734   3.698  0.0391  0.6306 -0.2534
 3908TIP3   OH233138   5.509   4.627  16.311  0.4621 -0.6572 -0.0712
 3908TIP3    H133139   5.498   4.565  16.239 -0.8434 -0.2225 -0.2758
 3908TIP3    H233140   5.603   4.647  16.311  0.2801  0.8879 -3.0083
 3909TIP3   OH233141   4.098   4.461   4.273  0.6486  0.2346 -0.1275
 3909TIP3    H133142   4.104   4.508   4.190  0.5390 -1.7208 -1.3115
 3909TIP3    H233143   4.093   4.368   4.248 -0.5113 -0.3593  2.0173
 3910TIP3   OH233144   3.578   0.961  16.620 -0.2118  0.1419  0.5857
 3910TIP3    H133145   3.630   0.922  16.691 -0.7793 -1.9061 -0.0486
 3910TIP3    H233146   3.519   1.022  16.665  0.9876  0.6037  1.5962
 3911TIP3   OH233147   2.855   0.640   1.681 -0.0678  0.4473 -0.6856
 3911TIP3    H133148   2.951   0.636   1.677 -0.1403 -0.8047 -1.9533
 3911TIP3    H233149   2.826   0.584   1.609 -1.7525  2.1720 -1.4248
 3912TIP3   OH233150   4.168   5.653   0.594 -0.8646  0.6910 -0.0149
 3912TIP3    H133151   4.212   5.702   0.663  2.7575 -0.7506 -1.0613
 3912TIP3    H233152   4.192   5.699   0.513 -2.0262  0.2962 -0.6155
 3913TIP3   OH233153   3.057   1.956  14.818 -0.2547  0.0879 -0.6187
 3913TIP3    H133154   2.997   2.029  14.835 -0.2724 -0.4779  2.2106
 3913TIP3    H233155   3.027   1.886  14.875  1.6768 -1.0193 -0.8776
 3914TIP3   OH233156   0.889   3.478   1.739  0.4533 -0.0061 -0.1920
 3914TIP3    H133157   0.863   3.390   1.712  1.1972 -0.4185  0.4040
 3914TIP3    H233158   0.982   3.484   1.716  0.7847  0.0824  1.0885
 3915TIP3   OH233159   0.288   6.256  12.742 -0.0760  0.1374  0.0853
 3915TIP3    H133160   0.272   6.166  12.712  0.9769 -0.7197  1.9307
 3915TIP3    H233161   0.365   6.284  12.693  0.7732 -0.7180  0.8778
 3916TIP3   OH233162   3.217   1.175  11.939 -0.2901 -0.0432 -0.9745
 3916TIP3    H133163   3.139   1.120  11.939 -0.8184  0.6717  0.1849
 3916TIP3    H233164   3.200   1.242  11.873 -1.1986  0.8247  0.1158
 3917TIP3   OH233165   6.486   4.403  16.188  0.0208 -0.5192 -0.3960
 3917TIP3    H133166   6.580   4.382  16.189  0.2611  0.4562  0.6529
 3917TIP3    H233167   6.443   4.322  16.214  0.7956 -0.2612  1.9750
 3918TIP3   OH233168   4.178   3.370   5.055  0.6606 -0.2007  0.2348
 3918TIP3    H133169   4.266   3.359   5.020  0.2985 -0.3081 -0.6917
 3918TIP3    H233170   4.147   3.281   5.071  1.7268 -0.1200  3.3015
 3919TIP3   OH233171   3.942   1.749  13.508 -0.0114  0.7385  0.3578
 3919TIP3    H133172   4.025   1.723  13.469 -0.5730 -0.8513  0.1610
 3919TIP3    H233173   3.884   1.675  13.493 -1.0940  1.2832  1.6319
 3920TIP3   OH233174   0.156   4.368   4.863  0.5490 -0.7595  0.2960
 3920TIP3    H133175   0.246   4.348   4.891  0.7949  0.1860  0.2124
 3920TIP3    H233176   0.113   4.399   4.943  0.9742  1.0156 -0.1386
 3921TIP3   OH233177   3.511   3.930   3.234  0.1273 -0.0588  0.3536
 3921TIP3    H133178   3.568   3.933   3.157  0.5750 -0.2883  0.6644
 3921TIP3    H233179   3.524   3.841   3.269 -1.5890 -0.6498 -0.4182
 3922TIP3   OH233180   6.314   0.991  14.834  0.1412  0.6307 -0.1543
 3922TIP3    H133181   6.408   0.985  14.847  0.2040  0.6725 -0.5912
 3922TIP3    H233182   6.297   1.083  14.817 -0.1427  0.8420  1.1535
 3923TIP3   OH233183   3.365   3.952  14.536  0.6648  0.3622  0.2062
 3923TIP3    H133184   3.407   3.939  14.451  2.5499  2.8179  0.6521
 3923TIP3    H233185   3.382   4.044  14.557 -1.6027  0.3924  2.2871
 3924TIP3   OH233186   0.154   5.999  14.384  0.1281  0.2944 -0.1564
 3924TIP3    H133187   0.218   6.070  14.393  1.8837 -1.1262 -0.8376
 3924TIP3    H233188   0.146   5.986  14.290  0.1496 -0.6769 -0.0264
 3925TIP3   OH233189   5.146   4.671   2.842 -0.1749  0.6476 -0.7507
 3925TIP3    H133190   5.071   4.651   2.898  1.0122 -1.4751  0.2048
 3925TIP3    H233191   5.212   4.605   2.865  1.2694  1.1986 -2.9607
 3926TIP3   OH233192   5.358   0.650   5.240 -0.3967  0.2925  0.2918
 3926TIP3    H133193   5.383   0.692   5.323 -1.6211  2.4739 -0.3642
 3926TIP3    H233194   5.263   0.666   5.233 -0.6088 -1.2173 -0.8093
 3927TIP3   OH233195   3.258   1.955  15.818 -0.4407 -0.0183 -0.1121
 3927TIP3    H133196   3.273   1.929  15.908 -0.4508  0.7855  0.1308
 3927TIP3    H233197   3.191   1.894  15.786  0.1597 -0.8355  0.1525
 3928TIP3   OH233198   3.068   3.113   0.995  0.3394 -0.4671 -0.5116
 3928TIP3    H133199   3.007   3.089   0.926  1.0276 -0.5298 -1.1078
 3928TIP3    H233200   3.057   3.045   1.062 -2.1152  0.9156  0.6124
 3929TIP3   OH233201   3.263   0.705   6.104  0.4124  0.4721 -0.3931
 3929TIP3    H133202   3.350   0.721   6.069  0.1882  0.8217 -0.8094
 3929TIP3    H233203   3.262   0.751   6.188  0.6833  0.3269 -0.3109
 3930TIP3   OH233204   5.019   6.456   5.514  0.1461  0.4984 -0.1608
 3930TIP3    H133205   4.998   6.391   5.581 -1.0404  2.2423  1.2299
 3930TIP3    H233206   5.083   6.513   5.554 -0.8138  1.7529 -0.3472
 3931TIP3   OH233207   1.071   3.356   2.146  0.0294 -0.0796 -1.0757
 3931TIP3    H133208   1.066   3.293   2.218  0.1434 -0.3916 -1.3338
 3931TIP3    H233209   0.982   3.362   2.113 -0.0382  0.1289 -0.8514
 3932TIP3   OH233210   0.116   5.880   4.861  0.2411 -0.5094 -0.2616
 3932TIP3    H133211   0.062   5.808   4.830  0.5971 -0.5437 -0.8235
 3932TIP3    H233212   0.204   5.860   4.828  0.0999  0.8363 -1.5921
 3933TIP3   OH233213   3.010   4.889  16.437  0.0627  0.1812 -0.1300
 3933TIP3    H133214   3.037   4.981  16.435  0.0425  0.1885 -0.0790
 3933TIP3    H233215   2.914   4.892  16.440  0.0198  0.1436 -1.1284
 3934TIP3   OH233216   0.779   3.209  12.366 -0.2919  0.0978  0.1253
 3934TIP3    H133217   0.707   3.165  12.321 -0.2040 -1.5523  1.5008
 3934TIP3    H233218   0.853   3.148  12.359  0.4974  1.0139  0.1910
 3935TIP3   OH233219   6.059   1.060   1.181 -0.0562 -0.0274  0.6016
 3935TIP3    H133220   6.145   1.046   1.220  0.2791 -2.0094 -0.6923
 3935TIP3    H233221   6.052   1.155   1.170  1.9122  0.1745  0.8610
 3936TIP3   OH233222   5.706   1.747   5.842  0.1593 -0.0235  0.4645
 3936TIP3    H133223   5.738   1.805   5.912  0.1463  0.7068 -0.1157
 3936TIP3    H233224   5.779   1.744   5.780 -0.4637  0.7673 -0.3376
 3937TIP3   OH233225   5.529   0.624   1.993 -0.0866  0.0936 -0.0202
 3937TIP3    H133226   5.613   0.657   1.962  0.1572 -0.8544 -0.4011
 3937TIP3    H233227   5.547   0.591   2.080 -0.3432  0.9809  0.3836
 3938TIP3   OH233228   4.403   2.407   3.486  0.5887  0.4145 -0.0213
 3938TIP3    H133229   4.494   2.377   3.487  0.0976 -1.2686 -1.4327
 3938TIP3    H233230   4.372   2.389   3.397 -0.9709  1.5165  0.2402
 3939TIP3   OH233231   5.032   4.795   2.450  0.3360 -0.2817 -0.4719
 3939TIP3    H133232   5.116   4.841   2.438  0.3247  0.2695  1.3447
 3939TIP3    H233233   5.000   4.824   2.535 -0.8606 -1.8350 -0.3434
 3940TIP3   OH233234   5.030   3.320  16.510 -0.2872 -0.1265 -0.2258
 3940TIP3    H133235   5.126   3.316  16.506 -0.0916 -2.3216  2.8495
 3940TIP3    H233236   5.011   3.412  16.530  1.2714  0.1190  0.2858
 3941TIP3   OH233237   4.566   4.929  12.282  0.8010  0.0782  0.1625
 3941TIP3    H133238   4.654   4.966  12.270  0.8340 -0.2180 -0.5515
 3941TIP3    H233239   4.559   4.861  12.215  0.6567 -1.0691  1.2921
 3942TIP3   OH233240   5.019   5.494   1.337 -0.1595 -0.2074  0.4367
 3942TIP3    H133241   5.049   5.456   1.255 -0.2468  0.5346  0.0541
 3942TIP3    H233242   4.946   5.552   1.312 -0.4850 -0.3218  1.0897
 3943TIP3   OH233243   1.150   3.247   4.785  0.0842 -0.2315 -0.1697
 3943TIP3    H133244   1.184   3.320   4.733  0.5123 -0.8509 -0.7775
 3943TIP3    H233245   1.103   3.192   4.721  1.1303 -1.3223 -0.0421
 3944TIP3   OH233246   3.406   0.455  16.996  0.1180 -0.1662  0.2725
 3944TIP3    H133247   3.412   0.410  17.080  1.8885  1.1401  0.9069
 3944TIP3    H233248   3.481   0.514  16.995 -1.0478  1.4066 -1.3208
 3945TIP3   OH233249   5.947   3.617  13.795  0.1420 -0.0637 -0.0488
 3945TIP3    H133250   5.935   3.658  13.709  0.3625 -0.4389 -0.2590
 3945TIP3    H233251   5.875   3.556  13.803  0.3174 -0.2798 -0.1146
 3946TIP3   OH233252   2.939   0.902   1.844 -0.1760  0.1780 -0.6836
 3946TIP3    H133253   3.018   0.850   1.863  0.4722  1.3712 -0.0079
 3946TIP3    H233254   2.966   0.959   1.772 -0.6889  0.0194 -1.0029
 3947TIP3   OH233255   0.666   1.245   2.642  0.2563  0.2705 -0.4635
 3947TIP3    H133256   0.638   1.295   2.719 -2.1958  0.9320 -1.6677
 3947TIP3    H233257   0.761   1.254   2.641  0.6415 -1.2976  3.4432
 3948TIP3   OH233258   1.488   4.034   4.632  0.0271  0.0524  0.5412
 3948TIP3    H133259   1.422   3.975   4.669 -0.8672  1.7855  1.8586
 3948TIP3    H233260   1.546   4.052   4.706  3.0757 -2.6680 -0.9241
 3949TIP3   OH233261   3.216   2.072   6.993 -0.3821  0.1524  0.3273
 3949TIP3    H133262   3.251   2.150   6.950  3.0287 -0.8343  1.0441
 3949TIP3    H233263   3.189   2.015   6.920 -0.1260  0.8124 -0.2910
 3950TIP3   OH233264   2.484   5.891   5.815  0.8466 -0.4000  0.2367
 3950TIP3    H133265   2.548   5.848   5.759 -1.9951 -1.3735 -2.5248
 3950TIP3    H233266   2.501   5.984   5.805  0.1710 -0.5172 -2.7500
 3951TIP3   OH233267   2.771   0.113  11.671  0.0030  0.6362 -0.0293
 3951TIP3    H133268   2.859   0.075  11.662  1.1337  2.8625  0.7799
 3951TIP3    H233269   2.717   0.061  11.612  2.0902 -0.1902 -1.3697
 3952TIP3   OH233270   3.301   4.913  11.529 -0.4796 -0.3388 -0.7086
 3952TIP3    H133271   3.291   5.003  11.557 -1.0785 -0.9828  1.3320
 3952TIP3    H233272   3.369   4.916  11.462  1.1078  1.3590  0.8649
 3953TIP3   OH233273   4.471   2.128   6.321 -0.2324 -0.0075 -0.4637
 3953TIP3    H133274   4.565   2.108   6.314 -0.4171 -1.1621  0.0860
 3953TIP3    H233275   4.463   2.218   6.289  1.2588  0.5702  0.6670
 3954TIP3   OH233276   6.564   2.278  13.726 -0.4753  0.2405 -0.2001
 3954TIP3    H133277   6.579   2.187  13.753  1.7750  0.1795 -1.3926
 3954TIP3    H233278   6.601   2.331  13.797 -0.2534  0.1786 -0.2671
 3955TIP3   OH233279   0.770   3.066  11.829 -0.6633  0.0292 -0.1670
 3955TIP3    H133280   0.806   3.004  11.892 -0.3239 -1.7757 -2.0528
 3955TIP3    H233281   0.847   3.112  11.795 -0.8535  1.0554  0.7246
 3956TIP3   OH233282   2.743   0.034  11.916  0.5830 -0.4367 -0.3424
 3956TIP3    H133283   2.745   0.082  11.834  0.9818  1.9797  1.0010
 3956TIP3    H233284   2.652   0.003  11.923 -0.2305  1.7345 -0.4493
 3957TIP3   OH233285   5.903   4.066  12.277 -0.1003  0.0474 -0.3228
 3957TIP3    H133286   5.958   4.010  12.222 -0.6191 -0.2123 -0.5841
 3957TIP3    H233287   5.934   4.049  12.366  1.7079  1.5253 -0.6030
 3958TIP3   OH233288   3.220   6.094  14.003 -0.0894 -0.1852  0.3658
 3958TIP3    H133289   3.183   6.092  14.091 -1.0189 -1.1172 -0.0237
 3958TIP3    H233290   3.314   6.087  14.017 -0.0547  1.5645  1.3531
 3959TIP3   OH233291   4.558   6.341  13.582 -0.6485  0.4275 -0.4080
 3959TIP3    H133292   4.557   6.297  13.667 -1.5962  0.3647 -0.4399
 3959TIP3    H233293   4.628   6.298  13.533 -1.4058 -0.9287 -0.3673
 3960TIP3   OH233294   1.895   3.891   4.078 -0.5727 -0.4415 -0.0098
 3960TIP3    H133295   1.875   3.810   4.031  0.1883 -0.5644 -0.1409
 3960TIP3    H233296   1.989   3.885   4.095 -0.8542 -0.5221  1.7469
 3961TIP3   OH233297   6.720   4.167  12.790 -0.0487  0.1112 -0.2585
 3961TIP3    H133298   6.708   4.073  12.781 -1.7888  0.3407 -0.6562
 3961TIP3    H233299   6.733   4.198  12.700  0.1372  0.2883 -0.1697
 3962TIP3   OH233300   1.777   3.108  11.891  0.3483  0.1625 -0.0497
 3962TIP3    H133301   1.776   3.199  11.862  0.2530 -0.3470 -1.7649
 3962TIP3    H233302   1.806   3.112  11.982 -2.4261  2.1219  0.8815
 3963TIP3   OH233303   2.562   2.305  14.531  0.2634 -0.4720 -0.1141
 3963TIP3    H133304   2.553   2.319  14.625 -0.0682  0.4576 -0.2731
 3963TIP3    H233305   2.654   2.281  14.519  0.6782  0.7856  0.3075
 3964TIP3   OH233306   1.511   3.902  13.949 -0.2911 -0.4769 -0.4585
 3964TIP3    H133307   1.429   3.854  13.935  0.4969 -1.9493 -0.2426
 3964TIP3    H233308   1.542   3.923  13.860  0.0497 -1.6430 -0.6369
 3965TIP3   OH233309   6.477   6.281   3.379  0.9267 -0.8695  0.8916
 3965TIP3    H133310   6.433   6.358   3.415 -0.3856 -1.0884 -0.1516
 3965TIP3    H233311   6.525   6.314   3.303 -0.3287 -1.1597 -0.0764
 3966TIP3   OH233312   4.913   4.214   0.447 -0.2879 -0.2807  0.5102
 3966TIP3    H133313   4.829   4.173   0.464 -0.9402  0.7607 -0.0979
 3966TIP3    H233314   4.901   4.260   0.364  1.1044 -0.7035  0.0304
 3967TIP3   OH233315   6.196   0.366   4.049 -0.1756  0.2295 -0.4995
 3967TIP3    H133316   6.251   0.300   4.006  2.3479  0.3737  2.1513
 3967TIP3    H233317   6.109   0.328   4.052  0.3515 -1.2604 -2.4658
 3968TIP3   OH233318   6.573   4.127  11.639  0.0220  0.5377  0.0493
 3968TIP3    H133319   6.538   4.116  11.727  1.8848  1.6890  0.9963
 3968TIP3    H233320   6.594   4.220  11.633 -1.6134  0.8194 -2.2538
 3969TIP3   OH233321   1.090   3.817  14.231  0.0389 -0.2703 -0.1024
 3969TIP3    H133322   1.077   3.865  14.150 -0.7727 -0.3519 -0.0269
 3969TIP3    H233323   1.104   3.727  14.204  1.9520  0.0363 -0.2678
 3970TIP3   OH233324   6.416   2.512   0.864  0.4321  0.9480  0.2479
 3970TIP3    H133325   6.433   2.605   0.878 -0.9137  0.9688  2.1524
 3970TIP3    H233326   6.364   2.508   0.784 -0.3633  1.9505  0.6957
 3971TIP3   OH233327   0.830   4.240  11.604 -0.6270  0.1252  0.1103
 3971TIP3    H133328   0.743   4.262  11.573 -0.2630  3.4509  1.0825
 3971TIP3    H233329   0.887   4.248  11.527 -0.7275  1.3270  0.1471
 3972TIP3   OH233330   6.491   0.796   4.129 -0.1137 -0.3117  0.0389
 3972TIP3    H133331   6.429   0.730   4.098  0.6724 -0.9157 -0.2843
 3972TIP3    H233332   6.556   0.802   4.059  0.2584  0.2271  0.4252
 3973TIP3   OH233333   3.809   4.428   3.427 -0.4052 -0.0939  0.0484
 3973TIP3    H133334   3.805   4.334   3.443 -1.5318 -0.2381 -0.9820
 3973TIP3    H233335   3.789   4.438   3.334  1.0498  1.0716 -0.1821
 3974TIP3   OH233336   2.855   6.044  13.500  0.7655 -0.8321  0.5926
 3974TIP3    H133337   2.906   5.968  13.528  0.1144 -1.0740  1.1464
 3974TIP3    H233338   2.831   6.025  13.409  1.3984 -0.8494  0.4207
 3975TIP3   OH233339   6.296   4.158   4.596  0.0507  0.2505  0.1192
 3975TIP3    H133340   6.364   4.106   4.637  0.4031 -0.8379 -1.7366
 3975TIP3    H233341   6.227   4.095   4.575 -0.7987  1.0488  0.4322
 3976TIP3   OH233342   5.509   6.674  11.877 -0.5778  0.3669 -0.0210
 3976TIP3    H133343   5.582   6.675  11.939 -1.2533  2.1973  0.8099
 3976TIP3    H233344   5.524   6.750  11.821 -1.4662  0.3570 -0.2895
 3977TIP3   OH233345   0.135   2.300   0.741 -0.6655 -0.2775 -0.0397
 3977TIP3    H133346   0.066   2.340   0.794  0.0840 -0.8411  1.4229
 3977TIP3    H233347   0.090   2.230   0.693 -1.2257 -0.3093  0.5087
 3978TIP3   OH233348   4.698   4.440   5.362 -0.0515  0.1497 -0.2214
 3978TIP3    H133349   4.632   4.396   5.308  0.1348  1.2800 -1.4234
 3978TIP3    H233350   4.723   4.375   5.427 -2.6828 -0.2059  0.5857
 3979TIP3   OH233351   3.150   5.350  14.337 -0.2033  0.0595 -0.3255
 3979TIP3    H133352   3.087   5.279  14.348  0.7506 -0.8715 -0.6914
 3979TIP3    H233353   3.170   5.350  14.244 -0.2631  0.8848 -0.3446
 3980TIP3   OH233354   3.217   3.716  16.061 -0.2245 -0.8646 -0.4954
 3980TIP3    H133355   3.281   3.779  16.029  0.6306 -2.2148 -1.5188
 3980TIP3    H233356   3.166   3.692  15.983 -1.2310 -0.6827  0.0849
 3981TIP3   OH233357   3.717   1.401   1.294 -0.0322  0.7538  0.1908
 3981TIP3    H133358   3.697   1.410   1.200  0.6717 -1.1301 -0.1721
 3981TIP3    H233359   3.707   1.490   1.328  2.5085  2.1117 -2.2117
 3982TIP3   OH233360   4.302   1.395   2.633  0.9952 -0.6136 -0.2140
 3982TIP3    H133361   4.214   1.418   2.662  0.8918 -0.1457 -0.8847
 3982TIP3    H233362   4.358   1.417   2.708  0.5891 -0.5841  0.0855
 3983TIP3   OH233363   4.939   1.481   0.811  0.2607  0.4254  0.4567
 3983TIP3    H133364   4.849   1.512   0.814  0.6028  1.5479 -0.4296
 3983TIP3    H233365   4.932   1.386   0.812 -0.9339  0.5015  0.2664
 3984TIP3   OH233366   5.816   2.295  12.028 -0.1644  0.0403 -0.9092
 3984TIP3    H133367   5.722   2.309  12.042  0.0473 -0.2366  1.0893
 3984TIP3    H233368   5.858   2.358  12.086  0.8983  0.0760 -1.6978
 3985TIP3   OH233369   0.802   6.628   4.890 -0.6590 -0.2012 -0.0651
 3985TIP3    H133370   0.822   6.701   4.831 -0.5621  0.7025  1.0654
 3985TIP3    H233371   0.824   6.550   4.839  2.2837  0.6273 -0.2010
 3986TIP3   OH233372   2.747   4.585  15.073 -0.1077  0.7297 -0.7557
 3986TIP3    H133373   2.784   4.499  15.097 -1.8967  0.5064  1.5454
 3986TIP3    H233374   2.819   4.646  15.086  0.9176 -0.2962 -1.4327
 3987TIP3   OH233375   0.067   2.475   3.204  0.0458  0.3199 -0.0709
 3987TIP3    H133376   0.086   2.400   3.148  1.2831 -0.1023  0.8834
 3987TIP3    H233377   0.110   2.455   3.287 -0.6194  1.5474  0.5979
 3988TIP3   OH233378   2.794   2.682  11.420  0.6469 -0.0604  0.1184
 3988TIP3    H133379   2.781   2.736  11.498  2.1890 -0.1536  0.4770
 3988TIP3    H233380   2.745   2.602  11.438  0.3842  0.2189  0.6767
 3989TIP3   OH233381   1.083   0.730   4.308  0.3016  0.6778 -0.2553
 3989TIP3    H133382   1.092   0.811   4.257 -1.0335  0.5911 -0.6700
 3989TIP3    H233383   1.035   0.757   4.387  0.0447  0.3288 -0.2926
 3990TIP3   OH233384   1.020   1.550  10.931 -0.1603 -0.3414  0.8638
 3990TIP3    H133385   1.051   1.559  10.841 -1.7060 -0.5715  0.2800
 3990TIP3    H233386   1.066   1.619  10.979  0.3521  0.0734 -0.1918
 3991TIP3   OH233387   2.061   5.108  11.949 -0.0602  0.4017  0.7249
 3991TIP3    H133388   2.034   5.168  11.879  1.9256  0.6181  0.0720
 3991TIP3    H233389   1.983   5.097  12.003 -1.0712  1.8824 -0.3524
 3992TIP3   OH233390   1.070   4.808  10.404 -0.0678 -0.4028  0.1283
 3992TIP3    H133391   1.015   4.868  10.353 -1.3230 -1.9503 -0.4291
 3992TIP3    H233392   1.045   4.824  10.495 -0.6766 -0.3458 -0.0419
 3993TIP3   OH233393   0.800   1.866   3.473  0.0718  1.0984 -0.0517
 3993TIP3    H133394   0.779   1.879   3.566  1.6779 -0.0676  0.5252
 3993TIP3    H233395   0.716   1.850   3.431 -0.5956  0.6995  1.3812
 3994TIP3   OH233396   3.732   4.460   2.241 -0.0680 -0.2077 -0.5889
 3994TIP3    H133397   3.761   4.532   2.296  0.3728 -1.0891  0.3604
 3994TIP3    H233398   3.644   4.485   2.213  0.8597  1.6811 -2.0554
 3995TIP3   OH233399   5.897   6.087  13.764  0.2054 -0.3171 -0.3796
 3995TIP3    H133400   5.862   5.998  13.772 -0.9506  0.1839  0.4029
 3995TIP3    H233401   5.844   6.127  13.695  0.0887  0.0636 -0.0678
 3996TIP3   OH233402   4.639   2.098   4.376  0.3658 -0.6128  0.4470
 3996TIP3    H133403   4.549   2.104   4.343  0.0744 -1.2290  1.1121
 3996TIP3    H233404   4.661   2.005   4.371  1.0523 -0.4352  0.0734
 3997TIP3   OH233405   0.657   3.045  13.314  0.0707 -0.1454  0.1181
 3997TIP3    H133406   0.621   2.980  13.254  0.2153  0.0081 -0.1400
 3997TIP3    H233407   0.743   3.067  13.277 -0.6283  1.3853 -0.7493
 3998TIP3   OH233408   1.291   1.823  15.024 -0.4216  0.0508  0.1415
 3998TIP3    H133409   1.314   1.904  14.978 -2.3287  1.7165  1.8871
 3998TIP3    H233410   1.267   1.762  14.955 -1.5663  1.8950 -1.2003
 3999TIP3   OH233411   5.193   4.404  15.653  0.2945  0.0340 -1.0300
 3999TIP3    H133412   5.192   4.446  15.567 -0.6317 -0.5755 -1.3258
 3999TIP3    H233413   5.146   4.465  15.710  2.3450  1.2457 -0.5320
 4000TIP3   OH233414   3.181   0.679   3.705 -0.6125 -0.4747  0.8516
 4000TIP3    H133415   3.258   0.695   3.760 -0.9773 -2.1966  1.9416
 4000TIP3    H233416   3.135   0.763   3.704 -0.1116 -0.1423  2.4233
 4001TIP3   OH233417   3.428   2.108  15.660  0.2403 -0.2238  0.4381
 4001TIP3    H133418   3.403   2.061  15.580  0.3824 -1.9135  1.3438
 4001TIP3    H233419   3.378   2.065  15.729 -1.7728  2.7939  1.0122
 4002TIP3   OH233420   5.764   3.554  14.205 -0.1061 -0.4649 -0.2813
 4002TIP3    H133421   5.728   3.564  14.117  1.3979 -0.0264 -0.8757
 4002TIP3    H233422   5.859   3.549  14.192  0.3439  1.9020  1.4888
 4003TIP3   OH233423   5.937   6.311   2.663  0.2218 -0.2087  0.1170
 4003TIP3    H133424   5.858   6.256   2.672  0.2080 -0.3148 -0.6456
 4003TIP3    H233425   6.006   6.260   2.706 -0.1144 -0.1196  0.7832
 4004TIP3   OH233426   3.113   5.312  15.604 -0.2203 -0.3358 -0.2311
 4004TIP3    H133427   3.122   5.366  15.683 -1.0642  0.8684 -0.9249
 4004TIP3    H233428   3.022   5.324  15.578  0.4801  0.7376 -2.3957
 4005TIP3   OH233429   6.105   3.754  10.830 -0.4890 -0.2196 -0.5892
 4005TIP3    H133430   6.101   3.841  10.870 -0.2083 -0.2202 -0.5604
 4005TIP3    H233431   6.029   3.708  10.866  0.1828 -0.4719  0.5427
 4006TIP3   OH233432   4.148   4.802   3.446  0.6200  0.0247  0.3297
 4006TIP3    H133433   4.081   4.855   3.403 -0.8280 -1.5501  0.5472
 4006TIP3    H233434   4.115   4.713   3.441  2.8376 -0.8463  0.2491
 4007TIP3   OH233435   4.024   0.279   2.182  0.3721 -0.3153  0.0455
 4007TIP3    H133436   4.080   0.334   2.237  0.7009  0.0116 -0.6069
 4007TIP3    H233437   3.945   0.331   2.168  1.2644  0.6215 -1.7552
 4008TIP3   OH233438   2.506   5.210  16.827  0.1851  0.7402 -0.9125
 4008TIP3    H133439   2.412   5.188  16.825  0.4669 -0.6515 -0.2848
 4008TIP3    H233440   2.529   5.223  16.735 -0.7056  1.5202 -1.0452
 4009TIP3   OH233441   0.989   5.338  15.564 -0.1806 -0.2493 -0.0279
 4009TIP3    H133442   1.022   5.416  15.608  1.3018 -0.2233 -1.0846
 4009TIP3    H233443   1.012   5.265  15.623 -0.4167 -0.0009  0.3712
 4010TIP3   OH233444   1.310   2.068  13.789 -0.6841  0.7004 -0.5095
 4010TIP3    H133445   1.376   2.120  13.744  1.7313  1.0963  3.1028
 4010TIP3    H233446   1.275   2.127  13.856 -1.1816 -0.9860  0.7660
 4011TIP3   OH233447   0.124   0.182  15.157  0.5009 -0.4726  0.2586
 4011TIP3    H133448   0.097   0.111  15.098  0.9270 -0.3805 -0.0505
 4011TIP3    H233449   0.043   0.210  15.199 -0.2953  1.1469 -2.1247
 4012TIP3   OH233450   2.080   4.806   0.086  0.2781  0.3158  0.4150
 4012TIP3    H133451   2.097   4.714   0.107  0.6732  0.1124 -0.7384
 4012TIP3    H233452   1.987   4.818   0.104  0.5928  0.1832  2.2976
 4013TIP3   OH233453   3.554   1.150  13.491  0.3881 -0.0558 -0.3910
 4013TIP3    H133454   3.561   1.065  13.446  1.6019 -1.0288  1.4889
 4013TIP3    H233455   3.565   1.215  13.422  0.4212 -1.4426 -1.7458
 4014TIP3   OH233456   3.214   6.220   0.510 -0.7430 -0.7447 -0.0052
 4014TIP3    H133457   3.125   6.240   0.478 -0.5624 -0.1608 -0.1576
 4014TIP3    H233458   3.203   6.206   0.604 -1.1227 -1.4853 -0.1501
 4015TIP3   OH233459   4.866   3.672  11.143  0.4980 -0.1952 -0.7191
 4015TIP3    H133460   4.783   3.651  11.100  0.9397  1.6699 -2.6339
 4015TIP3    H233461   4.857   3.635  11.231 -1.2468 -2.4247 -1.7150
 4016TIP3   OH233462   3.562   0.341  12.557 -0.1725  0.1119 -0.3756
 4016TIP3    H133463   3.524   0.429  12.554  0.5415  0.4582  0.3555
 4016TIP3    H233464   3.487   0.283  12.565 -0.5774  0.7881  1.2413
 4017TIP3   OH233465   4.897   2.473  16.645  0.5271 -0.2180  0.2191
 4017TIP3    H133466   4.814   2.519  16.636 -0.1254 -1.2206  0.9666
 4017TIP3    H233467   4.963   2.542  16.636 -0.4497  1.3671  3.5731
 4018TIP3   OH233468   2.726   0.645  13.933 -0.1311  0.1073 -0.7639
 4018TIP3    H133469   2.782   0.612  14.003 -2.0933 -0.8919  0.4607
 4018TIP3    H233470   2.695   0.730  13.965  0.8725  0.8027 -1.5748
 4019TIP3   OH233471   4.801   3.216  16.245 -0.3574 -0.4799 -0.4820
 4019TIP3    H133472   4.749   3.235  16.323  0.8502 -1.2328  0.5503
 4019TIP3    H233473   4.753   3.145  16.202 -2.4602  1.6615 -1.9402
 4020TIP3   OH233474   2.186   0.417   0.272 -0.6368  0.1497  0.5426
 4020TIP3    H133475   2.095   0.399   0.297 -0.4117  0.0513  1.3213
 4020TIP3    H233476   2.189   0.512   0.260 -0.8888  0.1309  0.3151
 4021TIP3   OH233477   4.187   4.717   5.531 -0.1407 -0.3469  0.5063
 4021TIP3    H133478   4.218   4.733   5.620  1.7729 -0.3451 -0.1183
 4021TIP3    H233479   4.260   4.743   5.475 -0.8710 -1.4239 -1.0127
 4022TIP3   OH233480   1.592   5.489  13.777  0.5589 -0.7759 -0.3101
 4022TIP3    H133481   1.521   5.514  13.717  0.7260 -0.8171 -0.5251
 4022TIP3    H233482   1.667   5.540  13.747  0.9297 -1.5981 -0.8130
 4023TIP3   OH233483   4.146   3.278  10.533  0.1934  0.3516  0.2775
 4023TIP3    H133484   4.105   3.192  10.535 -1.7113  1.1591 -0.9603
 4023TIP3    H233485   4.107   3.326  10.606  2.5647 -0.2999  2.0976
 4024TIP3   OH233486   2.021   0.921   1.087 -0.0010 -0.0483 -0.4336
 4024TIP3    H133487   2.092   0.951   1.143  1.8800 -1.8485 -1.7091
 4024TIP3    H233488   2.053   0.935   0.998 -0.9084 -1.5442 -1.0427
 4025TIP3   OH233489   3.624   1.366   2.787  0.2537  0.4770  0.7728
 4025TIP3    H133490   3.534   1.398   2.792 -0.4128 -1.3349  1.1219
 4025TIP3    H233491   3.634   1.309   2.863  0.3983 -2.4170 -1.2505
 4026TIP3   OH233492   6.596   4.316  14.109 -0.2594  0.2855  0.0917
 4026TIP3    H133493   6.632   4.404  14.099 -0.5248  0.4832  0.8228
 4026TIP3    H233494   6.503   4.327  14.089 -0.2303  0.0958 -0.1597
 4027TIP3   OH233495   6.027   6.343   4.997  0.4994  0.3239 -0.2330
 4027TIP3    H133496   6.117   6.359   4.969  0.7938 -1.4163 -0.3921
 4027TIP3    H233497   6.023   6.249   5.011 -0.5751  0.6735  2.3338
 4028TIP3   OH233498   3.966   0.338  11.079  0.6629  0.4375  0.4033
 4028TIP3    H133499   4.031   0.359  11.012 -0.1245 -0.3935 -0.6701
 4028TIP3    H233500   3.885   0.378  11.046  0.1221 -0.5383  0.5114
 4029TIP3   OH233501   2.634   2.771   1.075  0.3867 -0.2745 -0.2348
 4029TIP3    H133502   2.612   2.714   1.002 -1.6386 -0.1298  0.2200
 4029TIP3    H233503   2.592   2.732   1.151  3.2596 -0.9693  1.1365
 4030TIP3   OH233504   5.522   5.004  12.284  0.4077  0.4045  0.0496
 4030TIP3    H133505   5.560   4.937  12.341 -0.6292 -0.1173  0.1575
 4030TIP3    H233506   5.571   5.083  12.304  0.7457 -0.0101  0.9296
 4031TIP3   OH233507   6.296   4.050  15.984 -0.3733  0.5368  0.0557
 4031TIP3    H133508   6.232   4.108  15.943 -0.5572  0.5952  0.4147
 4031TIP3    H233509   6.263   4.038  16.073  0.9871  1.9183  0.7976
 4032TIP3   OH233510   4.564   0.319  11.130  0.1122 -0.4796  0.7299
 4032TIP3    H133511   4.609   0.270  11.199 -0.3510 -1.3475  0.4258
 4032TIP3    H233512   4.548   0.254  11.061  1.7458  0.6328 -0.7864
 4033TIP3   OH233513   0.317   1.835  14.250 -0.0820 -0.3325 -0.8201
 4033TIP3    H133514   0.310   1.754  14.300 -1.1862  0.4038  0.2627
 4033TIP3    H233515   0.383   1.816  14.183  0.0448 -1.9507 -0.2782
 4034TIP3   OH233516   0.038   5.409  10.404 -0.2392 -0.7219  0.4457
 4034TIP3    H133517  -0.013   5.454  10.471  1.1689  1.1992  0.2903
 4034TIP3    H233518  -0.003   5.435  10.321  0.6768  0.4413  0.3461
 4035TIP3   OH233519   5.959   3.315  15.315  0.7480 -0.0949 -0.4975
 4035TIP3    H133520   5.893   3.358  15.369  2.0184  0.1204  0.9432
 4035TIP3    H233521   5.952   3.222  15.336 -0.6397 -0.4217 -2.1235
 4036TIP3   OH233522   6.338   2.887  11.918 -0.1457  0.0199 -0.1178
 4036TIP3    H133523   6.308   2.905  11.828 -1.1175 -0.6263  0.0619
 4036TIP3    H233524   6.260   2.899  11.972  0.6717  1.4423  0.7973
 4037TIP3   OH233525   0.999   3.189  11.723  0.1805  0.2232  0.7741
 4037TIP3    H133526   1.027   3.209  11.813 -1.1521 -0.4319  1.3692
 4037TIP3    H233527   1.078   3.158  11.680  1.3805  2.6463  1.0234
 4038TIP3   OH233528   4.305   5.673   3.579  0.3673  0.7019  0.0735
 4038TIP3    H133529   4.330   5.675   3.671  0.8022  3.2741 -0.0314
 4038TIP3    H233530   4.376   5.625   3.536  1.8138  2.1579  0.7020
 4039TIP3   OH233531   3.448   3.673  12.349 -0.1975  0.2626  0.0536
 4039TIP3    H133532   3.392   3.638  12.419  2.3174 -1.3194  1.4253
 4039TIP3    H233533   3.489   3.750  12.387  0.5067 -0.0898  0.0230
 4040TIP3   OH233534   3.097   1.764  14.077 -0.5196 -0.3454  0.2207
 4040TIP3    H133535   3.140   1.754  13.992 -0.1624 -0.2753  0.3912
 4040TIP3    H233536   3.105   1.858  14.097 -1.0595 -0.2698  0.0930
 4041TIP3   OH233537   0.970   4.019  16.565  0.2764  0.6511 -0.1992
 4041TIP3    H133538   0.953   4.113  16.571 -0.7009  0.7769 -3.2362
 4041TIP3    H233539   0.884   3.979  16.555  0.7664 -0.4405 -0.2674
 4042TIP3   OH233540   0.710   5.887   4.006 -0.1344 -0.1070 -0.1353
 4042TIP3    H133541   0.722   5.794   4.028 -2.0588 -0.5833 -0.8475
 4042TIP3    H233542   0.634   5.914   4.059 -1.3301  0.2608 -1.9338
 4043TIP3   OH233543   0.107   6.363   5.164  0.6986  0.3664 -0.1287
 4043TIP3    H133544   0.072   6.331   5.081  1.0360 -1.6875  0.4738
 4043TIP3    H233545   0.138   6.451   5.144 -1.6106  0.9548 -1.5311
 4044TIP3   OH233546   2.071   4.206  14.778 -0.3174 -0.5197 -0.2899
 4044TIP3    H133547   1.993   4.234  14.729 -1.3117 -1.2332  0.8160
 4044TIP3    H233548   2.055   4.238  14.867  1.2331  0.3545 -0.2921
 4045TIP3   OH233549   2.095   0.664   4.639 -0.6835 -0.2972 -0.1108
 4045TIP3    H133550   2.091   0.693   4.730 -0.5109 -2.6887  0.7344
 4045TIP3    H233551   2.117   0.743   4.589 -1.4442  1.2178  1.8155
 4046TIP3   OH233552   3.995   3.649   1.156  0.0893 -0.0456 -0.0524
 4046TIP3    H133553   3.910   3.688   1.173  0.7010  1.3397 -0.0429
 4046TIP3    H233554   4.037   3.643   1.242  0.2095 -0.2291 -0.1225
 4047TIP3   OH233555   3.177   5.653   5.418  0.2952 -0.3618 -0.2747
 4047TIP3    H133556   3.185   5.600   5.340 -1.2049  0.5147 -1.0805
 4047TIP3    H233557   3.242   5.722   5.408  1.7631 -1.5871  0.4417
 4048TIP3   OH233558   3.406   5.350   6.325 -0.4103 -0.0060 -0.1409
 4048TIP3    H133559   3.338   5.292   6.357 -0.9858  0.7365  0.0007
 4048TIP3    H233560   3.467   5.359   6.399 -1.1962  0.8879  0.4118
 4049TIP3   OH233561   2.270   6.746   0.736  0.2853 -0.3432 -0.5405
 4049TIP3    H133562   2.262   6.824   0.681  0.9287 -0.1231 -0.3255
 4049TIP3    H233563   2.360   6.747   0.767  0.0228 -0.6523  0.2535
 4050TIP3   OH233564   4.912   5.697   5.173 -0.0171  0.2981 -0.0461
 4050TIP3    H133565   4.898   5.621   5.230 -1.0318 -0.1682 -0.8766
 4050TIP3    H233566   4.973   5.752   5.221 -0.7701 -0.1179  1.4626
 4051TIP3   OH233567   0.724   2.999  15.045  0.2105  0.0867 -0.3715
 4051TIP3    H133568   0.662   3.005  14.972 -0.5156 -0.4542  0.1929
 4051TIP3    H233569   0.693   3.064  15.108 -0.2757 -0.7586  0.2738
 4052TIP3   OH233570   6.598   0.076   4.073 -0.4890  0.0593  0.0043
 4052TIP3    H133571   6.626   0.009   4.136 -0.3135 -1.3052 -1.4565
 4052TIP3    H233572   6.525   0.121   4.117  0.2081 -0.2203  1.5267
 4053TIP3   OH233573   0.974   6.723   4.123  0.1277  0.7704 -0.1865
 4053TIP3    H133574   0.971   6.686   4.035 -0.0672 -0.6959  0.4095
 4053TIP3    H233575   0.995   6.649   4.180  1.5974  1.9420  0.8734
 4054TIP3   OH233576   4.221   0.914   6.006 -0.0553 -0.5336  0.0880
 4054TIP3    H133577   4.127   0.915   6.025  0.2840 -0.0536  1.9177
 4054TIP3    H233578   4.251   1.003   6.026  0.6122 -0.2989 -1.6847
 4055TIP3   OH233579   2.917   1.072   4.177 -0.1177 -0.2288  0.3729
 4055TIP3    H133580   2.974   0.997   4.190 -0.8651 -0.7555  0.6494
 4055TIP3    H233581   2.856   1.069   4.250 -0.0605  0.7396  0.4745
 4056TIP3   OH233582   3.745   0.096   1.028  0.6893 -0.3043  0.1888
 4056TIP3    H133583   3.835   0.112   1.000  0.0616 -1.2946 -2.7561
 4056TIP3    H233584   3.748   0.012   1.073  1.1910 -0.4317 -0.0761
 4057TIP3   OH233585   4.755   5.422   4.539  0.1241 -0.0714  0.0501
 4057TIP3    H133586   4.838   5.431   4.492  0.4250  0.4965  0.6747
 4057TIP3    H233587   4.776   5.443   4.630 -1.2425  2.9857 -0.2229
 4058TIP3   OH233588   2.864   2.314  16.217  0.2848  0.1480  0.0283
 4058TIP3    H133589   2.876   2.265  16.298 -0.4426 -1.3631 -0.7461
 4058TIP3    H233590   2.934   2.283  16.159  0.9261  1.3673  0.1131
 4059TIP3   OH233591   5.019   4.191   5.215 -0.4259 -0.6446 -0.9119
 4059TIP3    H133592   4.984   4.218   5.130 -0.0826 -2.2263 -1.5886
 4059TIP3    H233593   5.105   4.155   5.195  0.2927  0.2985  0.3210
 4060TIP3   OH233594   6.368   5.090  12.607 -0.3543 -0.5804  0.8371
 4060TIP3    H133595   6.407   5.005  12.628  0.5545 -0.6894 -1.0086
 4060TIP3    H233596   6.400   5.149  12.676  2.0637 -0.9770  0.1469
 4061TIP3   OH233597   5.831   3.625   5.446 -0.1284  0.3169  0.0466
 4061TIP3    H133598   5.924   3.610   5.431 -0.1268  0.1738  0.1889
 4061TIP3    H233599   5.789   3.595   5.365 -0.1467 -0.7476  0.4351
 4062TIP3   OH233600   0.219   5.442  11.881  0.1961  0.4551  0.1315
 4062TIP3    H133601   0.160   5.462  11.808 -0.1956  1.1566  0.6231
 4062TIP3    H233602   0.205   5.349  11.897  1.3611 -0.0707 -1.6089
 4063TIP3   OH233603   5.478   6.760  15.455  0.2846  0.7861 -0.3919
 4063TIP3    H133604   5.395   6.781  15.498  0.4495 -0.1596  0.4063
 4063TIP3    H233605   5.452   6.720  15.372 -0.0828 -0.1339  0.1528
 4064TIP3   OH233606   0.315   6.513  11.066  0.2829 -0.1490  0.4079
 4064TIP3    H133607   0.386   6.501  11.130  1.2823  2.2423 -0.1440
 4064TIP3    H233608   0.360   6.518  10.982 -0.5165  1.4744  0.0511
 4065TIP3   OH233609   5.346   0.211  11.021 -0.1398  0.5928 -0.5158
 4065TIP3    H133610   5.324   0.118  11.017  0.1980  0.5322 -1.1042
 4065TIP3    H233611   5.342   0.232  11.115 -0.0087 -0.0663 -0.3540
 4066TIP3   OH233612   3.703   4.287  12.646 -0.2728 -0.3277  0.4868
 4066TIP3    H133613   3.641   4.253  12.581 -0.8527  2.0069 -0.2710
 4066TIP3    H233614   3.678   4.378  12.658  0.7177 -0.3067  2.9869
 4067TIP3   OH233615   5.772   2.754  13.312  0.3136  0.3093  0.3965
 4067TIP3    H133616   5.695   2.809  13.303  0.1551 -0.1533 -1.8322
 4067TIP3    H233617   5.745   2.684  13.371 -1.1762 -0.1032 -0.7033
 4068TIP3   OH233618   5.587   1.353  13.204  0.0584 -0.3481 -0.0890
 4068TIP3    H133619   5.569   1.387  13.292 -2.8835 -1.9076  0.0537
 4068TIP3    H233620   5.549   1.418  13.145 -0.2153 -0.4782 -0.0621
 4069TIP3   OH233621   4.296   2.437  12.512 -0.2677  0.6494 -0.2411
 4069TIP3    H133622   4.308   2.401  12.424 -0.1186  0.0228  0.0278
 4069TIP3    H233623   4.385   2.458  12.542 -0.1568 -0.5401  0.3267
 4070TIP3   OH233624   1.691   6.588  15.701  0.0135 -0.4066  0.1166
 4070TIP3    H133625   1.715   6.542  15.782  2.3849  0.9149  0.2651
 4070TIP3    H233626   1.682   6.519  15.636  1.9253 -1.2384  0.6636
 4071TIP3   OH233627   1.566   6.119   2.620  0.4944  0.0102 -0.2165
 4071TIP3    H133628   1.611   6.113   2.704  0.2520  0.2952 -0.0653
 4071TIP3    H233629   1.635   6.104   2.555  0.5779 -0.7443  0.0417
 4072TIP3   OH233630   2.916   5.351  12.243 -0.3814 -0.0586  0.2889
 4072TIP3    H133631   2.967   5.313  12.315 -0.3663 -0.1196  0.2463
 4072TIP3    H233632   2.910   5.444  12.264 -3.0276 -0.5201  2.0290
 4073TIP3   OH233633   6.761   4.731   1.356  0.0920 -0.3103  0.3472
 4073TIP3    H133634   6.853   4.705   1.353  0.4054  0.6866  0.7886
 4073TIP3    H233635   6.737   4.745   1.264 -0.2701 -2.6489  0.0287
 4074TIP3   OH233636   6.356   3.993   1.524  0.2254  0.0278 -0.2727
 4074TIP3    H133637   6.435   4.043   1.500  0.3581  0.3963  0.8506
 4074TIP3    H233638   6.380   3.949   1.605 -0.7433  0.1721  0.1050
 4075TIP3   OH233639   6.756   3.986   2.668 -0.3761 -1.0917  0.4476
 4075TIP3    H133640   6.824   3.950   2.725 -0.0639 -2.0206 -0.4711
 4075TIP3    H233641   6.706   4.044   2.724  1.6220  0.2120  1.0020
 4076TIP3   OH233642   1.757   3.966  10.754 -0.0949 -0.5601 -0.2510
 4076TIP3    H133643   1.749   4.060  10.773  2.5488  0.1955 -2.1765
 4076TIP3    H233644   1.667   3.934  10.751 -1.1544  2.1946 -0.7407
 4077TIP3   OH233645   1.760   4.304  15.575  0.6540  0.3260  0.5051
 4077TIP3    H133646   1.771   4.394  15.543 -0.5094  1.5569  3.2211
 4077TIP3    H233647   1.803   4.304  15.661  1.3115 -1.9911  0.2411
 4078TIP3   OH233648   0.763   4.402   6.266 -0.3118  0.5116 -0.1686
 4078TIP3    H133649   0.817   4.475   6.294 -1.9528  2.3925 -1.6113
 4078TIP3    H233650   0.681   4.411   6.316 -0.3963 -0.6096 -0.0635
 4079TIP3   OH233651   1.214   3.916  15.828  0.1468  0.6915  0.1426
 4079TIP3    H133652   1.149   3.881  15.889  1.7557 -0.3492  1.3936
 4079TIP3    H233653   1.268   3.840  15.806  1.0265  1.5410 -0.6988
 4080TIP3   OH233654   5.659   0.025   4.580 -0.3317 -0.4957 -0.4210
 4080TIP3    H133655   5.745   0.046   4.545  0.0883 -0.5003  0.5801
 4080TIP3    H233656   5.676  -0.004   4.670 -1.6208  2.1465  0.7702
 4081TIP3   OH233657   0.438   3.913   2.495 -0.0509  1.4137  0.5862
 4081TIP3    H133658   0.528   3.944   2.479 -0.2598  0.8503 -2.0709
 4081TIP3    H233659   0.443   3.819   2.480 -1.2514  1.5091 -0.5337
 4082TIP3   OH233660   1.320   4.806  10.663  0.2200  0.4422 -0.1214
 4082TIP3    H133661   1.299   4.881  10.607 -0.6161  0.1870 -0.1535
 4082TIP3    H233662   1.310   4.730  10.606  2.0059  0.3380 -0.3642
 4083TIP3   OH233663   2.247   3.366   2.053 -0.3712  0.0390  0.1043
 4083TIP3    H133664   2.270   3.290   2.000  0.0288 -0.9578  1.6686
 4083TIP3    H233665   2.329   3.414   2.063  0.0609 -0.9769  1.6757
 4084TIP3   OH233666   4.924   6.111  15.082 -0.6568  0.6403 -0.3457
 4084TIP3    H133667   4.902   6.021  15.059  1.5494  0.2311 -1.1527
 4084TIP3    H233668   4.844   6.147  15.121 -1.6608 -1.5713 -0.2340
 4085TIP3   OH233669   0.199   1.871  14.841 -0.1134 -0.9487 -0.5990
 4085TIP3    H133670   0.238   1.916  14.766 -0.0022  1.3375  0.7149
 4085TIP3    H233671   0.105   1.873  14.823 -0.2219  0.9777 -0.0496
 4086TIP3   OH233672   1.214   5.562  13.448  0.2137  0.4777 -0.1182
 4086TIP3    H133673   1.190   5.472  13.426  0.4990  0.3173  0.2167
 4086TIP3    H233674   1.162   5.616  13.388  1.2617  0.0388 -1.5013
 4087TIP3   OH233675   5.531   1.032   5.557  0.4321  0.3498  0.5341
 4087TIP3    H133676   5.515   1.108   5.613  2.2184  1.9242 -0.9696
 4087TIP3    H233677   5.580   0.970   5.612  1.0725  1.3382  1.0929
 4088TIP3   OH233678   5.067   4.365  16.652  0.3859  0.3944 -0.4396
 4088TIP3    H133679   5.160   4.351  16.667 -0.0409 -0.2694  2.1748
 4088TIP3    H233680   5.054   4.459  16.667  0.5742  0.3971 -0.2862
 4089TIP3   OH233681   4.251   5.176  16.149  0.0420  0.1827  0.2878
 4089TIP3    H133682   4.172   5.194  16.099 -0.1655  1.6009  1.0786
 4089TIP3    H233683   4.323   5.200  16.091 -0.1993  2.0591  0.7236
 4090TIP3   OH233684   2.550   0.886   4.852 -0.0536 -0.2019 -0.0453
 4090TIP3    H133685   2.473   0.832   4.866  0.2123 -0.0093  3.0987
 4090TIP3    H233686   2.622   0.823   4.845 -0.3266 -0.3478 -1.8996
 4091TIP3   OH233687   3.992   1.352   2.801  0.0944 -0.1388  0.6500
 4091TIP3    H133688   4.044   1.307   2.868 -1.8123 -0.1242  2.2239
 4091TIP3    H233689   4.003   1.445   2.820 -2.4962 -0.1374  2.7486
 4092TIP3   OH233690   3.372   6.429  13.037  0.1679 -0.2124  1.1923
 4092TIP3    H133691   3.305   6.362  13.027  0.6604 -0.3845 -2.0440
 4092TIP3    H233692   3.455   6.382  13.031  0.5602  0.3757  1.8177
 4093TIP3   OH233693   0.206   1.598  11.325 -0.8370  0.3534  0.2881
 4093TIP3    H133694   0.211   1.531  11.393  0.7575 -0.6533 -0.7490
 4093TIP3    H233695   0.225   1.551  11.244 -3.2133  1.4145 -0.9786
 4094TIP3   OH233696   6.202   3.825   5.578  0.1102  0.1222 -0.5808
 4094TIP3    H133697   6.188   3.756   5.642 -1.0156 -0.8361 -1.8060
 4094TIP3    H233698   6.201   3.906   5.629 -0.1423 -0.6537  0.6725
 4095TIP3   OH233699   6.489   0.237  14.513  0.1302  0.5387 -0.2202
 4095TIP3    H133700   6.554   0.178  14.474 -0.1293  1.1652 -1.6385
 4095TIP3    H233701   6.405   0.202  14.483 -0.0582  1.2196 -0.4869
 4096TIP3   OH233702   2.943   6.453  16.232  0.6069  0.0569 -0.1679
 4096TIP3    H133703   3.003   6.509  16.282  0.8019 -0.8862  0.6929
 4096TIP3    H233704   2.932   6.375  16.287 -1.7341  0.3674 -0.0948
 4097TIP3   OH233705   3.554   3.377   5.371 -0.6558 -0.8612 -0.5108
 4097TIP3    H133706   3.570   3.449   5.310 -2.2730  1.3733  1.5028
 4097TIP3    H233707   3.605   3.304   5.336  0.2515  0.9250 -3.2446
 4098TIP3   OH233708   6.721   1.909   1.402 -0.4513 -0.3681 -0.4752
 4098TIP3    H133709   6.685   1.919   1.313  0.5377 -0.0283 -0.8516
 4098TIP3    H233710   6.781   1.983   1.412 -0.5641 -0.3928  0.4944
 4099TIP3   OH233711   2.630   4.200   3.315 -0.4695  0.2744  0.2863
 4099TIP3    H133712   2.593   4.241   3.237  0.2082  0.8781  0.2787
 4099TIP3    H233713   2.715   4.166   3.287 -0.3913  0.1509  0.6689
 4100TIP3   OH233714   0.084   0.306   1.909 -0.4869 -0.6142  0.1056
 4100TIP3    H133715   0.042   0.333   1.991 -2.3120  1.7591 -1.4751
 4100TIP3    H233716   0.037   0.226   1.884 -2.4619  0.6230 -0.3556
 4101TIP3   OH233717   3.171   1.922   0.280 -0.3966 -0.1421 -0.1052
 4101TIP3    H133718   3.253   1.967   0.260 -0.1029 -1.0221 -0.9660
 4101TIP3    H233719   3.197   1.835   0.309 -0.9649  0.1829  1.4523
 4102TIP3   OH233720   5.393   6.500   0.456 -0.0988  0.8228  0.2266
 4102TIP3    H133721   5.458   6.453   0.509 -1.1064 -0.4897  0.3555
 4102TIP3    H233722   5.389   6.587   0.496  0.7363  0.5649  0.9353
 4103TIP3   OH233723   0.552   3.280  14.740  0.3269  0.1488  0.1955
 4103TIP3    H133724   0.604   3.355  14.711  0.6555  0.7335  2.1389
 4103TIP3    H233725   0.462   3.303  14.717  0.7766 -0.6735 -2.7949
 4104TIP3   OH233726   5.332   4.769   5.551  0.2512  0.3477  0.3945
 4104TIP3    H133727   5.403   4.819   5.511 -0.7140 -0.0099 -1.9237
 4104TIP3    H233728   5.268   4.757   5.480 -0.1270 -3.1064  1.1347
 4105TIP3   OH233729   2.505   4.703   0.116  0.5445 -0.4408 -0.7371
 4105TIP3    H133730   2.507   4.682   0.209 -1.3716 -0.4585 -0.6709
 4105TIP3    H233731   2.414   4.691   0.090  1.2495 -1.5629 -2.9026
 4106TIP3   OH233732   5.939   6.733   1.333  0.1797 -0.3642 -0.3526
 4106TIP3    H133733   5.884   6.811   1.341  1.6006  0.5433  1.1430
 4106TIP3    H233734   5.947   6.699   1.422  1.9975 -0.4763 -0.5168
 4107TIP3   OH233735   4.634   1.390   3.104 -0.1826  0.0355 -0.0932
 4107TIP3    H133736   4.680   1.374   3.021 -2.6838  1.2920 -1.8612
 4107TIP3    H233737   4.656   1.480   3.126 -3.6034  1.6439 -2.4192
 4108TIP3   OH233738   3.399   3.643   1.303  0.1550 -0.0643  0.4752
 4108TIP3    H133739   3.435   3.647   1.391 -1.9234 -1.3892  1.4614
 4108TIP3    H233740   3.371   3.552   1.292  1.4260 -0.2413 -2.0285
 4109TIP3   OH233741   2.338   3.729   0.879  0.4667  0.1256 -0.2215
 4109TIP3    H133742   2.335   3.633   0.886  0.5793 -0.1185 -2.6264
 4109TIP3    H233743   2.258   3.752   0.832  2.2568  0.7450 -3.2061
 4110TIP3   OH233744   2.569   3.440   1.475  0.0932 -0.4065 -0.9008
 4110TIP3    H133745   2.520   3.420   1.395 -0.5493 -0.3312 -0.5340
 4110TIP3    H233746   2.658   3.458   1.445  0.0314 -1.1018 -1.5226
 4111TIP3   OH233747   3.375   0.821  17.096 -0.0175  0.3522 -0.5395
 4111TIP3    H133748   3.350   0.820  17.189  2.3039  0.8969  0.1680
 4111TIP3    H233749   3.464   0.784  17.095 -0.2156 -0.1817 -2.6419
 4112TIP3   OH233750   2.176   5.509   4.123 -0.3141  0.0511 -0.1684
 4112TIP3    H133751   2.103   5.569   4.109 -0.5314 -0.0907  0.3362
 4112TIP3    H233752   2.247   5.545   4.071 -0.7934  0.0974 -0.8071
 4113TIP3   OH233753   0.629   2.310  11.196 -0.1507  0.0043  0.7375
 4113TIP3    H133754   0.701   2.371  11.214  0.8201 -1.5393  2.2800
 4113TIP3    H233755   0.553   2.349  11.240  0.0881  0.8382  0.4388
 4114TIP3   OH233756   1.314   4.061  16.090 -0.3710 -0.3757 -0.4150
 4114TIP3    H133757   1.339   4.078  16.181 -1.7181  0.4348 -0.1732
 4114TIP3    H233758   1.365   3.984  16.065  1.7733  0.7470  0.2619
 4115TIP3   OH233759   6.647   4.469  16.758  0.3708 -0.2372  0.1837
 4115TIP3    H133760   6.558   4.504  16.761  0.3913 -0.2551  1.3275
 4115TIP3    H233761   6.691   4.510  16.833  0.1719 -3.2263  2.0985
 4116TIP3   OH233762   6.032   2.285   4.939 -0.4935 -0.2845 -0.3467
 4116TIP3    H133763   6.043   2.267   5.032 -0.4414  0.8984 -0.1054
 4116TIP3    H233764   6.075   2.369   4.925  2.1753 -1.7778 -2.0613
 4117TIP3   OH233765   1.773   6.166   4.854 -0.0806 -0.4418 -0.7981
 4117TIP3    H133766   1.811   6.100   4.912 -0.2442 -1.2612 -1.6161
 4117TIP3    H233767   1.821   6.246   4.875  0.3889 -0.9005 -0.0741
 4118TIP3   OH233768   1.900   0.317  15.609 -0.2641 -0.1640 -0.0781
 4118TIP3    H133769   1.992   0.315  15.635 -0.1582  0.4623 -0.3925
 4118TIP3    H233770   1.863   0.236  15.645  0.9475 -1.6323 -1.9063
 4119TIP3   OH233771   0.175   0.118   5.982 -0.5367  0.0241  0.4200
 4119TIP3    H133772   0.169   0.184   5.914  0.6098 -0.0578  0.2220
 4119TIP3    H233773   0.127   0.155   6.056 -0.3587  0.8392  0.1342
 4120TIP3   OH233774   2.029   1.199  16.956 -0.0521 -0.3114  0.0754
 4120TIP3    H133775   2.093   1.134  16.926  1.8363 -0.0428  3.1081
 4120TIP3    H233776   2.080   1.279  16.968 -1.2287  0.2823  1.3502
 4121TIP3   OH233777   1.154   4.878   0.323  0.7516 -0.5027 -0.0595
 4121TIP3    H133778   1.209   4.911   0.252  1.1183  0.5331  0.6881
 4121TIP3    H233779   1.067   4.912   0.305  1.0813  0.7452  0.5882
 4122TIP3   OH233780   0.218   3.562   1.767 -0.0273  0.0076  0.0507
 4122TIP3    H133781   0.298   3.509   1.767 -0.2117 -0.2770 -0.0957
 4122TIP3    H233782   0.192   3.567   1.859  0.0586 -0.0531  0.0784
 4123TIP3   OH233783   5.123   1.142  11.908 -0.5869  0.4607 -0.3104
 4123TIP3    H133784   5.115   1.124  12.001  1.9943  0.4049 -0.0343
 4123TIP3    H233785   5.090   1.063  11.865  0.1955 -0.3786  0.6152
 4124TIP3   OH233786   1.440   5.142   2.036 -0.3729  0.6065  0.5797
 4124TIP3    H133787   1.412   5.231   2.058  1.1732  1.0169  0.9697
 4124TIP3    H233788   1.497   5.152   1.960 -2.1830 -0.3530 -0.9980
 4125TIP3   OH233789   4.655   6.556   2.825  0.2956  0.0100  0.7905
 4125TIP3    H133790   4.594   6.541   2.897  0.4835  0.4958  1.0576
 4125TIP3    H233791   4.673   6.650   2.828  2.8424 -0.4355  2.1851
 4126TIP3   OH233792   1.831   3.896  13.905  0.4843 -0.4230  0.1156
 4126TIP3    H133793   1.768   3.962  13.877 -0.4125 -1.4099 -0.2771
 4126TIP3    H233794   1.874   3.868  13.824  0.7141 -0.4720  0.2528
 4127TIP3   OH233795   6.408   5.512   4.289  0.9949 -0.0848 -0.8355
 4127TIP3    H133796   6.319   5.492   4.317  0.5534  1.0797 -1.3310
 4127TIP3    H233797   6.418   5.469   4.204  0.0528  1.6676 -1.8977
 4128TIP3   OH233798   3.922   1.489  17.002 -0.2708 -0.1914  0.6578
 4128TIP3    H133799   3.957   1.548  16.935 -2.0577  0.4796  0.2780
 4128TIP3    H233800   3.839   1.528  17.028 -0.3227 -1.2402  2.2038
 4129TIP3   OH233801   0.641   4.429   3.524  0.4670 -1.0207  0.5581
 4129TIP3    H133802   0.554   4.441   3.560  0.7347  0.1198  0.8643
 4129TIP3    H233803   0.629   4.365   3.453 -0.9479  0.4546 -0.6043
 4130TIP3   OH233804   3.371   2.076   1.780  0.3592  0.7275 -0.6116
 4130TIP3    H133805   3.382   2.108   1.870  0.0352  0.1038 -0.3460
 4130TIP3    H233806   3.281   2.100   1.757 -1.1094 -2.7663  0.7761
 4131TIP3   OH233807   5.908   1.607   0.042 -1.3109 -0.4163 -0.1388
 4131TIP3    H133808   5.853   1.644  -0.028 -1.0335  2.2534  0.9485
 4131TIP3    H233809   5.994   1.597   0.002 -1.4050  0.1194 -0.4870
 4132TIP3   OH233810   5.660   3.585  12.403 -0.6180 -0.5871 -0.0547
 4132TIP3    H133811   5.710   3.594  12.321 -0.7583  0.0594 -0.0745
 4132TIP3    H233812   5.578   3.631  12.386  0.0498  1.0999  1.0257
 4133TIP3   OH233813   2.340   1.995   1.368  0.2590 -0.1311 -0.8159
 4133TIP3    H133814   2.336   1.995   1.272 -1.3912 -0.0868 -0.7746
 4133TIP3    H233815   2.309   2.081   1.393 -0.7294 -0.6427 -0.2177
 4134TIP3   OH233816   1.176   0.320   3.388 -0.6072 -0.5468 -0.4856
 4134TIP3    H133817   1.210   0.234   3.362 -0.8128 -0.0892 -2.4130
 4134TIP3    H233818   1.166   0.368   3.306  2.1252  2.3457  0.6225
 4135TIP3   OH233819   4.291   6.318   1.593  0.2222 -0.2086  0.1469
 4135TIP3    H133820   4.366   6.302   1.650  0.5084 -1.1028 -0.4549
 4135TIP3    H233821   4.242   6.235   1.594 -2.0724  1.0242  2.3626
 4136TIP3   OH233822   1.040   2.327   3.751  0.1593 -0.5817  0.4128
 4136TIP3    H133823   1.037   2.235   3.778 -1.7885 -1.2176 -1.6041
 4136TIP3    H233824   1.074   2.325   3.661  0.0705  0.6574  0.3342
 4137TIP3   OH233825   3.524   1.788   3.313 -0.0554 -0.1669 -0.1004
 4137TIP3    H133826   3.595   1.765   3.252 -0.2214  3.0035 -1.7083
 4137TIP3    H233827   3.445   1.782   3.260 -1.0273 -2.7534  1.4349
 4138TIP3   OH233828   2.722   4.028   0.544 -0.2725 -0.4103  0.0636
 4138TIP3    H133829   2.810   4.051   0.575  0.4282 -0.8451 -1.5115
 4138TIP3    H233830   2.718   4.065   0.456 -2.2365  0.8994  0.6450
 4139TIP3   OH233831   0.663   3.876  12.834  0.1016 -0.4665 -0.3317
 4139TIP3    H133832   0.751   3.887  12.870  0.2724 -0.4217 -0.7460
 4139TIP3    H233833   0.649   3.782  12.833  0.7399 -0.5764 -1.6159
 4140TIP3   OH233834   1.857   0.631   2.346 -0.3804 -0.3012  0.2194
 4140TIP3    H133835   1.803   0.623   2.267 -2.1596 -0.3564  1.3629
 4140TIP3    H233836   1.804   0.590   2.414 -0.0031  1.8714  1.9124
 4141TIP3   OH233837   1.845   0.146   1.825 -0.4516  0.3546 -0.3055
 4141TIP3    H133838   1.864   0.053   1.820  0.6671  0.5133  0.5532
 4141TIP3    H233839   1.805   0.168   1.740 -1.9716 -1.1434 -0.0263
 4142TIP3   OH233840   5.334   0.909  13.062 -0.0765 -0.3027  0.2096
 4142TIP3    H133841   5.272   0.980  13.048  0.8161  0.5012  0.2879
 4142TIP3    H233842   5.415   0.952  13.090  0.7328 -1.2871 -0.5580
 4143TIP3   OH233843   2.652   0.024   1.920 -0.1680 -0.4404 -0.2188
 4143TIP3    H133844   2.590   0.033   1.992 -0.5195 -1.4264 -0.3744
 4143TIP3    H233845   2.736   0.009   1.963 -0.2181 -0.1108 -0.0068
 4144TIP3   OH233846   6.725   1.890   5.544  0.7015  0.3697 -0.4611
 4144TIP3    H133847   6.773   1.894   5.627  0.0182  0.8529 -0.0813
 4144TIP3    H233848   6.634   1.902   5.568  0.5453  1.0789 -1.3449
 4145TIP3   OH233849   1.613   1.370   5.497 -0.1979  0.1758  0.2912
 4145TIP3    H133850   1.601   1.356   5.403  0.0046  0.1858  0.2638
 4145TIP3    H233851   1.598   1.464   5.509 -0.0303  0.2101  0.2379
 4146TIP3   OH233852   0.588   5.825   4.397 -0.3696 -0.0161  0.7273
 4146TIP3    H133853   0.564   5.779   4.316  0.3396 -0.6163  0.8431
 4146TIP3    H233854   0.569   5.763   4.467 -3.5777  1.4617  1.3219
 4147TIP3   OH233855   5.650   3.306   6.176  0.4094 -0.5731 -0.3552
 4147TIP3    H133856   5.647   3.212   6.190  0.2903 -0.8617 -2.1642
 4147TIP3    H233857   5.659   3.343   6.264 -1.3219 -2.1742  0.5600
 4148TIP3   OH233858   1.912   4.152   1.386 -0.6631 -0.3485  0.2932
 4148TIP3    H133859   1.843   4.099   1.428 -2.1018  0.4202 -0.9832
 4148TIP3    H233860   1.892   4.242   1.412 -0.3015 -0.0856 -0.3224
 4149TIP3   OH233861   3.468   2.310   1.148 -0.0357  0.0633 -0.0632
 4149TIP3    H133862   3.473   2.315   1.052 -2.4165 -0.2796 -0.2728
 4149TIP3    H233863   3.537   2.249   1.173  0.1530 -0.4073 -1.6307
 4150TIP3   OH233864   2.573   0.532   0.485  0.5141 -0.2750 -0.0953
 4150TIP3    H133865   2.649   0.567   0.437  1.5011 -1.9234  0.1797
 4150TIP3    H233866   2.603   0.527   0.576  0.0243 -0.8161  0.0384
 4151TIP3   OH233867   2.805   4.797  16.097 -0.6187  0.1359 -0.0235
 4151TIP3    H133868   2.813   4.884  16.136  1.3483  0.4549 -1.0262
 4151TIP3    H233869   2.892   4.758  16.108 -0.6413 -0.5990 -2.0854
 4152TIP3   OH233870   6.738   3.179   0.169 -0.3186  0.0649  0.2019
 4152TIP3    H133871   6.732   3.088   0.198  1.5817 -0.4882 -0.9092
 4152TIP3    H233872   6.812   3.215   0.218 -0.4200  0.6916 -0.0982
 4153TIP3   OH233873   0.330   2.815   1.427 -0.1712  0.7626  0.7977
 4153TIP3    H133874   0.274   2.877   1.381  0.0196  0.9750  0.8488
 4153TIP3    H233875   0.419   2.838   1.398  0.0627  1.6577  2.1743
 4154TIP3   OH233876   1.523   0.527  16.647 -0.1741 -0.3914  0.0001
 4154TIP3    H133877   1.602   0.550  16.695  0.7645 -0.0814 -1.6129
 4154TIP3    H233878   1.477   0.610  16.635 -0.3182 -0.4424  0.1834
 4155TIP3   OH233879   4.376   1.243   4.087  0.4520  0.4947  0.4542
 4155TIP3    H133880   4.366   1.257   3.993 -1.3512 -0.8519  0.3871
 4155TIP3    H233881   4.299   1.191   4.112  1.9050 -0.9315  2.2834
 4156TIP3   OH233882   5.978   1.477  15.432 -0.5125  0.0957  0.2653
 4156TIP3    H133883   5.917   1.408  15.404 -0.9320  0.4467  0.3107
 4156TIP3    H233884   5.966   1.483  15.527 -2.4221  2.0286 -0.0080
 4157TIP3   OH233885   3.967   1.538   3.045  0.1154 -0.1912 -0.5506
 4157TIP3    H133886   4.048   1.556   2.996 -0.6504  0.5567 -1.6012
 4157TIP3    H233887   3.980   1.450   3.081  0.9423 -0.5463 -1.6518
 4158TIP3   OH233888   2.310   1.218   0.681 -0.2593  0.4762  0.0038
 4158TIP3    H133889   2.273   1.199   0.768  0.1631  0.0850  0.1027
 4158TIP3    H233890   2.320   1.313   0.680 -0.5605  0.5130  0.2651
 4159TIP3   OH233891   0.019   3.988  15.465 -0.3257  0.2181  0.0932
 4159TIP3    H133892   0.065   4.026  15.541 -0.0143  0.0105  0.0121
 4159TIP3    H233893  -0.056   4.046  15.451  0.6080  1.3260 -0.5589
 4160TIP3   OH233894   2.895   4.664   0.562  0.1101 -0.2415 -0.1340
 4160TIP3    H133895   2.850   4.741   0.598 -1.5023 -1.2122  0.0179
 4160TIP3    H233896   2.848   4.589   0.599  0.0074 -1.2853 -2.2513
 4161TIP3   OH233897   4.276   3.011  11.536 -0.7027 -0.6989 -0.1065
 4161TIP3    H133898   4.283   2.982  11.445  0.0858 -0.3147 -0.1831
 4161TIP3    H233899   4.367   3.025  11.563 -0.9927  0.5690  0.2831
 4162TIP3   OH233900   0.994   3.139  12.769  0.2105 -0.0334 -0.1223
 4162TIP3    H133901   0.922   3.161  12.709  0.5826  0.0443 -0.5464
 4162TIP3    H233902   1.062   3.102  12.712  0.3677 -0.4379  0.3223
 4163TIP3   OH233903   0.306   0.673   6.819 -0.6985  0.0209  0.1765
 4163TIP3    H133904   0.358   0.599   6.850  0.0277  1.0077  1.4113
 4163TIP3    H233905   0.227   0.671   6.874 -0.8849 -0.0891 -0.0925
 4164TIP3   OH233906   6.233   0.164  13.587  0.0723  0.3561  0.1058
 4164TIP3    H133907   6.154   0.167  13.640  0.4337  0.0095  0.6726
 4164TIP3    H233908   6.240   0.073  13.559  0.9776  0.0834  1.1575
 4165TIP3   OH233909   0.993   1.217  13.758  0.4036  0.1182  0.1357
 4165TIP3    H133910   0.930   1.283  13.787 -1.5933 -1.2393 -0.8441
 4165TIP3    H233911   1.014   1.167  13.836 -1.2291 -0.5516  0.1891
 4166TIP3   OH233912   2.506   5.775  14.943  0.1193 -0.2698 -0.6788
 4166TIP3    H133913   2.465   5.860  14.928  0.0828  0.3047  2.1837
 4166TIP3    H233914   2.596   5.796  14.968  0.5843 -1.2059 -1.4678
 4167TIP3   OH233915   5.747   6.547   1.006 -0.1168  0.5153 -0.0240
 4167TIP3    H133916   5.775   6.514   0.921  0.9819  1.1110  0.0757
 4167TIP3    H233917   5.663   6.505   1.023 -0.2667  0.2595 -1.3216
 4168TIP3   OH233918   1.718   1.232  11.377  0.4408 -0.1336 -0.0011
 4168TIP3    H133919   1.639   1.246  11.324 -0.4775 -1.7332  0.8621
 4168TIP3    H233920   1.749   1.320  11.397 -1.0647  0.5483 -0.4746
 4169TIP3   OH233921   3.617   0.445  12.956 -0.3313  0.1033  0.0595
 4169TIP3    H133922   3.647   0.374  12.900 -1.2541  0.6120 -1.1239
 4169TIP3    H233923   3.626   0.411  13.045  0.1700 -1.1174 -0.4368
 4170TIP3   OH233924   5.033   4.542   3.321  0.1195  0.4925  0.1294
 4170TIP3    H133925   4.959   4.517   3.266 -0.3274  2.0316 -0.0270
 4170TIP3    H233926   5.098   4.473   3.308  0.2966  1.0908 -2.8369
 4171TIP3   OH233927   2.990   6.694   2.982  0.3642 -0.3356  0.0524
 4171TIP3    H133928   2.946   6.732   3.058 -1.0210  0.0086 -0.8823
 4171TIP3    H233929   3.052   6.762   2.955  1.0239 -0.5467  0.9814
 4172TIP3   OH233930   0.493   5.272  14.895  0.3301  0.2457 -0.3284
 4172TIP3    H133931   0.428   5.305  14.832  0.2093 -0.9821 -0.8693
 4172TIP3    H233932   0.441   5.238  14.967  0.4670  1.5629  0.4299
 4173TIP3   OH233933   4.989   4.507  10.734 -0.1802  0.1094  0.0384
 4173TIP3    H133934   4.947   4.592  10.720  0.3682  0.4610  0.4281
 4173TIP3    H233935   5.045   4.494  10.657 -0.6809 -0.1597 -0.2809
 4174TIP3   OH233936   6.682   2.986   3.457 -0.2914  0.2069 -0.0243
 4174TIP3    H133937   6.614   2.951   3.515 -0.3746 -0.5680 -0.5787
 4174TIP3    H233938   6.764   2.948   3.490  0.0279  1.8516  1.2089
 4175TIP3   OH233939   4.411   1.411  14.651 -0.0945 -0.1713  0.4332
 4175TIP3    H133940   4.379   1.396  14.562  0.1989 -0.2585  0.3400
 4175TIP3    H233941   4.335   1.396  14.706 -0.4365  0.5026  0.1555
 4176TIP3   OH233942   1.853   0.068  14.420 -0.1957 -0.9192 -0.0396
 4176TIP3    H133943   1.890  -0.015  14.451 -0.2678 -0.6224  0.8880
 4176TIP3    H233944   1.762   0.048  14.399 -0.3805 -0.9568  0.7548
 4177TIP3   OH233945   6.371   2.047   5.527 -0.1124  0.1978  0.4315
 4177TIP3    H133946   6.378   2.068   5.620 -1.0183 -0.6877  0.7141
 4177TIP3    H233947   6.321   2.120   5.490 -1.3126 -0.3050  0.9925
 4178TIP3   OH233948   4.454   4.106  14.504 -0.6567  0.1350  1.0744
 4178TIP3    H133949   4.500   4.126  14.423 -1.0334 -4.3835 -0.5479
 4178TIP3    H233950   4.366   4.141  14.492  0.2400  2.5917  1.1727
 4179TIP3   OH233951   3.616   5.837  12.939  0.3185 -0.0009 -0.1528
 4179TIP3    H133952   3.661   5.907  12.891 -0.0213  0.1756 -0.2144
 4179TIP3    H233953   3.625   5.760  12.882  1.9993 -0.3970  0.5866
 4180TIP3   OH233954   3.447   6.552   4.270 -0.6465 -0.2833  0.0756
 4180TIP3    H133955   3.397   6.535   4.191 -1.3040 -2.2358  0.8489
 4180TIP3    H233956   3.504   6.476   4.280  0.0118  0.3012  1.0602
 4181TIP3   OH233957   0.402   2.062   5.142  0.4945  0.3863  0.2847
 4181TIP3    H133958   0.401   1.986   5.200 -0.4419 -0.9169 -1.3461
 4181TIP3    H233959   0.349   2.128   5.188  0.7951 -0.1569  1.4411
 4182TIP3   OH233960   6.048   5.536   1.388  0.1878 -0.5205  0.2287
 4182TIP3    H133961   5.986   5.607   1.401 -0.3203 -0.7254 -0.9429
 4182TIP3    H233962   6.133   5.580   1.379  0.0710 -0.1669  0.8201
 4183TIP3   OH233963   4.959   5.026   4.188 -0.3830 -0.0263  0.3964
 4183TIP3    H133964   4.878   4.987   4.221 -0.4415 -1.2432 -1.0843
 4183TIP3    H233965   5.016   4.951   4.168 -0.3883  0.5710 -2.2845
 4184TIP3   OH233966   4.431   1.397  15.013  0.6046 -0.6223  1.2302
 4184TIP3    H133967   4.344   1.427  14.986  0.9154 -1.0006 -0.2711
 4184TIP3    H233968   4.454   1.455  15.086 -0.5703 -0.0130  1.1470
 4185TIP3   OH233969   6.782   3.138  14.076  0.8076 -0.2000  0.2747
 4185TIP3    H133970   6.799   3.118  14.168 -0.8018 -0.8343  0.4699
 4185TIP3    H233971   6.868   3.134  14.034  1.5201 -0.2484  1.6766
 4186TIP3   OH233972   4.638   2.386   4.410  0.3157 -0.3444 -0.2274
 4186TIP3    H133973   4.615   2.389   4.503 -0.5170  0.2139 -0.4459
 4186TIP3    H233974   4.663   2.295   4.394 -0.0803 -0.5714  0.4121
 4187TIP3   OH233975   3.854   3.658  15.545  0.1390  0.1865 -0.3409
 4187TIP3    H133976   3.805   3.739  15.533  0.0617  0.3512  0.9547
 4187TIP3    H233977   3.936   3.672  15.497 -0.2966  0.6229 -0.9723
 4188TIP3   OH233978   2.325   0.703   0.995  0.5609 -0.3517  0.4427
 4188TIP3    H133979   2.390   0.771   1.014  0.4608  0.3590 -1.5175
 4188TIP3    H233980   2.241   0.745   1.011  0.5281 -0.7679  1.4367
 4189TIP3   OH233981   4.095   3.224  15.567 -0.2449 -0.4336 -0.0768
 4189TIP3    H133982   4.011   3.187  15.542 -0.2963  0.4328 -1.2699
 4189TIP3    H233983   4.160   3.163  15.532 -0.3573 -0.5275 -0.1232
 4190TIP3   OH233984   1.603   5.386   5.525  0.0027  0.5078 -0.6377
 4190TIP3    H133985   1.550   5.413   5.601  0.4709  0.4737 -0.2904
 4190TIP3    H233986   1.541   5.342   5.467  0.1525 -2.2781  1.1274
 4191TIP3   OH233987   6.184   4.235  11.011  0.3907  0.2932  0.6468
 4191TIP3    H133988   6.231   4.305  10.965 -0.7499  0.8798  0.3567
 4191TIP3    H233989   6.106   4.219  10.958 -0.0155 -0.2966  1.4062
 4192TIP3   OH233990   3.748   6.301  14.741  0.0294  0.4742  0.2850
 4192TIP3    H133991   3.795   6.223  14.713 -1.1085 -0.5963  1.2658
 4192TIP3    H233992   3.806   6.342  14.805  0.0121 -0.3690  0.8546
 4193TIP3   OH233993   3.455   0.502   5.083 -0.0482  0.6631 -0.3384
 4193TIP3    H133994   3.427   0.534   5.168  3.1753 -0.1349  1.1749
 4193TIP3    H233995   3.547   0.529   5.077  0.3873 -1.0499 -2.6855
 4194TIP3   OH233996   3.208   2.931  14.277  1.1031  0.3183 -0.8121
 4194TIP3    H133997   3.289   2.968  14.313  0.3255  0.2773  1.0765
 4194TIP3    H233998   3.162   3.007  14.240  1.0361  0.7009  0.0394
 4195TIP3   OH233999   5.694   4.445   4.436 -0.0047 -0.3088  0.8170
 4195TIP3    H134000   5.669   4.504   4.508  1.9090  0.3005  1.0349
 4195TIP3    H234001   5.776   4.406   4.465  0.1417 -1.0162 -0.5114
 4196TIP3   OH234002   6.624   4.179   4.608  0.0805 -0.7509  0.2382
 4196TIP3    H134003   6.624   4.171   4.703 -0.2663  0.4463  0.3516
 4196TIP3    H234004   6.598   4.092   4.577 -0.6280 -0.9173  1.2520
 4197TIP3   OH234005   4.817   0.167  15.296 -0.1317 -0.2552  0.2856
 4197TIP3    H134006   4.860   0.103  15.240  1.7030 -0.0718  1.3958
 4197TIP3    H234007   4.777   0.114  15.365  0.2395 -0.3071  0.4668
 4198TIP3   OH234008   3.162   4.655   0.924 -0.3457 -0.3258  0.5430
 4198TIP3    H134009   3.086   4.596   0.924 -0.5561 -0.0730 -0.6526
 4198TIP3    H234010   3.134   4.728   0.978 -0.2845 -1.0511  1.5899
 4199TIP3   OH234011   1.169   6.478   2.406  0.6625  0.7136 -0.4445
 4199TIP3    H134012   1.240   6.436   2.455  0.8971  2.1332  0.4918
 4199TIP3    H234013   1.210   6.553   2.363 -0.4395  2.2369  1.0355
 4200TIP3   OH234014   0.319   6.626   4.335  0.1927  0.0654 -0.0613
 4200TIP3    H134015   0.326   6.531   4.345 -2.1936 -0.2957 -1.1455
 4200TIP3    H234016   0.385   6.648   4.269  0.8645 -0.8007  0.2945
 4201TIP3   OH234017   5.153   4.272  14.915 -0.8411  0.3032 -0.7975
 4201TIP3    H134018   5.187   4.340  14.973  0.7468  0.9021 -2.3426
 4201TIP3    H234019   5.095   4.219  14.971  1.1951  0.3589  1.5308
 4202TIP3   OH234020   6.056   0.069  14.882 -0.2316 -0.8513 -0.0035
 4202TIP3    H134021   6.122   0.104  14.942 -0.6020 -0.6068  0.2610
 4202TIP3    H234022   6.044  -0.022  14.909 -1.0116 -0.5096  0.8373
 4203TIP3   OH234023   5.892   5.420  16.053  0.2072 -1.0496 -0.1641
 4203TIP3    H134024   5.863   5.498  16.100  1.9436 -0.4649  0.0124
 4203TIP3    H234025   5.828   5.353  16.076 -2.2586  0.6612 -1.5802
 4204TIP3   OH234026   6.365   3.314   2.126  0.3361  0.4481 -0.3799
 4204TIP3    H134027   6.377   3.384   2.190  1.3988 -0.7598  0.8031
 4204TIP3    H234028   6.282   3.334   2.083 -0.6380  1.0620  1.6855
 4205TIP3   OH234029   6.284   4.001  12.437  0.3151 -0.7875 -0.0124
 4205TIP3    H134030   6.273   3.921  12.385 -0.9124  0.2626 -1.4660
 4205TIP3    H234031   6.301   3.970  12.526  1.7936 -2.6620 -0.8666
 4206TIP3   OH234032   5.213   5.913   3.850 -0.5427  0.2903 -0.0141
 4206TIP3    H134033   5.245   5.823   3.853  0.2910  0.6072  0.9043
 4206TIP3    H234034   5.182   5.932   3.938 -0.5480  0.9613 -0.1477
 4207TIP3   OH234035   5.059   5.255   4.993  0.2000 -0.2439  0.2638
 4207TIP3    H134036   4.982   5.284   5.042  0.8582  0.5786  0.8535
 4207TIP3    H234037   5.106   5.198   5.053  0.2717 -0.3862  0.0713
 4208TIP3   OH234038   1.820   4.474  11.570 -0.2737 -0.4842 -0.0077
 4208TIP3    H134039   1.781   4.533  11.634 -1.2903 -1.4638  0.2861
 4208TIP3    H234040   1.749   4.451  11.511  0.3855 -0.5217 -0.8141
 4209TIP3   OH234041   5.742   4.519  12.363 -0.0940  0.5585 -0.0768
 4209TIP3    H134042   5.681   4.552  12.428 -0.1617 -0.8570  0.6222
 4209TIP3    H234043   5.723   4.425  12.357  1.9468  0.0726  0.1023
 4210TIP3   OH234044   4.493   4.785   2.083  0.5255 -0.0430  0.0635
 4210TIP3    H134045   4.409   4.756   2.117 -0.1480  1.3368 -0.3354
 4210TIP3    H234046   4.555   4.717   2.110 -0.6165 -0.8264  0.8017
 4211TIP3   OH234047   4.519   6.178  15.052  0.1315  0.0293  0.3078
 4211TIP3    H134048   4.500   6.269  15.026  0.6722 -0.2627 -1.2291
 4211TIP3    H234049   4.607   6.182  15.090 -0.6526  0.4575  2.1702
 4212TIP3   OH234050   3.826   5.306  11.074  0.3020  0.2826  0.4912
 4212TIP3    H134051   3.777   5.374  11.120  0.4079  1.7924 -1.4838
 4212TIP3    H234052   3.759   5.249  11.037 -0.0645  2.0683 -1.7952
 4213TIP3   OH234053   1.102   6.761   3.622  0.6082  0.2114  1.0173
 4213TIP3    H134054   1.073   6.844   3.658  1.9471 -0.0048  2.7165
 4213TIP3    H234055   1.155   6.784   3.546 -0.3792  0.8037  0.4949
 4214TIP3   OH234056   2.503   3.676  16.529 -0.3457 -0.1497 -0.2160
 4214TIP3    H134057   2.459   3.756  16.499  0.1138  0.4808  0.7450
 4214TIP3    H234058   2.445   3.606  16.502 -0.7884  0.5133 -1.0347
 4215TIP3   OH234059   3.378   4.304   0.411 -0.2923  0.1586 -0.0147
 4215TIP3    H134060   3.426   4.357   0.348 -0.3233  0.0484 -0.1310
 4215TIP3    H234061   3.430   4.224   0.420 -1.0983 -0.5100 -1.0951
 4216TIP3   OH234062   3.598   4.495   5.095  0.0667 -0.5572  0.0968
 4216TIP3    H134063   3.660   4.567   5.105  1.2385 -1.0358 -2.7541
 4216TIP3    H234064   3.628   4.428   5.157  0.5860  0.3470  0.8346
 4217TIP3   OH234065   0.406   0.991   1.262  0.0499 -0.0354  0.4033
 4217TIP3    H134066   0.315   1.004   1.290  1.0756  1.0783  3.7364
 4217TIP3    H234067   0.439   1.080   1.245  0.4411 -0.4604 -1.2451
 4218TIP3   OH234068   5.857   5.773   1.586  0.2239 -0.1664 -0.8227
 4218TIP3    H134069   5.802   5.699   1.614  0.7102  0.2568  1.5177
 4218TIP3    H234070   5.930   5.773   1.648 -0.0299  2.5489 -0.3791
 4219TIP3   OH234071   2.320   6.761   4.020 -0.0782  0.5475  0.3895
 4219TIP3    H134072   2.343   6.848   3.988  0.8873  0.5904  1.1586
 4219TIP3    H234073   2.403   6.723   4.048 -0.4252 -0.7775 -0.2834
 4220TIP3   OH234074   0.165   4.352  15.976 -0.0247  0.2772 -0.2975
 4220TIP3    H134075   0.205   4.271  16.007 -0.6791 -0.6343 -1.7430
 4220TIP3    H234076   0.223   4.421  16.009  1.6808 -0.8836 -0.7145
 4221TIP3   OH234077   3.629   3.401   0.350  0.8775 -0.4704  0.6323
 4221TIP3    H134078   3.704   3.376   0.405 -0.3713  0.3467  2.8310
 4221TIP3    H234079   3.640   3.496   0.337  0.7117 -0.5119  0.1682
 4222TIP3   OH234080   4.019   5.148   3.447 -0.1013  0.9813  0.6211
 4222TIP3    H134081   3.966   5.192   3.381 -1.6504 -2.0603 -0.2987
 4222TIP3    H234082   3.956   5.118   3.513  0.6791 -0.9861  0.5303
 4223TIP3   OH234083   2.220   3.282  14.641 -0.1655  0.1211  0.0385
 4223TIP3    H134084   2.205   3.234  14.560  2.5487 -0.8212 -0.0198
 4223TIP3    H234085   2.234   3.372  14.614 -3.1051  0.6576 -0.0637
 4224TIP3   OH234086   1.147   4.033  15.112 -0.1238 -0.1473 -0.0802
 4224TIP3    H134087   1.071   4.092  15.118 -0.7166 -0.9352  0.4129
 4224TIP3    H234088   1.211   4.082  15.061 -0.9842  0.5273 -0.5531
 4225TIP3   OH234089   0.457   0.638   5.403  0.2848 -0.1391  0.3639
 4225TIP3    H134090   0.428   0.715   5.452 -0.1670 -0.9585  1.4149
 4225TIP3    H234091   0.505   0.585   5.468  2.8710  0.4331 -0.9222
 4226TIP3   OH234092   5.626   3.958  12.515 -0.3500 -0.2529 -0.1225
 4226TIP3    H134093   5.635   4.053  12.518 -0.2965 -0.2705  1.7578
 4226TIP3    H234094   5.553   3.942  12.456 -0.6815  0.9852 -0.0648
 4227TIP3   OH234095   2.476   5.140  12.131  0.4124 -0.5276 -0.6348
 4227TIP3    H134096   2.471   5.235  12.134  1.9924 -0.3958 -1.5022
 4227TIP3    H234097   2.494   5.115  12.222 -1.2280 -0.1181 -0.1650
 4228TIP3   OH234098   2.566   4.344   3.818  0.1078  0.0077  0.2307
 4228TIP3    H134099   2.568   4.439   3.834 -0.6637  0.2648 -1.0369
 4228TIP3    H234100   2.530   4.336   3.729 -1.3379 -1.5273  0.8976
 4229TIP3   OH234101   1.205   5.831   3.091 -0.3587 -0.9477  0.5906
 4229TIP3    H134102   1.120   5.876   3.091  0.2986  0.3508 -0.4465
 4229TIP3    H234103   1.200   5.771   3.017 -1.0302 -2.2300  1.6414
 4230TIP3   OH234104   3.631   6.263   1.288 -0.0257 -0.0655 -0.4257
 4230TIP3    H134105   3.549   6.281   1.334 -0.1550 -2.0211  0.1695
 4230TIP3    H234106   3.618   6.301   1.201 -1.4683 -0.1389 -0.2643
 4231TIP3   OH234107   0.973   4.469   0.442  0.1848 -0.5749  0.4418
 4231TIP3    H134108   0.878   4.475   0.434 -0.0657  0.7594  3.2853
 4231TIP3    H234109   1.004   4.473   0.352 -2.3992  0.0521 -0.5248
 4232TIP3   OH234110   0.881   6.631   5.383 -0.1435 -0.0815 -0.2187
 4232TIP3    H134111   0.898   6.643   5.477 -1.1698 -0.0568 -0.0254
 4232TIP3    H234112   0.926   6.550   5.361  0.2636  0.0084  0.2545
 4233TIP3   OH234113   2.633   1.387   0.257 -0.8622 -0.0491  0.0584
 4233TIP3    H134114   2.696   1.458   0.268 -1.8011  0.5825  1.6844
 4233TIP3    H234115   2.651   1.353   0.169  0.6691  1.1338 -0.1362
 4234TIP3   OH234116   2.078   5.183  13.305  0.1670 -0.4117  0.6393
 4234TIP3    H134117   2.042   5.172  13.217 -0.4547 -1.1778  0.9837
 4234TIP3    H234118   2.171   5.161  13.295  0.0421 -0.7738  0.2342
 4235TIP3   OH234119   1.882   1.090   2.288  0.4153  0.8823  0.0483
 4235TIP3    H134120   1.820   1.110   2.218  0.3487 -0.8353 -0.4211
 4235TIP3    H234121   1.930   1.013   2.257  0.6849  0.3434  1.7029
 4236TIP3   OH234122   5.898   2.428  12.937  0.5336 -0.2863 -0.1790
 4236TIP3    H134123   5.865   2.502  12.988  0.9664  0.5456 -1.0860
 4236TIP3    H234124   5.983   2.457  12.905  1.5325 -1.8463  0.9017
 4237TIP3   OH234125   3.995   3.905  15.732 -0.2138  0.2065  0.1281
 4237TIP3    H134126   4.013   3.975  15.795 -0.2453 -1.1390  1.7102
 4237TIP3    H234127   4.079   3.860  15.722 -0.7759 -1.1647  1.2636
 4238TIP3   OH234128   5.011   5.986  12.462  0.7132  0.0183 -0.3764
 4238TIP3    H134129   5.091   6.038  12.473 -0.2473  1.5041 -0.0770
 4238TIP3    H234130   5.007   5.932  12.541  2.8507 -2.2127 -1.6668
 4239TIP3   OH234131   4.681   5.459  13.291  0.1506 -0.1101  0.6098
 4239TIP3    H134132   4.634   5.392  13.241  0.1598  0.6250 -0.4094
 4239TIP3    H234133   4.625   5.475  13.368 -0.5207 -0.3195  0.1725
 4240TIP3   OH234134   6.299   0.921   0.743 -0.0511 -0.0465  0.5757
 4240TIP3    H134135   6.236   0.990   0.721  0.8651  0.5953 -0.1032
 4240TIP3    H234136   6.384   0.960   0.724  0.4898 -1.3513  0.2318
 4241TIP3   OH234137   3.379   0.986  13.654 -0.5568 -0.9336  0.1986
 4241TIP3    H134138   3.426   1.014  13.576  0.1118 -0.8607  0.6155
 4241TIP3    H234139   3.325   1.061  13.678 -1.7231 -1.4008 -0.9020
 4242TIP3   OH234140   3.780   2.317  11.270  0.4653 -0.2106 -0.3269
 4242TIP3    H134141   3.771   2.253  11.199  1.7754 -1.0316  0.2056
 4242TIP3    H234142   3.843   2.381  11.237 -0.6404  0.6870 -0.7532
 4243TIP3   OH234143   5.692   5.998   3.108 -0.4533 -0.3182 -0.5283
 4243TIP3    H134144   5.628   6.059   3.144  1.4545  1.1371  0.5754
 4243TIP3    H234145   5.674   5.996   3.014 -0.8275  1.6496 -0.5236
 4244TIP3   OH234146   0.915   2.733   6.431  0.3475 -0.3269 -0.4890
 4244TIP3    H134147   0.968   2.669   6.477 -1.1564 -0.3784  1.2948
 4244TIP3    H234148   0.979   2.795   6.395  1.6854 -1.3768 -0.0205
 4245TIP3   OH234149   5.105   0.955  14.932  0.3040 -0.0796  0.1873
 4245TIP3    H134150   5.067   0.891  14.992 -0.3527 -0.0843 -0.2195
 4245TIP3    H234151   5.065   1.038  14.956  1.6551  0.3281  1.1513
 4246TIP3   OH234152   6.424   0.560   3.157  0.3275  0.1966  0.0245
 4246TIP3    H134153   6.461   0.471   3.164 -0.2204 -0.0951 -0.6728
 4246TIP3    H234154   6.467   0.609   3.227  0.7405 -0.5850  0.3346
 4247TIP3   OH234155   0.846   6.394  11.933  0.7905 -0.2175 -0.6165
 4247TIP3    H134156   0.876   6.413  11.844  2.2489  0.0704 -0.0982
 4247TIP3    H234157   0.861   6.475  11.981 -2.9021  0.6892 -0.7400
 4248TIP3   OH234158   3.586   1.682   1.326  0.2588  0.2278 -0.0897
 4248TIP3    H134159   3.627   1.689   1.239  0.6012  1.8204  0.1669
 4248TIP3    H234160   3.500   1.645   1.308  0.9406 -1.0494 -0.9027
 4249TIP3   OH234161   6.092   4.859  12.743 -0.0439 -0.8154 -0.4172
 4249TIP3    H134162   6.043   4.801  12.801  0.0648 -0.5493 -0.0555
 4249TIP3    H234163   6.027   4.891  12.680 -0.3059 -0.5610 -0.0171
 4250TIP3   OH234164   3.122   4.136  12.059  0.4919 -0.3512 -0.4021
 4250TIP3    H134165   3.129   4.202  12.129  1.1248 -0.0050 -0.7806
 4250TIP3    H234166   3.052   4.168  12.003  0.5410 -0.1958 -0.3766
 4251TIP3   OH234167   1.837   4.866   5.753 -0.0117 -0.2101  0.4317
 4251TIP3    H134168   1.909   4.911   5.797 -0.3369  0.6155  0.1319
 4251TIP3    H234169   1.793   4.935   5.703 -0.2421 -0.9430 -0.3957
 4252TIP3   OH234170   1.526   2.651  16.208 -0.4009  0.0942 -0.1898
 4252TIP3    H134171   1.570   2.695  16.281  0.9038  0.5708 -1.2277
 4252TIP3    H234172   1.569   2.686  16.130 -0.6582 -1.5910 -1.1273
 4253TIP3   OH234173   3.962   5.537   4.067 -0.4913  0.4310  0.1779
 4253TIP3    H134174   4.026   5.477   4.029 -1.9381 -0.3179 -1.1842
 4253TIP3    H234175   3.975   5.529   4.162 -0.0345 -1.3445 -0.0049
 4254TIP3   OH234176   1.105   0.999   0.280  0.1254  0.2675 -0.3648
 4254TIP3    H134177   1.181   0.942   0.268 -0.7015 -0.8495 -0.4475
 4254TIP3    H234178   1.030   0.940   0.276 -0.8120  1.4604 -1.2011
 4255TIP3   OH234179   3.625   5.473  10.850 -0.5181  0.0374 -0.3150
 4255TIP3    H134180   3.555   5.425  10.806 -0.7654  0.9744 -0.9662
 4255TIP3    H234181   3.580   5.544  10.897 -0.3312 -1.2266  1.9311
 4256TIP3   OH234182   2.178   0.007  14.151 -0.0543 -0.6750  0.3176
 4256TIP3    H134183   2.238   0.048  14.089 -0.4942  0.0758  0.3686
 4256TIP3    H234184   2.230  -0.062  14.193  1.1326  0.6547  1.1548
 4257TIP3   OH234185   3.613   3.289   1.361  0.5599 -0.2977  0.2672
 4257TIP3    H134186   3.630   3.203   1.323  1.0022 -0.1711  0.1755
 4257TIP3    H234187   3.593   3.271   1.453 -1.9518 -0.7486 -0.3093
 4258TIP3   OH234188   4.081   6.732   2.683  0.4077  0.8046  0.6181
 4258TIP3    H134189   4.060   6.757   2.593  2.7890 -1.7492 -0.7903
 4258TIP3    H234190   4.036   6.648   2.696  2.2904 -0.2277  0.7502
 4259TIP3   OH234191   2.404   6.354   0.562 -0.5748  0.1355 -0.3986
 4259TIP3    H134192   2.366   6.322   0.644 -1.6253  3.4004  0.5280
 4259TIP3    H234193   2.493   6.381   0.587 -0.3265 -0.3216 -0.7606
 4260TIP3   OH234194   1.707   5.276  12.500 -0.1251  0.3374 -0.2729
 4260TIP3    H134195   1.780   5.285  12.438 -0.7760  0.3619 -1.0533
 4260TIP3    H234196   1.725   5.340  12.569  1.1296 -0.3825  0.0893
 4261TIP3   OH234197   5.663   5.477  17.025  0.3611  0.7132 -1.0441
 4261TIP3    H134198   5.598   5.537  16.989 -0.7053  1.6308  2.0401
 4261TIP3    H234199   5.713   5.530  17.087  2.3606 -0.6030 -1.4521
 4262TIP3   OH234200   4.424   2.466   4.007 -0.0645  0.0406 -0.0018
 4262TIP3    H134201   4.353   2.531   4.008  0.4566  0.6169  0.4230
 4262TIP3    H234202   4.434   2.443   3.915 -1.3085 -0.6149  0.0092
 4263TIP3   OH234203   2.838   0.526   2.682 -0.2817 -0.3310  0.2512
 4263TIP3    H134204   2.917   0.517   2.629  1.0785  0.2628  2.0856
 4263TIP3    H234205   2.848   0.610   2.727 -1.8699 -0.3374  0.6911
 4264TIP3   OH234206   2.908   6.519  11.916 -0.6515  0.0764  0.0657
 4264TIP3    H134207   2.832   6.486  11.965 -0.9624 -1.4907 -1.3853
 4264TIP3    H234208   2.875   6.533  11.828  0.0464  2.2779  0.1154
 4265TIP3   OH234209   6.464   3.830  14.301 -0.0893  0.0220 -0.1661
 4265TIP3    H134210   6.510   3.911  14.275 -2.0262  1.1402 -0.2899
 4265TIP3    H234211   6.448   3.785  14.218  0.2531 -0.0905 -0.1742
 4266TIP3   OH234212   5.309   5.963   1.101  0.3562 -0.5788 -0.0076
 4266TIP3    H134213   5.338   5.907   1.029 -0.5638  0.0780 -0.9034
 4266TIP3    H234214   5.264   5.903   1.160 -0.1963 -0.8797 -0.7162
 4267TIP3   OH234215   2.333   2.637   2.528  0.1272 -0.2744 -0.0519
 4267TIP3    H134216   2.423   2.655   2.553  0.1031 -0.3797  0.1069
 4267TIP3    H234217   2.304   2.716   2.483  0.6880 -0.6778 -1.1632
 4268TIP3   OH234218   5.849   1.087   1.400 -0.3855  0.0715  0.0377
 4268TIP3    H134219   5.800   1.064   1.479 -1.0668 -0.6187 -0.5743
 4268TIP3    H234220   5.927   1.032   1.403 -0.7270 -0.4214 -0.0903
 4269TIP3   OH234221   1.610   5.844  16.813 -0.1435  0.8546 -0.0303
 4269TIP3    H134222   1.636   5.839  16.721  1.4706  1.6844  0.3498
 4269TIP3    H234223   1.692   5.844  16.862 -0.9853 -1.3466  1.5531
 4270TIP3   OH234224   2.512   4.660  12.656  0.4308 -0.0685  0.3727
 4270TIP3    H134225   2.479   4.731  12.602  0.7502  0.1716  0.4916
 4270TIP3    H234226   2.603   4.648  12.628  0.7569  0.3992  1.2030
 4271TIP3   OH234227   1.387   0.459  14.351 -0.0445  0.1822  0.0877
 4271TIP3    H134228   1.464   0.480  14.404  2.5214  1.9430 -3.9126
 4271TIP3    H234229   1.400   0.367  14.325 -0.3551 -0.1157  0.9500
 4272TIP3   OH234230   0.390   6.661   1.776  0.2265  0.0555 -0.3646
 4272TIP3    H134231   0.367   6.722   1.847  1.3955  1.0363 -0.7896
 4272TIP3    H234232   0.387   6.575   1.818  1.7195  0.6696  1.1578
 4273TIP3   OH234233   3.725   5.890   1.926 -0.0280  0.4943 -0.1743
 4273TIP3    H134234   3.676   5.936   1.994  0.6054 -0.1993  0.7817
 4273TIP3    H234235   3.816   5.895   1.956  0.4440  1.3376 -1.6607
 4274TIP3   OH234236   1.087   4.104   2.859  0.6119  1.0031  0.2458
 4274TIP3    H134237   1.181   4.116   2.845  0.7168  0.5396  0.5372
 4274TIP3    H234238   1.076   4.107   2.954  0.1799  2.1032  0.1788
 4275TIP3   OH234239   5.377   5.954  16.899 -0.1125 -0.0993  0.3698
 4275TIP3    H134240   5.385   6.026  16.836 -0.9587 -1.2868 -1.1534
 4275TIP3    H234241   5.355   5.878  16.846  0.5455 -1.4662  1.9668
 4276TIP3   OH234242   0.439   2.481   2.807 -0.0650 -0.1364  0.9076
 4276TIP3    H134243   0.348   2.459   2.824  0.9023 -3.3839  2.6734
 4276TIP3    H234244   0.480   2.481   2.893  1.6900  0.9579  0.1211
 4277TIP3   OH234245   2.837   3.871   1.104 -0.2703  0.0171 -0.3209
 4277TIP3    H134246   2.854   3.779   1.123  0.1922  0.7708  4.0675
 4277TIP3    H234247   2.745   3.884   1.126  0.1089  0.8832  0.8899
 4278TIP3   OH234248   0.614   6.791   3.392  0.1895  0.6263  0.4546
 4278TIP3    H134249   0.581   6.764   3.477 -0.4318 -2.1387 -0.5743
 4278TIP3    H234250   0.537   6.789   3.334  1.0906 -0.3410 -0.7606
 4279TIP3   OH234251   6.604   6.033  13.889 -0.0483  0.0816 -0.3459
 4279TIP3    H134252   6.641   6.096  13.827 -0.1215 -0.7266 -1.2308
 4279TIP3    H234253   6.625   6.069  13.975  1.6885  0.3012 -0.8215
 4280TIP3   OH234254   5.312   6.120  17.191 -0.4080 -0.1647  0.3102
 4280TIP3    H134255   5.285   6.032  17.216  0.9208 -0.1558  1.9245
 4280TIP3    H234256   5.399   6.110  17.154 -0.7380  0.3416 -0.6441
 4281TIP3   OH234257   6.050   4.504   1.782  0.0633 -0.2811  0.2135
 4281TIP3    H134258   6.040   4.409   1.785  0.1038 -0.3057 -0.2827
 4281TIP3    H234259   6.134   4.518   1.737 -0.1692 -0.0044 -0.1358
 4282TIP3   OH234260   1.240   0.639  13.229  0.2382 -0.0652  0.1919
 4282TIP3    H134261   1.245   0.685  13.145  0.4495  2.2509  1.3874
 4282TIP3    H234262   1.174   0.687  13.279  1.4069 -0.2275  1.9908
 4283TIP3   OH234263   1.597   0.912  12.153  0.5073  0.5655 -0.1014
 4283TIP3    H134264   1.509   0.937  12.124  0.2291  1.1591  1.1869
 4283TIP3    H234265   1.588   0.820  12.178  0.6423  0.1781 -1.3733
 4284TIP3   OH234266   1.440   0.112   0.018 -0.6247  0.5010  0.2866
 4284TIP3    H134267   1.492   0.191   0.026 -2.1800  1.6295 -0.2212
 4284TIP3    H234268   1.432   0.079   0.108 -2.7228  2.8129  1.0512
 4285TIP3   OH234269   4.036   1.756  17.103  0.3760  0.1457  0.0500
 4285TIP3    H134270   3.982   1.804  17.165 -0.7967 -0.7478 -0.2386
 4285TIP3    H234271   4.004   1.666  17.109 -0.5640  0.2132 -2.6311
 4286TIP3   OH234272   2.596   0.080  12.780 -0.0488  0.3681 -0.4718
 4286TIP3    H134273   2.529   0.080  12.712  0.9140 -1.0816 -1.5034
 4286TIP3    H234274   2.556   0.124  12.854 -2.1886 -0.5919 -0.9928
 4287TIP3   OH234275   0.486   6.705   3.102 -0.9209 -0.0334 -0.1776
 4287TIP3    H134276   0.552   6.744   3.046 -0.9583 -0.3201 -0.4210
 4287TIP3    H234277   0.406   6.754   3.083 -0.7334  0.4818  0.2983
 4288TIP3   OH234278   6.495   5.851   0.477  0.6347 -0.6521 -0.5002
 4288TIP3    H134279   6.445   5.871   0.397  0.0474  2.1692  0.4391
 4288TIP3    H234280   6.586   5.871   0.454  0.7973 -1.9911 -1.0754
 4289TIP3   OH234281   3.232   5.252   0.489 -0.1202  0.1270  0.4802
 4289TIP3    H134282   3.298   5.253   0.419  2.0034 -2.1265  2.2786
 4289TIP3    H234283   3.151   5.227   0.446  0.5925  1.0157 -1.4966
 4290TIP3   OH234284   1.159   3.610  13.297 -0.4329 -0.2635 -0.9997
 4290TIP3    H134285   1.244   3.646  13.322  0.8926 -2.4082 -2.1697
 4290TIP3    H234286   1.104   3.623  13.375  1.2440  0.2721  0.1521
 4291TIP3   OH234287   2.091   3.729   5.592  0.5127  0.5173 -0.1425
 4291TIP3    H134288   2.173   3.772   5.569  0.2745  0.8374 -0.4001
 4291TIP3    H234289   2.050   3.787   5.656  0.0806  0.8009 -0.6677
 4292TIP3   OH234290   1.723   4.880   5.427 -0.4017  1.3433  0.3228
 4292TIP3    H134291   1.661   4.888   5.355  1.6521  2.3327 -1.4291
 4292TIP3    H234292   1.725   4.786   5.447 -0.7406  0.9981 -1.1656
 4293TIP3   OH234293   1.077   1.670  15.215 -0.4439 -0.3935 -0.4243
 4293TIP3    H134294   0.996   1.720  15.220 -0.1030  0.0972  3.4201
 4293TIP3    H234295   1.051   1.583  15.186 -2.0959  0.0981 -0.4966
 4294TIP3   OH234296   1.672   6.760  13.638  0.2412 -0.5715 -0.2559
 4294TIP3    H134297   1.695   6.759  13.731  0.1316 -2.1525 -0.2167
 4294TIP3    H234298   1.593   6.814  13.632  0.6269  0.0896  0.4520
 4295TIP3   OH234299   2.077   0.474   6.124  0.3748 -0.2195  0.3545
 4295TIP3    H134300   2.043   0.388   6.151 -0.3273 -0.0574 -0.0089
 4295TIP3    H234301   2.171   0.460   6.117  0.3484 -0.7863  0.9603
 4296TIP3   OH234302   3.787   1.883  15.995 -0.5975 -0.1083  0.5619
 4296TIP3    H134303   3.843   1.806  16.003 -0.2444  0.1807  0.8583
 4296TIP3    H234304   3.731   1.863  15.919 -0.2820 -0.5113  0.4292
 4297TIP3   OH234305   1.064   6.043  16.052  0.0865 -0.6262 -0.5529
 4297TIP3    H134306   1.144   5.994  16.037  0.0362 -1.0926  0.6186
 4297TIP3    H234307   0.995   5.977  16.057 -0.1118 -0.3775  0.1589
 4298TIP3   OH234308   5.934   0.615   4.901  0.5175 -0.0222 -0.2929
 4298TIP3    H134309   6.023   0.610   4.864  0.8753 -1.3781  0.7010
 4298TIP3    H234310   5.890   0.537   4.868 -0.4954  0.8916 -1.1771
 4299TIP3   OH234311   1.409   2.239  12.796  0.1712 -0.5967 -0.1746
 4299TIP3    H134312   1.345   2.309  12.810 -0.4217 -0.9310 -1.1343
 4299TIP3    H234313   1.364   2.176  12.740  1.6645 -0.3985 -1.6573
 4300TIP3   OH234314   6.308   1.563  16.656 -0.1607 -0.1463  0.3903
 4300TIP3    H134315   6.326   1.503  16.584  2.9149  0.6351  0.3745
 4300TIP3    H234316   6.235   1.617  16.625  0.8952 -0.0012 -2.0761
 4301TIP3   OH234317   2.846   4.446  13.853  0.1002  0.1464  0.3597
 4301TIP3    H134318   2.779   4.514  13.848 -0.5821 -0.5833 -1.1435
 4301TIP3    H234319   2.801   4.365  13.829  1.6073 -0.2758 -1.3206
 4302TIP3   OH234320   2.993   1.525   1.013 -0.2588 -0.0534 -0.3760
 4302TIP3    H134321   2.923   1.549   1.074 -0.8011  2.0018 -1.7266
 4302TIP3    H234322   2.953   1.529   0.926  1.0198 -0.9097 -1.0556
 4303TIP3   OH234323   3.357   2.233  12.824  0.0010  0.2296 -0.0003
 4303TIP3    H134324   3.266   2.256  12.843 -0.5025 -0.7813 -1.0058
 4303TIP3    H234325   3.379   2.285  12.747  0.3752  0.6893  0.4159
 4304TIP3   OH234326   6.449   5.212   0.444  0.4172 -0.2575 -0.3508
 4304TIP3    H134327   6.529   5.238   0.399  1.5031 -1.7329  0.6689
 4304TIP3    H234328   6.477   5.150   0.511 -1.3760  0.4127  1.1213
 4305TIP3   OH234329   5.112   5.785  15.411 -0.5094  0.2206 -0.0327
 4305TIP3    H134330   5.145   5.873  15.426  0.6177 -0.1160 -0.4704
 4305TIP3    H234331   5.182   5.727  15.439 -0.8399 -0.5216 -0.6878
 4306TIP3   OH234332   1.705   5.137  11.042  0.3175  0.1116  0.4049
 4306TIP3    H134333   1.652   5.217  11.034 -1.5613 -1.0271  0.8623
 4306TIP3    H234334   1.701   5.097  10.955  1.4398  0.6121  0.1161
 4307TIP3   OH234335   2.064   5.618   3.678 -0.0720  0.2338 -0.3720
 4307TIP3    H134336   2.147   5.587   3.712 -0.2481  1.0434  0.8631
 4307TIP3    H234337   2.065   5.593   3.586  2.1793  1.4686 -0.7702
 4308TIP3   OH234338   2.556   4.383  16.458  0.4560 -0.0727 -0.0648
 4308TIP3    H134339   2.548   4.334  16.376  0.4428  0.1269 -0.1823
 4308TIP3    H234340   2.563   4.315  16.526  0.4905 -0.2374 -0.2319
 4309TIP3   OH234341   5.203   2.052   2.076 -0.4920 -0.0042 -0.2413
 4309TIP3    H134342   5.186   2.130   2.023  0.2971  1.7218  1.8945
 4309TIP3    H234343   5.160   2.070   2.160  1.5812 -0.8325  1.0787
 4310TIP3   OH234344   4.329   1.895  10.922 -0.6712 -0.0821  0.2210
 4310TIP3    H134345   4.385   1.819  10.938  0.0294  0.2656 -0.5717
 4310TIP3    H234346   4.334   1.946  11.003 -2.3980 -1.6378  1.3912
 4311TIP3   OH234347   3.777   4.468  17.201  0.0988  0.4370 -0.1680
 4311TIP3    H134348   3.833   4.530  17.248  0.2775 -0.0620  0.2916
 4311TIP3    H234349   3.796   4.383  17.241 -0.0838  0.0695 -0.8400
 4312TIP3   OH234350   5.521   2.291  12.565 -0.7592  0.0700 -0.5047
 4312TIP3    H134351   5.546   2.257  12.479 -0.8349 -0.4861 -0.3112
 4312TIP3    H234352   5.595   2.269  12.622 -1.3074 -0.8360 -0.1160
 4313TIP3   OH234353   6.451   5.658  16.227  0.3496  0.5232 -0.4091
 4313TIP3    H134354   6.384   5.676  16.294 -1.7162 -1.9526 -1.6259
 4313TIP3    H234355   6.413   5.694  16.147  0.9086 -0.0909 -0.9543
 4314TIP3   OH234356   5.900   3.384  11.520  0.4598  0.2885  0.1974
 4314TIP3    H134357   5.896   3.384  11.425  0.0687 -0.6772  0.2036
 4314TIP3    H234358   5.894   3.476  11.545 -0.1022  0.4939 -0.6786
 4315TIP3   OH234359   0.332   4.466  12.238 -0.3323 -0.0681  0.0088
 4315TIP3    H134360   0.361   4.545  12.192  1.2194 -0.2195  0.6748
 4315TIP3    H234361   0.279   4.419  12.173 -0.1211  0.8431 -0.8457
 4316TIP3   OH234362   2.969   1.262   5.436 -0.8343 -0.9423  0.1411
 4316TIP3    H134363   3.013   1.330   5.486  3.1471  0.4707 -4.4662
 4316TIP3    H234364   2.891   1.305   5.400 -0.3281  0.0234  0.1658
 4317TIP3   OH234365   6.206   5.512  12.262  0.3685  0.3093  0.0454
 4317TIP3    H134366   6.233   5.601  12.285  1.2162 -0.0010  0.2615
 4317TIP3    H234367   6.224   5.461  12.341  1.1316 -0.3123 -0.5214
 4318TIP3   OH234368   2.176   3.050   4.656  0.7983  0.0155 -0.0099
 4318TIP3    H134369   2.259   3.021   4.694  0.6082 -0.9357 -0.2884
 4318TIP3    H234370   2.152   2.980   4.595 -0.0801  0.3997 -0.1198
 4319TIP3   OH234371   3.243   3.427  14.687  0.5854 -0.1018  0.3944
 4319TIP3    H134372   3.156   3.424  14.647  0.8796  0.3579 -0.3060
 4319TIP3    H234373   3.276   3.514  14.664  1.9564 -0.9321 -0.8974
 4320TIP3   OH234374   4.663   2.352  14.750 -0.3147  0.1421 -0.3900
 4320TIP3    H134375   4.661   2.263  14.715  0.6707  0.0754 -0.3149
 4320TIP3    H234376   4.754   2.380  14.738 -0.8068  1.4908 -1.2746
 4321TIP3   OH234377   4.111   0.404  15.622  0.4697  0.1405 -0.0086
 4321TIP3    H134378   4.092   0.362  15.538  0.4609  0.1499 -0.0111
 4321TIP3    H234379   4.190   0.360  15.654  1.3304  1.1338 -0.6996
 4322TIP3   OH234380   2.201   0.340  12.734  0.7263 -0.0851 -0.1999
 4322TIP3    H134381   2.277   0.396  12.717 -0.3619  1.7224  0.5086
 4322TIP3    H234382   2.234   0.269  12.789  2.2449 -0.3954 -1.4490
 4323TIP3   OH234383   6.632   5.412   3.854  0.8689 -0.4012  0.0035
 4323TIP3    H134384   6.651   5.404   3.761 -0.4943  0.0591 -0.3352
 4323TIP3    H234385   6.581   5.333   3.875  0.5414 -0.1423  0.1841
 4324TIP3   OH234386   6.761   6.735   2.006 -0.5472  0.5765 -0.5805
 4324TIP3    H134387   6.804   6.656   1.973  0.6921  1.5273 -1.3354
 4324TIP3    H234388   6.769   6.798   1.934 -2.0937  1.1916 -0.2380
 4325TIP3   OH234389   0.767   5.745  10.626 -0.0110  0.5006 -0.1332
 4325TIP3    H134390   0.825   5.819  10.608  0.6351 -0.3179 -1.5462
 4325TIP3    H234391   0.690   5.785  10.667  0.5257  1.9031 -0.4356
 4326TIP3   OH234392   4.257   2.315   0.645  0.3790  0.2350  0.2215
 4326TIP3    H134393   4.257   2.395   0.697  0.7014  0.0172  0.5563
 4326TIP3    H234394   4.305   2.338   0.565 -1.8149  1.1742 -0.9318
 4327TIP3   OH234395   1.223   2.521   3.869  0.3178  0.1836 -0.1619
 4327TIP3    H134396   1.203   2.440   3.821  2.1133 -0.8111  0.6888
 4327TIP3    H234397   1.278   2.572   3.810  2.6926 -1.1279  0.7891
 4328TIP3   OH234398   5.151   6.587   2.178 -0.5596  0.1786  0.2393
 4328TIP3    H134399   5.160   6.678   2.203  0.3141  1.2132 -3.2684
 4328TIP3    H234400   5.239   6.551   2.183 -0.6799 -0.0984  0.3959
 4329TIP3   OH234401   5.334   0.671  11.151 -0.0846  0.0670 -0.0318
 4329TIP3    H134402   5.375   0.741  11.100  0.4493 -0.5176 -0.4283
 4329TIP3    H234403   5.316   0.602  11.087 -1.5433  0.2351  0.1674
 4330TIP3   OH234404   0.541   4.762   4.353 -0.2781 -0.1363 -0.2088
 4330TIP3    H134405   0.611   4.712   4.395  0.0161  0.8257  0.4778
 4330TIP3    H234406   0.460   4.725   4.391 -0.1019 -0.5194 -0.1956
 4331TIP3   OH234407   5.648   4.791   2.787 -0.1218  0.0499 -0.3583
 4331TIP3    H134408   5.646   4.812   2.881 -0.8094 -1.5387  0.0139
 4331TIP3    H234409   5.735   4.755   2.772 -0.0553  0.1900 -0.3082
 4332TIP3   OH234410   4.272   2.394   3.264 -0.3678 -0.1893 -0.9227
 4332TIP3    H134411   4.212   2.323   3.286 -1.9719  1.2445 -0.3588
 4332TIP3    H234412   4.256   2.411   3.171  0.5964 -1.0600 -1.2587
 4333TIP3   OH234413   4.781   1.635   4.020 -0.1143  0.1207 -0.6625
 4333TIP3    H134414   4.866   1.667   4.050  0.2788 -1.1408 -0.3990
 4333TIP3    H234415   4.723   1.643   4.096  0.1378 -0.3648 -0.4198
 4334TIP3   OH234416   5.549   2.478  13.958 -0.2029  0.0440 -0.4267
 4334TIP3    H134417   5.612   2.484  14.030  1.9611  1.6220 -2.2933
 4334TIP3    H234418   5.497   2.558  13.965  0.5323  0.5935 -0.9994
 4335TIP3   OH234419   5.657   2.528  16.269 -0.3864  0.0014 -0.2989
 4335TIP3    H134420   5.715   2.568  16.204 -1.5583  3.1377  0.4001
 4335TIP3    H234421   5.595   2.476  16.218 -0.1160  0.8447 -1.5165
 4336TIP3   OH234422   2.200   3.205   3.470  0.9487 -0.0780  0.1093
 4336TIP3    H134423   2.220   3.113   3.486 -1.4486 -0.5866  0.5946
 4336TIP3    H234424   2.178   3.210   3.377  1.4745  0.1056 -0.0100
 4337TIP3   OH234425   1.534   0.670  11.664  0.0112 -0.2506  0.5224
 4337TIP3    H134426   1.465   0.674  11.599  2.1042  1.2120 -1.7990
 4337TIP3    H234427   1.591   0.599  11.634  1.8518  1.4603 -0.3282
 4338TIP3   OH234428   0.224   4.875   1.137 -0.3766 -0.0744  0.2458
 4338TIP3    H134429   0.251   4.785   1.155 -2.1790 -0.8905 -0.8413
 4338TIP3    H234430   0.270   4.898   1.056 -0.3358 -0.2012  0.2336
 4339TIP3   OH234431   2.854   2.687  12.250  0.0432  0.0701 -0.0570
 4339TIP3    H134432   2.934   2.645  12.221  0.2962 -0.7466  1.6733
 4339TIP3    H234433   2.846   2.662  12.342 -0.0996  3.3674  0.9412
 4340TIP3   OH234434   4.081   2.629  12.592 -0.8386 -0.0898 -0.4025
 4340TIP3    H134435   4.141   2.700  12.568 -0.5564 -0.2474 -0.1706
 4340TIP3    H234436   4.122   2.550  12.559 -1.1396 -0.1525 -0.6340
 4341TIP3   OH234437   3.361   1.325   4.771  0.0224  0.5558  0.2118
 4341TIP3    H134438   3.319   1.339   4.686  2.1245  0.3939 -0.9469
 4341TIP3    H234439   3.435   1.387   4.771  0.5982 -0.0885  1.5228
 4342TIP3   OH234440   4.808   4.374   0.986  0.5094  0.0799 -0.1260
 4342TIP3    H134441   4.766   4.455   0.955  0.0310 -0.2421 -0.3286
 4342TIP3    H234442   4.797   4.312   0.914 -1.5197 -1.0046  1.0341
 4343TIP3   OH234443   2.280   3.110   1.979  0.1948  0.0367 -0.0176
 4343TIP3    H134444   2.208   3.062   1.939  0.8866 -1.9132  0.9404
 4343TIP3    H234445   2.359   3.068   1.945  0.8244  0.4276  0.9119
 4344TIP3   OH234446   4.839   0.969  14.488 -0.0401  0.1074  0.1472
 4344TIP3    H134447   4.912   0.938  14.542 -0.6290 -2.6857 -0.5388
 4344TIP3    H234448   4.763   0.924  14.523 -1.3426  2.2389  0.2165
 4345TIP3   OH234449   4.129   0.048  13.482 -0.1437 -0.5997 -0.3627
 4345TIP3    H134450   4.197  -0.008  13.521 -0.4859 -0.3463  0.6239
 4345TIP3    H234451   4.166   0.136  13.485 -0.7785 -0.3615  0.8122
 4346TIP3   OH234452   3.113   1.436   5.603  0.0400 -0.0092 -0.8135
 4346TIP3    H134453   3.134   1.510   5.659 -0.8071 -0.1560 -0.2849
 4346TIP3    H234454   3.144   1.359   5.651 -1.0310 -0.1678 -0.3494
 4347TIP3   OH234455   2.801   0.391  11.639 -0.3441 -0.3091  0.2670
 4347TIP3    H134456   2.787   0.310  11.689 -2.3877 -0.4338 -0.4127
 4347TIP3    H234457   2.868   0.367  11.574  0.5801 -0.8175  1.3577
 4348TIP3   OH234458   3.747   2.314  16.504  0.8376  0.1916 -0.1691
 4348TIP3    H134459   3.824   2.258  16.512  1.1141 -0.1137 -3.4867
 4348TIP3    H234460   3.694   2.294  16.581  3.2574 -0.8647  1.3101
 4349TIP3   OH234461   5.538   2.414  12.908  0.0896  0.1065  0.1588
 4349TIP3    H134462   5.602   2.378  12.848  0.2326 -1.7847  1.3645
 4349TIP3    H234463   5.588   2.472  12.965  0.2248  0.6802 -0.5258
 4350TIP3   OH234464   1.196   1.876   3.685 -0.0953 -0.5081  0.1230
 4350TIP3    H134465   1.125   1.905   3.742 -0.2741 -0.8295  0.0657
 4350TIP3    H234466   1.162   1.796   3.643  1.2300 -2.1707  2.0339
 4351TIP3   OH234467   6.453   1.871   3.432 -0.2970  0.5558 -0.4113
 4351TIP3    H134468   6.544   1.844   3.423  0.0171  1.5013 -0.1817
 4351TIP3    H234469   6.407   1.790   3.456  0.1630 -0.3197 -2.2710
 4352TIP3   OH234470   6.772   3.521   4.913 -0.7703  0.3059 -0.0413
 4352TIP3    H134471   6.849   3.467   4.895 -1.1254 -0.2235  0.0261
 4352TIP3    H234472   6.808   3.604   4.944 -0.2246  0.0879 -0.0849
 4353TIP3   OH234473   0.931   3.181   0.927 -0.3112  0.4095 -0.0797
 4353TIP3    H134474   0.888   3.151   1.007  0.4463  1.4450  0.7507
 4353TIP3    H234475   1.023   3.157   0.939  0.3553  2.9605  0.6647
 4354TIP3   OH234476   2.446   6.708  15.916 -0.0913  0.1164  0.1533
 4354TIP3    H134477   2.471   6.689  16.007 -0.3643  1.7302  0.6043
 4354TIP3    H234478   2.364   6.661  15.904  0.4515 -0.9289  0.3925
 4355TIP3   OH234479   0.698   4.839  12.362 -0.5130  0.2794  0.1776
 4355TIP3    H134480   0.638   4.770  12.389  0.3752 -0.8563 -0.6549
 4355TIP3    H234481   0.780   4.793  12.341  1.0515  1.8758  2.3342
 4356TIP3   OH234482   0.623   2.204  15.117 -0.3454  0.5206  0.1532
 4356TIP3    H134483   0.592   2.276  15.171  1.6239  1.2712  0.3822
 4356TIP3    H234484   0.695   2.165  15.167  1.1805  0.8924 -1.6053
 4357TIP3   OH234485   2.051   5.050  15.382 -0.2532  0.6545  0.6351
 4357TIP3    H134486   2.061   5.016  15.471  0.1727 -0.4422  0.1848
 4357TIP3    H234487   1.957   5.065  15.373 -0.5334 -0.8455  0.7190
 4358TIP3   OH234488   5.438   1.038   4.694 -0.1113 -0.3840 -0.1999
 4358TIP3    H134489   5.365   1.017   4.752 -1.3084  0.1456 -1.4691
 4358TIP3    H234490   5.469   0.954   4.662 -1.1396 -0.5612 -0.7824
 4359TIP3   OH234491   1.529   5.942  17.152  0.5376  0.8587 -0.2422
 4359TIP3    H134492   1.615   5.977  17.128  1.0046  1.6403  2.2429
 4359TIP3    H234493   1.537   5.922  17.245 -1.5483 -0.4568 -0.2844
 4360TIP3   OH234494   1.426   1.314   0.280 -0.2339 -0.2982 -0.0136
 4360TIP3    H134495   1.348   1.318   0.335 -0.5081 -0.4423 -0.3831
 4360TIP3    H234496   1.497   1.345   0.336 -0.6325  0.2641  0.1855
 4361TIP3   OH234497   5.544   2.574   1.879  0.2128 -0.4460 -0.1511
 4361TIP3    H134498   5.454   2.606   1.875 -0.1950 -1.6573 -1.4763
 4361TIP3    H234499   5.598   2.652   1.869 -0.7253  0.0704 -1.4598
 4362TIP3   OH234500   6.118   0.158  11.801 -0.3245  0.1485 -0.0572
 4362TIP3    H134501   6.025   0.177  11.783 -0.2239 -0.7398 -1.6998
 4362TIP3    H234502   6.135   0.076  11.755  1.7120  1.1465 -1.2274
 4363TIP3   OH234503   2.847   2.944  11.891  0.0253  0.2879  0.5765
 4363TIP3    H134504   2.753   2.963  11.893  0.0843  0.5762  0.5587
 4363TIP3    H234505   2.885   3.002  11.957  0.3096  0.7976 -0.0350
 4364TIP3   OH234506   3.477   5.131  14.277  0.6658  0.9044 -0.6391
 4364TIP3    H134507   3.469   5.195  14.347  1.5622  1.6633 -1.2041
 4364TIP3    H234508   3.557   5.156  14.230  0.7048 -0.2604 -1.2457
 4365TIP3   OH234509   2.658   2.179  15.183  0.0896 -0.2880  0.0844
 4365TIP3    H134510   2.642   2.176  15.089  0.1317 -2.8063  0.0973
 4365TIP3    H234511   2.582   2.226  15.218  1.1623  2.7810 -1.3183
 4366TIP3   OH234512   5.313   4.200  16.964 -0.2584 -0.0558 -0.2491
 4366TIP3    H134513   5.234   4.148  16.949  0.0965 -0.4689 -0.7237
 4366TIP3    H234514   5.386   4.140  16.947  0.1948 -0.1205  1.6571
 4367TIP3   OH234515   4.744   6.210  13.915 -0.9471  0.3682 -0.1191
 4367TIP3    H134516   4.785   6.125  13.925 -3.9258 -1.2371 -0.4864
 4367TIP3    H234517   4.763   6.255  13.997  0.4347 -0.7232  0.1994
 4368TIP3   OH234518   2.234   0.162  16.048 -0.0622  0.0897  0.3807
 4368TIP3    H134519   2.289   0.084  16.041 -0.4626 -0.1954  0.3848
 4368TIP3    H234520   2.261   0.203  16.130 -0.5387 -0.5836  0.8811
 4369TIP3   OH234521   1.474   3.626  13.153  0.7005 -0.0056  0.0523
 4369TIP3    H134522   1.449   3.681  13.227  0.2034  0.2396 -0.2940
 4369TIP3    H234523   1.528   3.683  13.099 -1.1549  0.7059 -1.1495
 4370TIP3   OH234524   0.971   5.954  14.347  0.6898  0.0369  0.1034
 4370TIP3    H134525   0.959   5.863  14.373  1.6019 -0.4003 -0.9406
 4370TIP3    H234526   0.883   5.991  14.349  0.1691 -1.1147 -0.3581
 4371TIP3   OH234527   0.372   6.158  14.428 -0.1579 -0.3321  0.3862
 4371TIP3    H134528   0.428   6.141  14.504 -0.8249 -3.9065  0.2813
 4371TIP3    H234529   0.319   6.233  14.454  1.2763  0.0406  2.4845
 4372TIP3   OH234530   1.558   5.782   5.525 -0.2813  0.1201 -0.4601
 4372TIP3    H134531   1.559   5.867   5.482  0.9866 -0.2549 -1.2205
 4372TIP3    H234532   1.537   5.720   5.455 -0.2355 -0.2953 -0.1110
 4373TIP3   OH234533   3.158   3.214  15.107 -0.1485 -0.5027 -0.6923
 4373TIP3    H134534   3.145   3.169  15.023 -1.9807 -0.4984 -0.4651
 4373TIP3    H234535   3.127   3.151  15.172  0.7302 -0.2911 -0.0481
 4374TIP3   OH234536   6.575   4.626  11.794  0.6072 -1.1713  0.0299
 4374TIP3    H134537   6.668   4.636  11.812  0.4267 -0.7572  0.7787
 4374TIP3    H234538   6.549   4.708  11.753  0.4229 -0.9763  0.5192
 4375TIP3   OH234539   2.056   0.503   3.230 -0.7347  0.0200 -0.1991
 4375TIP3    H134540   2.041   0.512   3.324 -0.5281  0.3342 -0.1949
 4375TIP3    H234541   2.151   0.495   3.222 -0.7495  0.0311 -0.3821
 4376TIP3   OH234542   1.852   1.950   3.064 -0.4114  0.3766  0.6051
 4376TIP3    H134543   1.872   1.859   3.045  0.7099  0.5105  1.0287
 4376TIP3    H234544   1.757   1.955   3.067 -0.5211 -0.4321 -1.0491
 4377TIP3   OH234545   2.817   1.912  17.116 -0.7880  0.6117 -0.0724
 4377TIP3    H134546   2.772   1.996  17.103  1.7179  2.2484  1.0528
 4377TIP3    H234547   2.889   1.913  17.053 -0.6148 -0.6293  0.0759
 4378TIP3   OH234548   4.281   3.244  10.242  0.2173 -0.0323 -0.1324
 4378TIP3    H134549   4.345   3.173  10.248 -0.4745 -1.0450 -2.9308
 4378TIP3    H234550   4.196   3.199  10.242 -0.3351  0.9812 -0.0353
 4379TIP3   OH234551   1.226   1.979   3.270 -0.1934 -0.2377 -0.5144
 4379TIP3    H134552   1.266   2.038   3.334 -0.5883  0.5460 -0.9683
 4379TIP3    H234553   1.138   1.963   3.304 -0.8864  1.2711 -1.5130
 4380TIP3   OH234554   3.138   0.401   3.580 -0.4631  0.2377 -0.1521
 4380TIP3    H134555   3.223   0.387   3.536  0.7080 -1.5111  2.4436
 4380TIP3    H234556   3.140   0.492   3.608 -0.7592  1.0676 -2.5584
 4381TIP3   OH234557   3.394   2.226  14.071 -0.0507 -0.6202  0.1027
 4381TIP3    H134558   3.370   2.137  14.047 -0.5027 -0.8579  1.3766
 4381TIP3    H234559   3.417   2.221  14.163  2.6445  0.0593 -0.4414
 4382TIP3   OH234560   5.757   3.659   3.646 -0.3468  0.0758  0.0816
 4382TIP3    H134561   5.666   3.633   3.658 -0.0199 -0.8776  0.5616
 4382TIP3    H234562   5.760   3.751   3.674 -0.7969 -0.3944  1.7892
 4383TIP3   OH234563   6.135   1.909  11.182 -0.3690  0.4370 -0.1465
 4383TIP3    H134564   6.086   1.906  11.100  1.5410  0.4551 -1.3369
 4383TIP3    H234565   6.079   1.960  11.242 -1.2109  1.5745 -1.8315
 4384TIP3   OH234566   5.318   0.253  16.774 -0.0651 -0.1790  0.0984
 4384TIP3    H134567   5.321   0.185  16.841  1.6392  0.6603  0.9213
 4384TIP3    H234568   5.294   0.332  16.821 -0.3709  0.1318 -0.5648
 4385TIP3   OH234569   0.651   1.300   0.385  0.4122 -0.4178 -0.9536
 4385TIP3    H134570   0.556   1.302   0.397  0.0253  0.7597 -3.5497
 4385TIP3    H234571   0.666   1.346   0.303  3.3588  0.4158 -0.0774
 4386TIP3   OH234572   1.947   4.425   0.057 -0.3387  0.3559  0.1825
 4386TIP3    H134573   1.912   4.456  -0.027 -1.4008 -1.3352 -0.0331
 4386TIP3    H234574   1.940   4.330   0.053 -0.0230  0.2144  2.0303
 4387TIP3   OH234575   0.424   5.492   3.546  0.0847  0.3191 -0.4909
 4387TIP3    H134576   0.354   5.456   3.600  0.7285  0.7419  0.6567
 4387TIP3    H234577   0.386   5.497   3.458 -0.2582 -2.5016 -0.5936
 4388TIP3   OH234578   3.430   5.870  12.080  0.7299  0.8069 -0.2499
 4388TIP3    H134579   3.464   5.782  12.094  1.5217  1.1282 -0.0597
 4388TIP3    H234580   3.348   5.872  12.129  2.0151  0.9772  2.0518
 4389TIP3   OH234581   6.220   2.512   2.840  0.1301  0.0825  0.2312
 4389TIP3    H134582   6.155   2.462   2.889  1.5706 -0.4920  1.6669
 4389TIP3    H234583   6.238   2.589   2.895  1.4067 -0.3085  0.3974
 4390TIP3   OH234584   3.645   1.065   0.876  0.0914  0.7344  0.4274
 4390TIP3    H134585   3.618   1.042   0.787  0.5642  2.2215 -0.1306
 4390TIP3    H234586   3.708   0.998   0.900  0.2609  0.5392 -0.5223
 4391TIP3   OH234587   5.072   0.583   6.804 -0.0073  0.0126 -0.4132
 4391TIP3    H134588   4.996   0.639   6.814 -0.3194 -0.5568  0.5094
 4391TIP3    H234589   5.038   0.503   6.763 -0.6022 -1.5674  2.8418
 4392TIP3   OH234590   2.412   0.849  11.260  0.0227  0.0112  0.1287
 4392TIP3    H134591   2.419   0.773  11.201  1.2910  0.1855  0.0264
 4392TIP3    H234592   2.502   0.880  11.270 -0.2536  0.4013  1.6379
 4393TIP3   OH234593   3.791   4.208   2.190 -0.0676  0.1510  0.0593
 4393TIP3    H134594   3.821   4.213   2.100  0.4922  1.1486  0.2878
 4393TIP3    H234595   3.786   4.299   2.219  0.4895 -0.1824  1.2649
 4394TIP3   OH234596   4.778   4.452   3.250 -0.2732  0.2904  0.2696
 4394TIP3    H134597   4.706   4.401   3.214 -0.5137 -0.1140  1.3020
 4394TIP3    H234598   4.767   4.448   3.345  2.2320 -1.5260  0.5986
 4395TIP3   OH234599   2.553   0.940  16.098  0.5198 -0.2016  0.8028
 4395TIP3    H134600   2.524   1.031  16.101 -0.4859 -0.5287  1.4980
 4395TIP3    H234601   2.646   0.945  16.072  0.3200  0.9696  0.2443
 4396TIP3   OH234602   0.636   0.554  16.448  0.0185 -0.0118  0.7067
 4396TIP3    H134603   0.704   0.592  16.392 -0.2892 -0.0572  0.3031
 4396TIP3    H234604   0.578   0.508  16.388 -0.4255  0.1070  1.0381
 4397TIP3   OH234605   0.828   5.089  13.079  0.3261 -0.4621 -0.1227
 4397TIP3    H134606   0.860   5.158  13.021 -1.3629  0.7738  0.3522
 4397TIP3    H234607   0.854   5.118  13.167  1.0381 -1.2752 -0.0547
 4398TIP3   OH234608   1.842   5.366   1.782  0.6396  0.2973 -0.5203
 4398TIP3    H134609   1.833   5.394   1.874  1.9980 -2.1685  0.4500
 4398TIP3    H234610   1.876   5.444   1.737  0.0192  1.5427  1.0650
 4399TIP3   OH234611   5.591   0.636   6.084  0.1464 -0.6936 -0.0570
 4399TIP3    H134612   5.659   0.652   6.150 -0.7616 -0.0120  0.7505
 4399TIP3    H234613   5.606   0.546   6.056  1.7953 -0.3451 -0.4072
 4400TIP3   OH234614   0.675   0.183  14.547  0.1039  0.0263 -0.3869
 4400TIP3    H134615   0.738   0.251  14.568 -1.9931  1.8203  0.5680
 4400TIP3    H234616   0.682   0.172  14.452 -0.3520  2.5730 -0.7964
 4401TIP3   OH234617   4.676   4.954  13.016 -0.2413 -0.6590  0.1336
 4401TIP3    H134618   4.634   5.034  12.983 -0.3842  0.1317  2.0681
 4401TIP3    H234619   4.733   4.985  13.087  0.3442 -2.2054  0.3792
 4402TIP3   OH234620   5.145   4.787   4.256 -0.3676 -0.0579 -0.3739
 4402TIP3    H134621   5.110   4.714   4.204 -0.2230 -0.0725 -0.4486
 4402TIP3    H234622   5.238   4.790   4.235 -0.5225  0.6641 -0.9942
 4403TIP3   OH234623   0.680   1.108   1.488 -0.2192  0.5539 -0.3411
 4403TIP3    H134624   0.608   1.167   1.509 -0.3631 -0.0161  0.8235
 4403TIP3    H234625   0.659   1.026   1.533  0.6435  0.0414 -0.8292
 4404TIP3   OH234626   0.355   4.461   3.149 -0.7519 -0.2511  0.2825
 4404TIP3    H134627   0.363   4.440   3.242 -0.8010  1.0989  0.6108
 4404TIP3    H234628   0.266   4.434   3.126 -0.0702 -2.5221  0.0683
 4405TIP3   OH234629   4.249   6.481  12.692  0.2477 -0.0428 -0.1377
 4405TIP3    H134630   4.209   6.425  12.759  0.8307 -0.1907  0.0982
 4405TIP3    H234631   4.178   6.501  12.631 -0.2943  0.1007  0.5279
 4406TIP3   OH234632   4.192   6.787   3.820  0.4474  0.2425 -0.1785
 4406TIP3    H134633   4.227   6.857   3.874  0.5365 -0.0155  0.1021
 4406TIP3    H234634   4.155   6.724   3.882 -3.0810  1.7905 -0.4963
 4407TIP3   OH234635   6.658   0.295  10.908  0.3672  0.1109 -0.7236
 4407TIP3    H134636   6.612   0.237  10.968 -0.6819  0.4921 -1.1336
 4407TIP3    H234637   6.710   0.352  10.964  0.0228 -0.0640 -0.2246
 4408TIP3   OH234638   3.782   6.409  13.405  0.0727 -0.2445  0.1066
 4408TIP3    H134639   3.877   6.409  13.411  0.0402 -0.4442  0.8041
 4408TIP3    H234640   3.757   6.319  13.428 -0.3534  0.2006  1.4646
 4409TIP3   OH234641   2.515   2.630  16.630 -0.2042 -0.6576  0.0591
 4409TIP3    H134642   2.553   2.649  16.544 -0.0263  2.1706  0.6906
 4409TIP3    H234643   2.421   2.638  16.617 -0.2538 -1.3998 -0.1002
 4410TIP3   OH234644   3.306   1.868  11.099  0.4283  0.0626  0.3566
 4410TIP3    H134645   3.259   1.900  11.022  1.1243  2.4347  0.8282
 4410TIP3    H234646   3.252   1.797  11.134 -1.1775  0.6500 -0.8640
 4411TIP3   OH234647   0.794   2.160  15.855  0.3029 -0.2094 -0.6823
 4411TIP3    H134648   0.762   2.244  15.823  1.0130  0.7956  1.0825
 4411TIP3    H234649   0.797   2.104  15.777 -1.6162  0.9101 -1.6360
 4412TIP3   OH234650   3.343   1.661   4.004 -0.1859 -0.2225  0.1228
 4412TIP3    H134651   3.278   1.676   4.072 -0.4334  2.3101 -0.5653
 4412TIP3    H234652   3.296   1.613   3.936  0.2155 -3.3044  1.8500
 4413TIP3   OH234653   2.035   6.529   6.165  0.4826  0.2879  0.2965
 4413TIP3    H134654   2.026   6.617   6.127  0.0240  0.0039 -0.2806
 4413TIP3    H234655   2.130   6.513   6.165  0.6146  0.9926  0.9226
 4414TIP3   OH234656   4.288   5.090  11.412  0.0591 -0.3700 -0.3966
 4414TIP3    H134657   4.303   5.054  11.325 -1.4385 -1.1339 -0.3797
 4414TIP3    H234658   4.232   5.166  11.397 -0.2258 -0.5204 -0.0997
 4415TIP3   OH234659   6.121   3.606   0.416 -0.2829 -0.0675 -0.3851
 4415TIP3    H134660   6.048   3.638   0.364  1.3129  3.9520 -0.5091
 4415TIP3    H234661   6.180   3.564   0.353 -1.2960 -1.1074 -0.6649
 4416TIP3   OH234662   0.044   5.750  15.466  0.1283  0.2767 -0.1255
 4416TIP3    H134663   0.129   5.744  15.422  0.4247  1.9319  0.1803
 4416TIP3    H234664   0.060   5.714  15.553  0.9986  2.1132  0.5306
 4417TIP3   OH234665   2.918   4.109   1.007 -0.3090  0.3393  0.2636
 4417TIP3    H134666   2.833   4.131   0.968  0.1695  1.0674 -0.4028
 4417TIP3    H234667   2.898   4.037   1.068 -1.1973 -0.3720 -0.8158
 4418TIP3   OH234668   4.098   4.568  15.403  0.0294 -0.0187  0.5009
 4418TIP3    H134669   4.100   4.488  15.350  1.9281  1.3771 -1.7640
 4418TIP3    H234670   4.113   4.538  15.492  0.8003 -2.1946 -0.2870
 4419TIP3   OH234671   5.060   1.983  15.041 -0.1750 -0.1933 -0.4017
 4419TIP3    H134672   5.044   2.051  14.976 -0.8028  1.6158  1.5230
 4419TIP3    H234673   5.005   1.909  15.013 -1.5580  1.0687 -1.1694
 4420TIP3   OH234674   4.321   3.753  13.580  0.6055  0.0209  0.9921
 4420TIP3    H134675   4.236   3.709  13.592  1.5578 -1.6101  2.2544
 4420TIP3    H234676   4.386   3.685  13.601  2.3240  0.5173 -2.1771
 4421TIP3   OH234677   4.636   3.955  11.298 -0.4645 -0.4296 -0.2715
 4421TIP3    H134678   4.606   3.882  11.244 -0.0044 -1.1770  0.4762
 4421TIP3    H234679   4.599   3.938  11.384 -0.4286  0.2777 -0.1112
 4422TIP3   OH234680   3.188   4.258   4.530 -0.1724 -0.1256  0.6002
 4422TIP3    H134681   3.169   4.334   4.585  0.9857 -0.3354  1.3288
 4422TIP3    H234682   3.200   4.186   4.593  0.3735 -0.5474  0.0282
 4423TIP3   OH234683   2.005   0.321  17.008  0.2904 -0.1274 -1.1960
 4423TIP3    H134684   2.000   0.306  16.914  0.5185 -2.6252 -0.8907
 4423TIP3    H234685   2.094   0.353  17.023  1.4567 -2.9022 -1.5685
 4424TIP3   OH234686   5.522   0.625  13.041  0.0707  0.1050  0.4462
 4424TIP3    H134687   5.487   0.652  13.126 -0.8529 -2.2635  0.8749
 4424TIP3    H234688   5.446   0.622  12.983  0.2823 -0.7801  0.2108
 4425TIP3   OH234689   2.952   3.955  15.361 -0.4149  0.1237 -0.2630
 4425TIP3    H134690   2.903   3.887  15.316  1.2509 -0.4907 -1.2720
 4425TIP3    H234691   2.895   4.032  15.359 -0.7273 -0.0752 -2.8691
 4426TIP3   OH234692   4.823   4.445  14.581  0.1491 -0.4887  0.6719
 4426TIP3    H134693   4.821   4.534  14.547  1.9779 -0.1960  1.2192
 4426TIP3    H234694   4.784   4.451  14.668  1.2237  0.0132  1.1366
 4427TIP3   OH234695   2.561   4.454  11.244  0.0051 -0.5181  0.4032
 4427TIP3    H134696   2.627   4.523  11.248  1.7189 -2.1049  1.0067
 4427TIP3    H234697   2.553   4.434  11.150  1.9207 -1.6399  0.4235
 4428TIP3   OH234698   2.127   2.829   4.475  0.1137  0.5848  0.6476
 4428TIP3    H134699   2.081   2.834   4.391 -0.6305  2.1300  1.1126
 4428TIP3    H234700   2.083   2.759   4.523  1.3817 -1.2220 -0.6980
 4429TIP3   OH234701   3.700   0.402  14.982  0.0599 -0.4512  0.0207
 4429TIP3    H134702   3.647   0.443  15.051 -1.5488 -0.5955 -1.0624
 4429TIP3    H234703   3.680   0.309  14.989 -1.1415 -0.3438 -1.3926
 4430TIP3   OH234704   1.223   2.603  11.765 -0.0713 -1.2061  0.3227
 4430TIP3    H134705   1.156   2.604  11.697  1.7919 -2.0109 -1.6407
 4430TIP3    H234706   1.241   2.510  11.780  1.3954 -1.0037 -0.0448
 4431TIP3   OH234707   5.396   5.423   0.982 -0.5633  0.7428 -0.1990
 4431TIP3    H134708   5.401   5.363   0.907 -1.2490  0.5721 -0.1069
 4431TIP3    H234709   5.326   5.484   0.960 -2.2055 -0.5534  1.1900
 4432TIP3   OH234710   3.248   0.374  13.179  0.2389 -0.1430  0.1418
 4432TIP3    H134711   3.275   0.284  13.160  0.1588 -0.2949  0.7293
 4432TIP3    H234712   3.299   0.398  13.257  0.2523  0.3171 -0.0071
 4433TIP3   OH234713   0.001   4.344   2.236 -0.0513  0.1368 -0.6573
 4433TIP3    H134714  -0.044   4.395   2.168  0.8745  0.2018 -1.2467
 4433TIP3    H234715   0.080   4.395   2.256  0.1084 -0.3007 -0.1374
 4434TIP3   OH234716   0.586   2.255   1.786  0.5680  0.6163 -0.0140
 4434TIP3    H134717   0.518   2.250   1.719 -0.0984  1.8079  0.5430
 4434TIP3    H234718   0.608   2.164   1.805  0.3961  0.2566 -1.4650
 4435TIP3   OH234719   1.240   1.483  15.545  0.5493 -0.3240 -0.4509
 4435TIP3    H134720   1.194   1.449  15.622 -0.4141  1.2163 -0.3075
 4435TIP3    H234721   1.231   1.413  15.480 -1.9215 -0.1653 -0.3825
 4436TIP3   OH234722   2.165   6.211  14.092  0.0886  0.5048  0.0163
 4436TIP3    H134723   2.112   6.289  14.109  1.6239  1.8210 -0.9163
 4436TIP3    H234724   2.255   6.242  14.099  0.7521 -0.7324 -2.1803
 4437TIP3   OH234725   2.899   2.371  13.036 -0.2376  0.0974  0.1719
 4437TIP3    H134726   2.898   2.397  13.128 -1.1559 -1.7118  0.7298
 4437TIP3    H234727   2.808   2.343  13.018  0.6225 -2.8658 -0.2147
 4438TIP3   OH234728   2.536   0.501  13.330 -0.1666  0.4623  0.2568
 4438TIP3    H134729   2.497   0.563  13.392 -1.2091  0.5508 -0.4530
 4438TIP3    H234730   2.626   0.490  13.360 -0.5249  0.8429  1.5129
 4439TIP3   OH234731   3.257   6.058   4.903 -0.3405  0.7943 -0.4012
 4439TIP3    H134732   3.304   6.138   4.881  0.5713  0.1864 -0.7573
 4439TIP3    H234733   3.262   6.004   4.824 -2.0252  0.8637 -0.5932
 4440TIP3   OH234734   4.137   0.247  12.630 -0.0300  0.1084  0.2924
 4440TIP3    H134735   4.213   0.190  12.616  0.0307  0.5055 -1.1877
 4440TIP3    H234736   4.079   0.197  12.687  1.3668 -0.1701  1.5205
 4441TIP3   OH234737   4.990   2.633   3.734  0.0492 -0.5776  0.0476
 4441TIP3    H134738   4.943   2.716   3.724 -0.1593 -0.7266 -0.2381
 4441TIP3    H234739   4.963   2.601   3.820 -2.7258 -2.0894 -1.2632
 4442TIP3   OH234740   5.236   1.596  16.092 -0.2010 -0.4171 -0.0980
 4442TIP3    H134741   5.220   1.634  16.005  1.4128  0.0201 -0.2360
 4442TIP3    H234742   5.242   1.502  16.077  2.2872 -0.1999 -0.8888
 4443TIP3   OH234743   0.287   1.486  13.585  0.0004  0.2911 -0.4636
 4443TIP3    H134744   0.264   1.397  13.559 -0.9922  0.4754 -0.2250
 4443TIP3    H234745   0.204   1.529  13.605  0.5083  1.0935  0.0216
 4444TIP3   OH234746   0.514   5.140   2.056  0.0221  0.4467 -0.3006
 4444TIP3    H134747   0.491   5.232   2.073 -0.3182  0.4383 -0.6787
 4444TIP3    H234748   0.556   5.110   2.136 -2.5376  0.0692  1.0129
 4445TIP3   OH234749   1.653   3.061  14.870 -0.1091 -0.2700 -0.2366
 4445TIP3    H134750   1.582   2.999  14.887 -0.4877  0.2715  0.2194
 4445TIP3    H234751   1.733   3.009  14.874 -0.3079 -0.5088  1.5006
 4446TIP3   OH234752   0.004   1.227   6.627  0.2162  0.6142 -0.4884
 4446TIP3    H134753  -0.067   1.180   6.671  1.2247 -0.1495  0.3626
 4446TIP3    H234754  -0.002   1.316   6.661 -0.1288  0.4725 -0.1658
 4447TIP3   OH234755   4.571   3.936   1.684 -0.1902  0.0684  0.1397
 4447TIP3    H134756   4.658   3.938   1.644 -0.2125 -0.9339  0.0216
 4447TIP3    H234757   4.571   4.011   1.744  1.2560 -0.6786  1.1389
 4448TIP3   OH234758   1.231   2.497   5.556  0.0773 -0.1700 -0.4547
 4448TIP3    H134759   1.286   2.560   5.604 -0.0141 -0.9933  0.7710
 4448TIP3    H234760   1.142   2.527   5.571 -0.0612 -1.2445  1.2092
 4449TIP3   OH234761   5.427   6.419   6.146  0.0751  0.2094 -0.3796
 4449TIP3    H134762   5.497   6.485   6.149  0.7180 -0.4783  0.3188
 4449TIP3    H234763   5.464   6.347   6.096  0.1406 -0.4468  0.5835
 4450TIP3   OH234764   6.210   4.125   1.056  0.3665 -0.2611 -0.1620
 4450TIP3    H134765   6.225   4.039   1.018 -0.9120 -0.4433 -0.2802
 4450TIP3    H234766   6.261   4.125   1.137  0.1928 -1.2121 -0.0479
 4451TIP3   OH234767   4.062   0.057  14.662  0.2598  0.1854  0.2822
 4451TIP3    H134768   4.076   0.127  14.599  0.5630  0.2931  0.4643
 4451TIP3    H234769   3.979   0.080  14.705  1.0335  1.1898  1.3064
 4452TIP3   OH234770   4.825   0.637  15.413  0.2814 -0.3577 -0.2474
 4452TIP3    H134771   4.770   0.666  15.486  0.2364  1.3426 -0.9047
 4452TIP3    H234772   4.770   0.576  15.365 -0.0192 -0.7963  0.6286
 4453TIP3   OH234773   4.163   0.391   2.405  0.2974 -0.2448  0.3286
 4453TIP3    H134774   4.157   0.314   2.462  0.6529  1.1567  2.3660
 4453TIP3    H234775   4.235   0.442   2.441 -1.3731  2.1433  0.4709
 4454TIP3   OH234776   2.726   2.452   4.662  0.5170 -0.4874  0.1683
 4454TIP3    H134777   2.780   2.524   4.629  0.1584  0.3031  1.2175
 4454TIP3    H234778   2.742   2.452   4.757 -0.9426 -0.5425  0.4427
 4455TIP3   OH234779   3.277   1.811  14.919 -0.2968  0.7214  0.0689
 4455TIP3    H134780   3.221   1.757  14.863  0.7200  1.1816 -1.4526
 4455TIP3    H234781   3.255   1.901  14.897  1.2262  0.9204 -0.8312
 4456TIP3   OH234782   3.059   1.898  15.208 -0.2801 -1.0858 -0.2197
 4456TIP3    H134783   3.048   1.978  15.259  0.3196 -0.0707 -1.5929
 4456TIP3    H234784   2.970   1.866  15.194 -0.8121  0.9487 -2.0173
 4457TIP3   OH234785   2.387   5.564   3.388  0.0331  0.3050  0.2550
 4457TIP3    H134786   2.417   5.499   3.324 -0.8003  1.3786 -1.2968
 4457TIP3    H234787   2.348   5.511   3.458  0.7075 -0.9047 -0.2402
 4458TIP3   OH234788   5.488   0.254   2.761 -0.2350  0.2554  0.2743
 4458TIP3    H134789   5.409   0.295   2.798  0.1553  0.0890  1.3395
 4458TIP3    H234790   5.525   0.205   2.835 -0.5790 -1.8648 -0.8889
 4459TIP3   OH234791   4.786   0.624   0.680  0.1305  0.1984  0.0474
 4459TIP3    H134792   4.829   0.617   0.595  0.3075  1.1098  0.0581
 4459TIP3    H234793   4.857   0.623   0.744  0.0002 -0.4484  0.1935
 4460TIP3   OH234794   4.983   4.972  16.885  0.4512 -0.3632  0.0814
 4460TIP3    H134795   4.908   4.927  16.923 -0.0237 -1.1747 -1.7367
 4460TIP3    H234796   5.058   4.919  16.912  0.0865 -1.1536 -0.4364
 4461TIP3   OH234797   6.293   1.443  14.136 -0.3225 -0.1423 -0.3252
 4461TIP3    H134798   6.382   1.408  14.142 -0.5345 -0.6170  0.2408
 4461TIP3    H234799   6.247   1.404  14.211 -0.4854  1.6269  0.5439
 4462TIP3   OH234800   2.310   1.790   3.471 -0.0399 -0.1164 -0.2855
 4462TIP3    H134801   2.326   1.699   3.445  0.5893 -0.0789 -0.0523
 4462TIP3    H234802   2.259   1.827   3.399 -0.7432 -0.7929 -0.1428
 4463TIP3   OH234803   3.270   5.587  16.104  0.0981 -0.0386  0.1945
 4463TIP3    H134804   3.193   5.531  16.106 -0.4933  0.6379 -1.8013
 4463TIP3    H234805   3.238   5.671  16.071  1.7224  0.1664 -0.9576
 4464TIP3   OH234806   2.468   4.859  16.957  0.3993 -0.4653 -0.0031
 4464TIP3    H134807   2.407   4.792  16.988  2.5018 -1.5281  2.1720
 4464TIP3    H234808   2.436   4.941  16.996 -0.7746 -0.6163 -0.6178
 4465TIP3   OH234809   3.056   1.381  11.833  0.4723 -0.0794 -0.0309
 4465TIP3    H134810   2.982   1.432  11.866 -1.4048 -2.1218 -0.8340
 4465TIP3    H234811   3.020   1.330  11.761  2.7680 -0.9550 -0.6536
 4466TIP3   OH234812   3.362   1.587  11.567  0.4527  0.0858  0.0458
 4466TIP3    H134813   3.403   1.501  11.577 -1.1986 -0.6703  0.6222
 4466TIP3    H234814   3.360   1.602  11.473  0.3368 -0.7208 -0.0876
 4467TIP3   OH234815   5.884   4.974  16.038 -0.5054 -0.2792 -0.0953
 4467TIP3    H134816   5.848   5.057  16.070 -1.2205 -0.7635  0.3742
 4467TIP3    H234817   5.811   4.913  16.044  0.4976 -1.4110  1.3748
 4468TIP3   OH234818   2.136   0.856   5.396  0.3196 -0.1883  0.2962
 4468TIP3    H134819   2.161   0.862   5.488  1.6104  1.4123 -0.1182
 4468TIP3    H234820   2.208   0.809   5.354  0.6565  0.7535 -0.2022
 4469TIP3   OH234821   2.738   2.812  13.225 -0.2292 -0.2147 -0.3501
 4469TIP3    H134822   2.700   2.892  13.261 -0.7990  0.4504 -2.2940
 4469TIP3    H234823   2.799   2.782  13.293 -1.5830  0.6585  1.3274
 4470TIP3   OH234824   3.427   0.296   0.446  0.2675  0.5767  0.1764
 4470TIP3    H134825   3.335   0.322   0.451  0.2438  0.3373  1.3560
 4470TIP3    H234826   3.475   0.379   0.449  0.0954  0.7511 -1.1914
 4471TIP3   OH234827   0.006   5.532   5.260 -0.1557 -0.3150  0.5506
 4471TIP3    H134828   0.001   5.617   5.217 -1.7453  0.0383  1.3211
 4471TIP3    H234829  -0.034   5.471   5.198  3.3933 -1.1294 -1.1894
 4472TIP3   OH234830   1.818   5.079   0.903 -0.1787  0.5548  0.0182
 4472TIP3    H134831   1.777   5.166   0.902  1.4427  1.4071  1.7045
 4472TIP3    H234832   1.821   5.054   0.995 -1.1426 -1.6189 -0.4684
 4473TIP3   OH234833   2.205   6.768   1.661 -0.0334  0.1467  0.3821
 4473TIP3    H134834   2.275   6.744   1.600 -0.4189  1.4171 -0.6211
 4473TIP3    H234835   2.216   6.708   1.735  1.9950  0.1946  0.1844
 4474TIP3   OH234836   6.016   4.447   5.022 -0.5221  0.0163 -0.0716
 4474TIP3    H134837   6.004   4.353   5.033 -0.8159  0.1109  0.4672
 4474TIP3    H234838   5.949   4.487   5.079  0.5998  0.5512  0.9238
 4475TIP3   OH234839   0.149   3.101   5.483 -0.4920  0.2681 -0.2171
 4475TIP3    H134840   0.194   3.157   5.547  1.1388 -1.4371  0.2190
 4475TIP3    H234841   0.192   3.121   5.399  0.6345 -0.8286  0.0723
 4476TIP3   OH234842   3.107   1.312  16.131  0.3247 -0.4567  0.2096
 4476TIP3    H134843   3.160   1.381  16.172 -0.6509  0.6259 -0.2928
 4476TIP3    H234844   3.040   1.291  16.196 -2.6781  2.9007 -1.4327
 4477TIP3   OH234845   0.958   3.226  16.490  0.4092  0.0819  0.1573
 4477TIP3    H134846   0.881   3.276  16.463  0.9564  1.5269  1.1037
 4477TIP3    H234847   1.023   3.245  16.423 -0.1051 -1.3190 -0.7615
 4478TIP3   OH234848   6.465   1.625   0.672 -0.4507  0.2410  0.7171
 4478TIP3    H134849   6.462   1.546   0.618  2.7470  0.2960  0.2616
 4478TIP3    H234850   6.434   1.596   0.758 -0.0018 -1.3672  0.3725
 4479TIP3   OH234851   6.057   5.973   4.646 -0.3022  0.1235  0.0879
 4479TIP3    H134852   5.999   6.000   4.717 -0.7517  0.3761 -0.3690
 4479TIP3    H234853   6.103   6.053   4.621 -0.0873  0.0183  0.1475
 4480TIP3   OH234854   5.333   0.687   0.254 -0.5021 -0.3916 -0.5694
 4480TIP3    H134855   5.419   0.705   0.290 -1.3462  0.1721  1.2810
 4480TIP3    H234856   5.316   0.596   0.275 -0.7063 -0.2608 -0.1638
 4481TIP3   OH234857   5.294   5.489  10.330 -0.2654 -0.0302 -0.8411
 4481TIP3    H134858   5.347   5.484  10.251 -1.2833 -0.0345 -1.5517
 4481TIP3    H234859   5.216   5.538  10.303 -0.9680 -0.6685 -0.0509
 4482TIP3   OH234860   0.229   6.276   0.837 -0.8470  0.2579  0.0402
 4482TIP3    H134861   0.242   6.253   0.745 -2.8100  1.6136 -0.6310
 4482TIP3    H234862   0.157   6.220   0.866 -0.0771 -0.3389  0.8631
 4483TIP3   OH234863   5.971   2.004  11.746 -0.2841  0.4149 -0.1239
 4483TIP3    H134864   5.979   1.984  11.839 -0.8812  0.7935  0.0131
 4483TIP3    H234865   5.934   2.092  11.744  0.7824  0.8678 -0.7173
 4484TIP3   OH234866   6.570   6.381  12.750 -0.5452 -0.2439  0.4348
 4484TIP3    H134867   6.583   6.291  12.780 -2.0412 -1.0087 -1.0754
 4484TIP3    H234868   6.658   6.413  12.729 -0.1458 -1.9730 -0.6889
 4485TIP3   OH234869   2.094   5.051  12.539  0.2341 -0.2845  0.4864
 4485TIP3    H134870   2.131   5.095  12.463  1.3734  0.1168  1.2514
 4485TIP3    H234871   2.006   5.025  12.511  0.5444  0.0548 -0.8794
 4486TIP3   OH234872   3.172   4.599   6.012  0.1420  0.4013  0.0165
 4486TIP3    H134873   3.175   4.530   5.945  1.7741  0.2510  0.2117
 4486TIP3    H234874   3.173   4.552   6.095 -2.5624  0.5589  0.2250
 4487TIP3   OH234875   3.655   1.897  15.755 -0.0290  0.7507 -0.0878
 4487TIP3    H134876   3.593   1.957  15.796 -0.7849  0.7106 -1.1452
 4487TIP3    H234877   3.736   1.948  15.747 -0.5009  1.4484 -0.4782
 4488TIP3   OH234878   5.667   1.264  15.903 -0.1204  0.2968 -0.5865
 4488TIP3    H134879   5.649   1.357  15.914  0.3465  0.6882 -2.6501
 4488TIP3    H234880   5.734   1.244  15.968  0.6901  1.7259 -0.9499
 4489TIP3   OH234881   3.757   5.901   1.499 -0.7096 -0.2343 -0.1465
 4489TIP3    H134882   3.670   5.877   1.530 -0.2178 -0.7840  0.8442
 4489TIP3    H234883   3.817   5.850   1.553  0.2795  1.2090  0.1763
 4490TIP3   OH234884   3.258   5.745   2.547  0.7037  0.7512  0.1968
 4490TIP3    H134885   3.289   5.705   2.629 -0.7451 -0.0788  0.3766
 4490TIP3    H234886   3.258   5.839   2.565 -1.6609  0.4956  1.9715
 4491TIP3   OH234887   0.269   3.346   3.003 -0.1315 -0.4602 -0.1510
 4491TIP3    H134888   0.317   3.362   2.922 -0.5048  1.0033 -0.1126
 4491TIP3    H234889   0.249   3.253   3.001  2.9641 -1.2417 -0.0110
 4492TIP3   OH234890   6.099   6.332  11.963 -0.0199  0.4339  0.1000
 4492TIP3    H134891   6.092   6.362  11.873  0.0110  1.4037  0.4183
 4492TIP3    H234892   6.013   6.295  11.983  0.3932 -1.1212 -0.7768
 4493TIP3   OH234893   1.527   3.055   0.911 -0.5487  0.3232 -0.4332
 4493TIP3    H134894   1.480   3.139   0.914  0.2528  0.7787  2.2256
 4493TIP3    H234895   1.458   2.990   0.900 -1.8556  1.0191  2.6035
 4494TIP3   OH234896   6.641   0.642  14.682  0.1780  0.0002 -0.1611
 4494TIP3    H134897   6.697   0.566  14.667 -0.2789 -1.0917  2.9870
 4494TIP3    H234898   6.650   0.661  14.775 -0.7871  3.0088 -0.5798
 4495TIP3   OH234899   1.188   4.152   4.376  0.5025 -0.0919  0.2236
 4495TIP3    H134900   1.126   4.086   4.345  0.3792  0.6938 -1.3156
 4495TIP3    H234901   1.143   4.196   4.448  0.6712 -1.7817  1.4183
 4496TIP3   OH234902   1.567   4.911   2.158 -0.3349  0.1765  0.3063
 4496TIP3    H134903   1.527   4.845   2.102  0.8546  0.4921 -0.9974
 4496TIP3    H234904   1.539   4.994   2.121  0.6441  0.3913  0.0201
 4497TIP3   OH234905   4.784   5.008  13.620  0.5055 -0.1096 -0.1295
 4497TIP3    H134906   4.768   5.077  13.684  1.4316 -0.0064 -0.0005
 4497TIP3    H234907   4.704   5.005  13.567  0.3869  0.9343 -0.0194
 4498TIP3   OH234908   6.232   4.802   5.324  0.2657  0.0881  0.0241
 4498TIP3    H134909   6.252   4.891   5.293 -1.1298  1.2307  2.1085
 4498TIP3    H234910   6.138   4.791   5.305  0.5867 -1.2878 -0.9055
 4499TIP3   OH234911   6.781   4.971   3.909 -0.2059 -0.3004  0.0638
 4499TIP3    H134912   6.754   4.979   3.817  0.3039  1.8262  0.0475
 4499TIP3    H234913   6.870   4.937   3.905 -0.3475 -0.6391 -0.2152
 4500TIP3   OH234914   2.497   5.596  15.259 -0.0928  0.0257  0.1979
 4500TIP3    H134915   2.494   5.528  15.192  0.4356 -1.3620  1.5277
 4500TIP3    H234916   2.406   5.610  15.284 -0.3964  1.2452 -1.4228
 4501TIP3   OH234917   0.739   3.546   2.149  0.5226  0.1960  0.4668
 4501TIP3    H134918   0.821   3.571   2.107  0.7176 -1.3011 -0.1009
 4501TIP3    H234919   0.731   3.452   2.132 -1.9105  0.5056 -0.5844
 4502TIP3   OH234920   5.996   5.064   2.836  0.2920 -0.3673 -0.0055
 4502TIP3    H134921   6.083   5.103   2.834  0.4620 -0.7319  0.1415
 4502TIP3    H234922   6.011   4.971   2.815 -0.2275 -0.1371 -1.5376
 4503TIP3   OH234923   4.810   0.348  11.655 -0.2890 -0.1694  0.2551
 4503TIP3    H134924   4.897   0.314  11.635 -1.0154 -1.4898 -0.8587
 4503TIP3    H234925   4.755   0.270  11.661 -1.6175  0.6932 -0.2429
 4504TIP3   OH234926   4.669   0.766   1.195 -0.2069  0.4441  0.0707
 4504TIP3    H134927   4.681   0.790   1.103  1.7539 -0.2214  0.1050
 4504TIP3    H234928   4.753   0.727   1.220 -0.9609 -0.0444  1.9441
 4505TIP3   OH234929   1.713   0.041  12.340  0.1212  0.2067  0.5149
 4505TIP3    H134930   1.756   0.093  12.273  1.2318 -0.0460  1.0094
 4505TIP3    H234931   1.748   0.075  12.423 -0.8438  0.1815  0.9474
 4506TIP3   OH234932   5.659   2.527   2.305  0.3593  0.1245 -0.2460
 4506TIP3    H134933   5.659   2.449   2.249  0.0413  0.6835 -1.0358
 4506TIP3    H234934   5.627   2.597   2.248  2.5738  1.2805 -0.1425
 4507TIP3   OH234935   6.459   1.430  12.484  0.4867 -0.6361  0.3021
 4507TIP3    H134936   6.537   1.376  12.472 -1.2194 -3.0347 -0.7326
 4507TIP3    H234937   6.410   1.421  12.402 -0.2461  1.9652  0.3692
 4508TIP3   OH234938   6.601   1.649   3.600  0.0002  0.2275 -0.1660
 4508TIP3    H134939   6.579   1.707   3.673 -2.4972 -0.0856 -0.5605
 4508TIP3    H234940   6.575   1.561   3.630  1.4391 -0.3352 -0.4769
 4509TIP3   OH234941   0.418   1.954   5.820 -0.3677  0.1078  0.0354
 4509TIP3    H134942   0.372   1.959   5.737 -0.7549 -0.7641  0.1926
 4509TIP3    H234943   0.389   2.032   5.868 -0.5411  0.3380 -0.4401
 4510TIP3   OH234944   0.068   4.109   4.977  0.1496  0.2183 -0.1983
 4510TIP3    H134945  -0.027   4.114   4.962  0.3044  0.6123 -1.0881
 4510TIP3    H234946   0.103   4.189   4.937  0.8569  0.1170  0.1981
 4511TIP3   OH234947   0.112   5.898  14.087 -0.1401 -0.2254 -0.0370
 4511TIP3    H134948   0.050   5.840  14.045 -0.7542  0.2271  0.2319
 4511TIP3    H234949   0.198   5.871  14.054 -0.2203 -2.3673  1.3340
 4512TIP3   OH234950   5.855   5.527   0.004 -0.0547  0.5266  0.0471
 4512TIP3    H134951   5.921   5.596   0.005  2.1206 -1.4463  1.5235
 4512TIP3    H234952   5.886   5.463   0.067 -2.5186 -1.3580 -0.5064
 4513TIP3   OH234953   2.084   6.167  14.426  0.0745  0.3613  0.3056
 4513TIP3    H134954   2.086   6.262  14.426  0.8571  0.3500  0.1211
 4513TIP3    H234955   2.097   6.142  14.517 -0.0660  0.4268  0.3440
 4514TIP3   OH234956   2.827   2.479  13.301 -0.4775  0.5893 -0.2120
 4514TIP3    H134957   2.733   2.487  13.317 -0.2045  2.0471  0.9699
 4514TIP3    H234958   2.862   2.566  13.322  1.3559 -0.3790  1.0980
 4515TIP3   OH234959   6.108   3.567   5.450  0.1430 -0.3107  0.5503
 4515TIP3    H134960   6.134   3.488   5.401  1.6750 -0.5735  1.7149
 4515TIP3    H234961   6.138   3.639   5.396 -0.8250 -0.5110 -0.2888
 4516TIP3   OH234962   0.406   6.736  14.114 -0.7050  0.2893 -0.0270
 4516TIP3    H134963   0.397   6.643  14.091  0.8835 -0.5802  2.4768
 4516TIP3    H234964   0.491   6.742  14.157 -0.0205  3.2965 -1.5525
 4517TIP3   OH234965   0.608   5.262  11.322 -0.2799 -0.0792  0.1017
 4517TIP3    H134966   0.677   5.329  11.320 -0.5701  0.4014  2.6736
 4517TIP3    H234967   0.654   5.179  11.315  0.5914  0.2455  1.6177
 4518TIP3   OH234968   0.765   2.665  16.680 -0.3171 -0.0640 -0.0343
 4518TIP3    H134969   0.809   2.731  16.733 -1.0877  1.2316 -0.9612
 4518TIP3    H234970   0.815   2.663  16.598 -0.7195 -0.1195 -0.2812
 4519TIP3   OH234971   4.159   0.851   1.592  0.5363 -0.3359  0.6999
 4519TIP3    H134972   4.072   0.819   1.568  0.5375  0.3880 -0.3199
 4519TIP3    H234973   4.176   0.812   1.678  0.0904 -2.2096  0.0007
 4520TIP3   OH234974   3.360   6.771   4.985  0.3383  0.1487 -0.3697
 4520TIP3    H134975   3.399   6.858   4.977  0.0356  0.2522 -0.7254
 4520TIP3    H234976   3.423   6.713   4.942  0.7789  0.1154  0.2952
 4521TIP3   OH234977   6.634   6.138   1.679  0.4624  0.0132 -0.3894
 4521TIP3    H134978   6.547   6.156   1.643  0.1631  0.5295  0.5420
 4521TIP3    H234979   6.635   6.185   1.763  2.5278  2.1813 -1.4925
 4522TIP3   OH234980   0.894   0.823  16.917 -0.0913 -0.2031 -0.4853
 4522TIP3    H134981   0.852   0.862  16.840 -4.6146 -2.0342  0.7332
 4522TIP3    H234982   0.903   0.730  16.895 -1.1334 -0.6913  0.9597
 4523TIP3   OH234983   1.498   3.285  14.502  0.1790 -0.9982 -0.6057
 4523TIP3    H134984   1.526   3.377  14.504 -0.4348 -0.7563 -1.9214
 4523TIP3    H234985   1.496   3.263  14.409 -1.1831 -1.8744 -0.3985
 4524TIP3   OH234986   0.696   5.330   3.242  0.1401  0.3392 -0.1191
 4524TIP3    H134987   0.628   5.266   3.222 -0.4997  1.5027 -1.9191
 4524TIP3    H234988   0.687   5.346   3.336 -1.2049 -0.5028 -0.0780
 4525TIP3   OH234989   2.028   2.250  11.696 -0.1957 -0.2041 -0.2462
 4525TIP3    H134990   1.934   2.266  11.690  0.1349  1.5732 -1.7336
 4525TIP3    H234991   2.051   2.209  11.612  0.5424  0.7118 -0.5174
 4526TIP3   OH234992   6.734   0.690   5.986 -0.3758 -0.4787 -0.0052
 4526TIP3    H134993   6.810   0.702   5.929 -1.4388  2.8949 -0.9085
 4526TIP3    H234994   6.771   0.675   6.073  1.3040  0.2405 -0.5672
 4527TIP3   OH234995   3.815   2.159  17.045  0.2284  0.3914 -0.3740
 4527TIP3    H134996   3.905   2.188  17.063  0.2866 -0.2792  0.4480
 4527TIP3    H234997   3.768   2.240  17.025  0.4000  1.1053  1.8337
 4528TIP3   OH234998   3.693   1.249  16.588  0.3951  0.5398  0.0942
 4528TIP3    H134999   3.615   1.210  16.626  0.6466  0.5124  0.5864
 4528TIP3    H235000   3.665   1.279  16.501 -0.4281  1.4034  0.6324
 4529TIP3   OH235001   4.743   4.100   1.944  0.5502  0.2291  0.0652
 4529TIP3    H135002   4.674   4.133   1.887 -0.3818 -3.0835 -0.9487
 4529TIP3    H235003   4.824   4.126   1.901 -0.0114  2.3924  0.1747
 4530TIP3   OH235004   4.490   1.626  16.467 -0.1132 -0.2894  0.1235
 4530TIP3    H135005   4.507   1.532  16.465 -1.1203 -0.4801 -1.6177
 4530TIP3    H235006   4.426   1.638  16.537  0.4935 -0.8027  0.7673
 4531TIP3   OH235007   3.950   4.419  12.530 -0.1923  0.3594  0.3208
 4531TIP3    H135008   3.915   4.459  12.610 -2.1702  1.3209 -0.9376
 4531TIP3    H235009   3.876   4.370  12.494  0.6665 -0.0546 -0.9369
 4532TIP3   OH235010   1.351   3.274   5.364  0.0189  0.0507 -0.4627
 4532TIP3    H135011   1.304   3.221   5.299  1.2228 -2.2404  0.4223
 4532TIP3    H235012   1.283   3.323   5.410 -0.9965  0.5014 -2.3561
 4533TIP3   OH235013   3.169   4.582   6.503 -0.3263 -0.1740 -0.4769
 4533TIP3    H135014   3.098   4.643   6.481  1.9984  3.0362  0.2535
 4533TIP3    H235015   3.166   4.577   6.598 -1.1683 -2.2131 -0.5688
 4534TIP3   OH235016   2.593   0.912  12.251  0.0266 -0.2075  0.0539
 4534TIP3    H135017   2.589   1.005  12.276  0.3016 -0.2063  0.0920
 4534TIP3    H235018   2.630   0.912  12.163 -0.5065 -0.2440 -0.1698
 4535TIP3   OH235019   1.115   0.208  14.231  0.0528 -0.7097 -0.4285
 4535TIP3    H135020   1.088   0.158  14.154 -3.1034  1.2568 -0.7618
 4535TIP3    H235021   1.078   0.295  14.218  1.9432  0.5934  1.9800
 4536TIP3   OH235022   3.020   3.716  12.973  0.0517  0.1880  0.7298
 4536TIP3    H135023   3.068   3.681  13.048 -0.0697 -1.9029 -0.0999
 4536TIP3    H235024   2.988   3.639  12.927 -1.9346  1.4720 -0.1745
 4537TIP3   OH235025   1.958   5.343  17.058  0.2626  0.3173  0.3313
 4537TIP3    H135026   1.977   5.389  17.140  0.2997  0.4698  0.2375
 4537TIP3    H235027   2.039   5.349  17.008  0.6702 -0.9119  0.8169
 4538TIP3   OH235028   3.204   4.821   5.111  0.3293 -0.1874  0.2357
 4538TIP3    H135029   3.223   4.733   5.078  0.6266  0.4735 -1.4475
 4538TIP3    H235030   3.269   4.835   5.181  0.0527 -1.4121  0.7621
 4539TIP3   OH235031   6.081   3.365   1.402  0.1411  0.7612  0.0661
 4539TIP3    H135032   6.091   3.405   1.488  1.0267  0.3550  0.1669
 4539TIP3    H235033   6.148   3.297   1.400 -1.5446 -1.0009  0.0656
 4540TIP3   OH235034   5.725   1.663  17.014 -0.1144 -0.5118  0.2872
 4540TIP3    H135035   5.640   1.621  17.020  0.2337 -1.5994 -1.6037
 4540TIP3    H235036   5.706   1.751  16.981 -0.5209 -0.7002  0.0165
 4541TIP3   OH235037   4.298   1.055   6.482  0.1286  0.3157  1.1068
 4541TIP3    H135038   4.380   1.097   6.456  0.3959 -1.2569 -0.8183
 4541TIP3    H235039   4.235   1.127   6.486  0.8151  1.1058 -0.9835
 4542TIP3   OH235040   3.872   6.386  12.595  0.1823  0.1463 -0.2296
 4542TIP3    H135041   3.824   6.417  12.519  0.4852  0.7814 -0.1710
 4542TIP3    H235042   3.923   6.462  12.624 -1.7307  0.7137  2.0525
 4543TIP3   OH235043   1.228   0.359   0.992 -0.3978 -0.0886 -0.0963
 4543TIP3    H135044   1.256   0.441   1.034  1.0709 -0.7011  0.1897
 4543TIP3    H235045   1.205   0.385   0.903 -0.5213  0.7261  0.1617
 4544TIP3   OH235046   5.848   1.109  12.045  0.4005 -0.5247 -0.2655
 4544TIP3    H135047   5.910   1.178  12.068 -0.2520 -0.4830  1.4980
 4544TIP3    H235048   5.765   1.138  12.083 -0.3845 -1.2761 -1.3408
 4545TIP3   OH235049   3.700   2.255  13.576  0.0438  0.5830  0.3783
 4545TIP3    H135050   3.714   2.344  13.608 -0.6535  0.7976  0.1109
 4545TIP3    H235051   3.757   2.201  13.631  1.1870  1.2864 -0.0740
 4546TIP3   OH235052   5.649   2.146  11.631  0.2278 -0.1870 -0.4575
 4546TIP3    H135053   5.731   2.185  11.602  1.8860 -4.2568 -1.9968
 4546TIP3    H235054   5.588   2.161  11.559 -0.0053  1.5736  0.0616
 4547TIP3   OH235055   6.244   1.755  11.620  0.3316  0.6242 -0.0109
 4547TIP3    H135056   6.151   1.778  11.618  0.1871  0.0020 -0.7244
 4547TIP3    H235057   6.284   1.823  11.674 -0.6791  0.3584  1.0958
 4548TIP3   OH235058   5.910   5.012   3.710  0.5218 -0.2295 -0.3915
 4548TIP3    H135059   5.865   4.946   3.762  0.8469 -0.3680 -0.2813
 4548TIP3    H235060   5.973   5.052   3.771  1.0133 -0.4994 -0.7123
 4549TIP3   OH235061   4.801   0.425  15.780  0.0428 -0.1945  0.4396
 4549TIP3    H135062   4.875   0.467  15.825 -0.7589  1.6000  0.1481
 4549TIP3    H235063   4.737   0.408  15.849  0.1998 -0.6052  0.4904
 4550TIP3   OH235064   1.463   6.038   2.335 -0.2240  0.2417  0.2117
 4550TIP3    H135065   1.509   6.004   2.412 -0.3459 -0.8620 -0.1839
 4550TIP3    H235066   1.376   6.060   2.367 -0.0394  0.4932  0.5472
 4551TIP3   OH235067   3.014   1.244  16.945 -0.1794 -0.0400 -0.2789
 4551TIP3    H135068   3.022   1.169  17.004  1.0354 -1.1776 -1.7907
 4551TIP3    H235069   2.924   1.238  16.912 -1.1507  1.0769  1.9499
 4552TIP3   OH235070   4.282   4.278  10.404  0.0103 -0.1902 -0.7366
 4552TIP3    H135071   4.302   4.367  10.433  1.2475  0.0958 -2.3499
 4552TIP3    H235072   4.342   4.262  10.332 -2.2843 -1.2036 -2.5408
 4553TIP3   OH235073   0.726   4.442   3.163 -0.2535 -0.0778 -0.0176
 4553TIP3    H135074   0.667   4.474   3.094  0.3224 -2.9557 -2.0056
 4553TIP3    H235075   0.811   4.479   3.140 -0.2729 -0.1353 -0.1819
 4554TIP3   OH235076   6.048   5.273   0.748  0.7500  0.5143  0.1294
 4554TIP3    H135077   6.035   5.359   0.787 -0.0998  1.5564 -2.2751
 4554TIP3    H235078   6.134   5.277   0.708 -0.1255  1.0553 -1.7954
 4555TIP3   OH235079   5.545   4.849   3.986  0.3204 -0.3378  0.0322
 4555TIP3    H135080   5.506   4.929   4.021  1.8978 -0.1587  1.5232
 4555TIP3    H235081   5.613   4.879   3.925 -0.6095 -0.6113 -1.1720
 4556TIP3   OH235082   0.697   4.539  12.218 -0.2754  0.4590  0.1334
 4556TIP3    H135083   0.720   4.483  12.292  0.0826  1.1660  0.5711
 4556TIP3    H235084   0.761   4.517  12.151  1.0189  1.6048  0.9451
 4557TIP3   OH235085   0.261   4.978   1.389 -0.3934  0.2761  0.1812
 4557TIP3    H135086   0.285   4.892   1.423  1.0324 -0.1129 -1.6389
 4557TIP3    H235087   0.236   4.961   1.298  0.4886  1.8370 -0.3969
 4558TIP3   OH235088   0.726   1.802  10.765  0.3496 -0.3490  0.0173
 4558TIP3    H135089   0.665   1.778  10.834 -1.1045  1.4623 -0.5725
 4558TIP3    H235090   0.764   1.719  10.736  0.6969 -1.1981  2.6647
 4559TIP3   OH235091   0.342   2.543  12.385  0.1356 -0.1427  0.0898
 4559TIP3    H135092   0.260   2.512  12.423  0.3465 -0.4481  0.3024
 4559TIP3    H235093   0.325   2.548  12.291 -0.3544  0.5097  0.2014
 4560TIP3   OH235094   4.732   3.548  14.800 -0.0339 -0.0217 -0.3115
 4560TIP3    H135095   4.668   3.510  14.860 -1.2832  2.8816  0.3443
 4560TIP3    H235096   4.719   3.500  14.718 -0.3738 -2.0403  0.8536
 4561TIP3   OH235097   3.517   3.969   2.801 -0.0989  0.0282  0.4773
 4561TIP3    H135098   3.605   4.005   2.807 -0.5735  1.0170  2.0733
 4561TIP3    H235099   3.516   3.922   2.718  1.7253  0.5345  0.1283
 4562TIP3   OH235100   1.393   3.661   0.074  0.1100 -0.4661 -0.1510
 4562TIP3    H135101   1.426   3.641   0.161 -3.8533 -1.6410  1.2865
 4562TIP3    H235102   1.402   3.756   0.066  1.1934 -0.4251  1.1783
 4563TIP3   OH235103   0.886   4.894   1.605 -0.2700 -0.3921  0.3578
 4563TIP3    H135104   0.910   4.975   1.651 -2.1686 -0.0152  0.7708
 4563TIP3    H235105   0.856   4.835   1.674  0.7316 -1.3547  0.0109
 4564TIP3   OH235106   5.399   1.104  11.947 -0.8852  0.3507 -0.1930
 4564TIP3    H135107   5.430   1.187  11.985 -0.5074 -0.0684  0.4263
 4564TIP3    H235108   5.310   1.124  11.918 -0.7612  1.0090 -0.1423
 4565TIP3   OH235109   6.130   3.607   6.550 -0.4871 -0.1948 -0.0184
 4565TIP3    H135110   6.118   3.656   6.468 -1.5723 -0.3762  0.0118
 4565TIP3    H235111   6.172   3.669   6.609  0.4494 -0.1049 -0.7487
 4566TIP3   OH235112   2.296   3.007  11.440 -0.0080 -0.4884 -0.3834
 4566TIP3    H135113   2.296   3.095  11.403  1.6479 -0.8836 -1.4303
 4566TIP3    H235114   2.214   2.968  11.410 -0.9588  0.7895  0.4279
 4567TIP3   OH235115   3.049   6.155   1.873  0.8012  0.5170  0.0185
 4567TIP3    H135116   3.100   6.138   1.952  1.5702 -0.3828 -0.6472
 4567TIP3    H235117   2.964   6.186   1.905  1.1685  0.3611  1.1798
 4568TIP3   OH235118   5.355   0.598   3.468 -0.7434  0.3309 -0.6418
 4568TIP3    H135119   5.267   0.562   3.463 -0.4375 -1.4136  3.3050
 4568TIP3    H235120   5.393   0.581   3.381 -3.0746 -2.2063 -1.2955
 4569TIP3   OH235121   0.409   6.455  15.704 -0.5559  0.4115  1.1913
 4569TIP3    H135122   0.374   6.487  15.621 -0.7457  0.7221  1.3909
 4569TIP3    H235123   0.391   6.525  15.767  2.1482  1.4484  0.9101
 4570TIP3   OH235124   2.383   4.782  16.502  0.1994 -1.0059  0.6352
 4570TIP3    H135125   2.471   4.743  16.502  0.8832  0.4261 -0.3379
 4570TIP3    H235126   2.347   4.759  16.417  0.3758 -0.0802  0.2938
 4571TIP3   OH235127   2.851   2.437  13.878 -0.1046 -0.6625 -0.2338
 4571TIP3    H135128   2.940   2.407  13.896  0.5972  1.4450  0.0854
 4571TIP3    H235129   2.844   2.436  13.783 -0.0958 -1.7125 -0.2385
 4572TIP3   OH235130   1.112   2.711   0.866  0.2569  0.3697  0.1190
 4572TIP3    H135131   1.166   2.765   0.923 -1.1844  1.2683  0.6806
 4572TIP3    H235132   1.103   2.762   0.786  1.1335 -0.2813 -0.4190
 4573TIP3   OH235133   6.302   2.904  13.963  0.4605 -0.4271  0.4193
 4573TIP3    H135134   6.358   2.855  14.023  0.9308 -2.4368 -1.5098
 4573TIP3    H235135   6.268   2.838  13.903 -1.5569  1.1893 -0.3551
 4574TIP3   OH235136   2.427   1.523  16.028 -0.0365  0.7074  0.8755
 4574TIP3    H135137   2.344   1.558  15.996  1.4502  2.6197 -1.1703
 4574TIP3    H235138   2.455   1.462  15.961 -0.1997 -0.6730  2.0278
 4575TIP3   OH235139   2.932   3.959   3.640  0.2547  0.4627 -0.1579
 4575TIP3    H135140   2.923   3.999   3.553  0.4302 -0.3816 -0.5741
 4575TIP3    H235141   2.970   3.873   3.623  0.6051  0.4197  0.7916
 4576TIP3   OH235142   5.093   6.019  11.865 -0.8964  0.4481  0.1612
 4576TIP3    H135143   5.128   6.108  11.858  0.7644 -0.1503  0.2945
 4576TIP3    H235144   5.162   5.964  11.828 -2.4227 -0.7038 -1.0697
 4577TIP3   OH235145   3.409   6.054   1.406 -0.0572 -0.1810 -0.1231
 4577TIP3    H135146   3.422   6.090   1.493  1.2868  0.5376 -0.6018
 4577TIP3    H235147   3.315   6.066   1.389 -0.0252  1.2236  0.5544
 4578TIP3   OH235148   5.067   6.127   5.853  0.0223 -0.4764  0.2095
 4578TIP3    H135149   5.002   6.190   5.821  1.4283 -0.3287 -2.6593
 4578TIP3    H235150   5.126   6.179   5.908  0.1596  0.3630 -0.6951
 4579TIP3   OH235151   3.719   5.083  12.440 -0.0230  0.5790 -0.0750
 4579TIP3    H135152   3.737   5.141  12.365  0.3330 -0.9888 -1.2579
 4579TIP3    H235153   3.787   5.105  12.504 -0.4541  2.0941 -0.0841
 4580TIP3   OH235154   6.377   0.536  11.740 -1.1255 -0.2140  0.5133
 4580TIP3    H135155   6.337   0.618  11.710 -0.6028  0.3175  1.2139
 4580TIP3    H235156   6.461   0.564  11.778 -1.3299 -0.9632  1.5537
 4581TIP3   OH235157   0.440   2.992   0.282  0.6951 -0.5959  0.3342
 4581TIP3    H135158   0.378   2.978   0.210  0.4345 -1.3949  0.7078
 4581TIP3    H235159   0.389   3.034   0.350  1.3643  1.9391 -0.6041
 4582TIP3   OH235160   2.201   0.329   2.257 -0.0470 -0.4112 -0.4172
 4582TIP3    H135161   2.277   0.382   2.279 -1.0783  0.8248  0.3492
 4582TIP3    H235162   2.204   0.320   2.162  0.5880  0.3411 -0.4713
 4583TIP3   OH235163   2.942   5.731  17.077  0.4159  0.4998  0.1989
 4583TIP3    H135164   2.968   5.650  17.121 -1.0812 -0.3108 -0.3438
 4583TIP3    H235165   2.944   5.709  16.984 -1.8929  0.4432  0.1146
 4584TIP3   OH235166   3.945   3.385   2.398  0.0456  0.0706  0.3648
 4584TIP3    H135167   4.028   3.387   2.351  0.5527 -3.6517  0.8018
 4584TIP3    H235168   3.883   3.346   2.337 -0.6283  0.1637  0.9739
 4585TIP3   OH235169   1.003   1.553   4.911  0.0503 -0.0821  0.2892
 4585TIP3    H135170   1.064   1.611   4.865  0.7369 -1.2725 -0.3483
 4585TIP3    H235171   1.052   1.472   4.924 -1.3380 -1.0228 -0.1229
 4586TIP3   OH235172   6.460   1.654  13.653  0.4798  0.3070  0.5365
 4586TIP3    H135173   6.440   1.568  13.617  1.2190 -0.5901  2.1722
 4586TIP3    H235174   6.378   1.702  13.647  0.3019 -0.1496 -1.2960
 4587TIP3   OH235175   2.232   5.476  15.900  0.3061 -0.0078 -0.8062
 4587TIP3    H135176   2.307   5.418  15.885  1.2232  0.9627 -0.1347
 4587TIP3    H235177   2.254   5.524  15.979 -1.9386 -1.0891  0.5832
 4588TIP3   OH235178   1.438   6.121   1.417  0.4703  0.2799 -0.4583
 4588TIP3    H135179   1.415   6.208   1.386  1.9617  1.2244  0.9673
 4588TIP3    H235180   1.478   6.135   1.503  2.1120 -1.6680 -0.8296
 4589TIP3   OH235181   2.543   3.109   1.175  0.2159  0.4329  0.0865
 4589TIP3    H135182   2.534   3.036   1.237  2.9210 -0.3556 -0.3244
 4589TIP3    H235183   2.492   3.081   1.099 -0.2640 -0.1774  0.6152
 4590TIP3   OH235184   0.289   3.902   6.614 -0.2379  0.2616  0.5759
 4590TIP3    H135185   0.321   3.938   6.531  0.7981  0.7045  1.1544
 4590TIP3    H235186   0.194   3.895   6.602 -0.0527 -0.1967 -0.8433
 4591TIP3   OH235187   2.750   1.431  13.551 -0.0461  0.8589  0.2046
 4591TIP3    H135188   2.687   1.372  13.593 -1.9596  2.2014 -0.5986
 4591TIP3    H235189   2.736   1.515  13.593  1.1462  1.2282 -0.0989
 4592TIP3   OH235190   5.881   0.679  11.981  0.5758 -0.7439 -0.4412
 4592TIP3    H135191   5.837   0.597  12.002  1.5209 -1.1499  0.0359
 4592TIP3    H235192   5.891   0.723  12.065  1.5074 -0.8955 -0.4604
 4593TIP3   OH235193   6.398   4.984   2.649 -0.0671 -1.1605  0.7904
 4593TIP3    H135194   6.341   4.989   2.573  1.0418  0.7416  0.0236
 4593TIP3    H235195   6.351   5.033   2.717 -0.0796 -0.9791  0.6529
 4594TIP3   OH235196   6.369   4.663   1.419 -0.3078 -0.1670 -0.0327
 4594TIP3    H135197   6.428   4.597   1.382 -0.8626 -0.5199 -0.3026
 4594TIP3    H235198   6.315   4.690   1.345 -0.0220  0.6725  0.0511
 4595TIP3   OH235199   4.284   4.187   5.024 -0.7374  0.5054 -0.2908
 4595TIP3    H135200   4.297   4.178   4.929  1.0566  0.5780 -0.0832
 4595TIP3    H235201   4.234   4.268   5.034 -0.2361  0.9309 -1.1457
 4596TIP3   OH235202   1.950   5.622  14.025  0.0034 -0.1458  0.5957
 4596TIP3    H135203   1.955   5.686  13.954  0.4452 -0.9834 -0.1361
 4596TIP3    H235204   2.001   5.547  13.994 -0.1490 -0.6883  1.6209
 4597TIP3   OH235205   6.642   3.250   3.542 -0.3363  0.2126  0.0862
 4597TIP3    H135206   6.658   3.166   3.498 -1.5771  0.2944 -0.5794
 4597TIP3    H235207   6.596   3.226   3.622  0.5463  0.1733  0.5913
 4598TIP3   OH235208   2.913   5.182   2.848  0.0125 -0.4282  0.0579
 4598TIP3    H135209   2.864   5.259   2.877 -1.1237 -0.8902 -0.5664
 4598TIP3    H235210   2.861   5.146   2.776  1.1424 -1.1023 -0.4503
 4599TIP3   OH235211   6.048   3.382   4.794 -0.1156  0.6619 -0.5884
 4599TIP3    H135212   5.992   3.457   4.812  1.4181  2.1726 -1.7325
 4599TIP3    H235213   6.043   3.371   4.699  0.4112 -0.0757 -0.5360
 4600TIP3   OH235214   1.129   4.206   1.667 -0.1524 -0.1186 -0.1479
 4600TIP3    H135215   1.119   4.173   1.577  0.0659 -1.0730  0.1674
 4600TIP3    H235216   1.201   4.270   1.661 -0.4016  0.1147 -0.7203
 4601TIP3   OH235217   5.693   3.498   5.656  0.0743 -0.0272  0.2150
 4601TIP3    H135218   5.768   3.440   5.641  1.1907  0.8734  1.9876
 4601TIP3    H235219   5.714   3.577   5.607  0.4471  0.3332  0.9399
 4602TIP3   OH235220   5.263   6.722   1.352  0.0568 -0.1639  0.7650
 4602TIP3    H135221   5.273   6.719   1.447  0.1136  1.7147  0.8564
 4602TIP3    H235222   5.190   6.783   1.338  0.2492 -0.1835 -0.4055
 4603TIP3   OH235223   0.340   5.464  15.857 -0.7121 -0.2007  0.0142
 4603TIP3    H135224   0.289   5.518  15.918  0.6543  1.3339 -0.1402
 4603TIP3    H235225   0.319   5.500  15.771  0.3263  0.2294 -0.0776
 4604TIP3   OH235226   0.997   5.652  14.438  0.2273  0.6207  0.5211
 4604TIP3    H135227   1.050   5.594  14.384  1.4434  0.7095  1.5787
 4604TIP3    H235228   1.053   5.675  14.511 -1.4836  0.1973  2.0523
 4605TIP3   OH235229   5.848   5.248  16.996 -0.7568  0.0856 -0.1340
 4605TIP3    H135230   5.801   5.324  17.031  0.1482  0.4890  0.2280
 4605TIP3    H235231   5.915   5.229  17.061 -0.8155 -0.8850 -0.3386
 4606TIP3   OH235232   4.974   1.985   3.693 -0.4520  0.1333 -0.3213
 4606TIP3    H135233   4.957   1.998   3.599  0.4503  0.5139 -0.4452
 4606TIP3    H235234   5.038   2.052   3.714 -2.0562  1.3255  1.0269
 4607TIP3   OH235235   2.638   0.766   2.729 -0.1035  0.2245 -0.1749
 4607TIP3    H135236   2.625   0.837   2.666 -0.4072  1.2048  0.9511
 4607TIP3    H235237   2.721   0.786   2.771  0.7975 -1.1949 -1.1928
 4608TIP3   OH235238   1.056   2.914  16.327  0.2565 -0.1351  0.1530
 4608TIP3    H135239   1.084   2.825  16.304 -0.2645 -0.1341 -0.5092
 4608TIP3    H235240   0.963   2.904  16.350 -0.7168  0.6715 -2.9077
 4609TIP3   OH235241   4.433   1.347   0.383 -0.4604 -0.0749  0.1830
 4609TIP3    H135242   4.440   1.334   0.477  2.0632 -1.6766 -0.1245
 4609TIP3    H235243   4.517   1.386   0.357 -0.6944 -0.6084 -1.5126
 4610TIP3   OH235244   1.606   3.414   6.439 -0.0004 -0.5601  0.1734
 4610TIP3    H135245   1.544   3.352   6.479  0.5811 -0.4957  1.1981
 4610TIP3    H235246   1.681   3.360   6.414 -0.4356 -0.6327 -1.0426
 4611TIP3   OH235247   0.911   2.440   4.377 -0.3321  0.4432  0.0746
 4611TIP3    H135248   0.920   2.469   4.287 -0.6743 -2.0945 -0.8602
 4611TIP3    H235249   0.834   2.383   4.376  0.1262 -0.2651  1.7794
 4612TIP3   OH235250   2.319   2.048   1.062  0.0903 -0.4779  0.4843
 4612TIP3    H135251   2.312   1.974   1.003  1.0229 -0.4058  0.2593
 4612TIP3    H235252   2.361   2.117   1.010 -0.9219  0.2745  0.6354
 4613TIP3   OH235253   2.034   3.775   2.017  0.2925 -0.3060 -0.0045
 4613TIP3    H135254   1.951   3.815   1.992  0.7664  1.6985  1.3621
 4613TIP3    H235255   2.080   3.761   1.934  0.3023  2.5636 -0.5790
 4614TIP3   OH235256   4.871   3.400  12.865  0.1804 -0.3800 -0.6020
 4614TIP3    H135257   4.833   3.357  12.788  2.4231 -0.2631 -1.8738
 4614TIP3    H235258   4.847   3.344  12.939 -3.2628  0.2621 -1.0911
 4615TIP3   OH235259   0.817   4.193  14.657  0.3878  0.1084  0.2132
 4615TIP3    H135260   0.774   4.218  14.739 -1.4028  0.3863 -0.7760
 4615TIP3    H235261   0.862   4.272  14.628  1.0469  0.0035  0.9089
 4616TIP3   OH235262   3.069   6.677   4.927  0.3460  0.0086  0.2430
 4616TIP3    H135263   3.072   6.770   4.906  2.6060  0.2422  1.2826
 4616TIP3    H235264   3.083   6.633   4.843 -0.1948  0.6192 -0.1701
 4617TIP3   OH235265   5.988   4.602  12.000 -0.0771 -0.4507  0.7680
 4617TIP3    H135266   5.910   4.628  12.050 -0.4967 -0.3002  0.0517
 4617TIP3    H235267   5.953   4.565  11.919  0.6170  1.6390 -0.5443
 4618TIP3   OH235268   0.341   1.239   5.531  0.1234  0.3469 -0.0842
 4618TIP3    H135269   0.350   1.251   5.436  0.2001  1.2342  0.0245
 4618TIP3    H235270   0.247   1.242   5.546  0.1712  2.1407  0.0769
 4619TIP3   OH235271   4.417   2.805   1.164  0.0203  0.0237 -0.1897
 4619TIP3    H135272   4.502   2.765   1.186  0.6557  0.1162 -2.2441
 4619TIP3    H235273   4.378   2.826   1.249  1.4261 -1.2985  0.8566
 4620TIP3   OH235274   4.310   5.408   5.765  0.3053 -0.1705  0.0281
 4620TIP3    H135275   4.305   5.449   5.851  0.1239  2.1572 -1.0127
 4620TIP3    H235276   4.338   5.478   5.706  3.1367 -2.3391 -1.4311
 4621TIP3   OH235277   5.902   6.192  12.785 -0.1922 -0.4033  0.2607
 4621TIP3    H135278   5.855   6.173  12.703 -2.2413  1.8047  0.8107
 4621TIP3    H235279   5.944   6.276  12.770 -1.7339  0.7293  1.8365
 4622TIP3   OH235280   1.480   5.529   4.369 -0.1763  0.0786  0.3941
 4622TIP3    H135281   1.399   5.478   4.362 -0.3966  0.3887  0.6709
 4622TIP3    H235282   1.543   5.482   4.313 -0.2193 -0.8162  1.0628
 4623TIP3   OH235283   0.478   1.905  12.701  0.2598 -0.2991  0.4620
 4623TIP3    H135284   0.474   1.834  12.636  2.6344  0.1368 -0.2646
 4623TIP3    H235285   0.475   1.859  12.785  0.2689 -1.1627  0.0117
 4624TIP3   OH235286   6.342   0.079  14.327  0.1144 -0.1929 -0.5845
 4624TIP3    H135287   6.301   0.003  14.287 -0.3175 -1.2954  1.7907
 4624TIP3    H235288   6.436   0.067  14.310  0.2413 -2.2239  1.1802
 4625TIP3   OH235289   6.317   5.137  14.999 -0.5719  0.4718  0.1105
 4625TIP3    H135290   6.399   5.172  15.034 -0.2417  0.6452 -0.7877
 4625TIP3    H235291   6.337   5.120  14.907 -1.1775 -0.6754  0.1806
 4626TIP3   OH235292   2.539   2.760  12.513  0.4621  0.1253 -0.1196
 4626TIP3    H135293   2.535   2.664  12.516  1.2944  0.0670 -0.4172
 4626TIP3    H235294   2.607   2.783  12.576 -0.4947  0.6064  0.7593
 4627TIP3   OH235295   2.079   4.853  13.495 -0.1062  0.6629  0.2599
 4627TIP3    H135296   2.050   4.884  13.410  0.9559  1.3777  0.1408
 4627TIP3    H235297   2.156   4.800  13.477  0.7935  1.7408  0.8589
 4628TIP3   OH235298   1.012   4.495  12.763 -0.4844 -0.3829  0.3786
 4628TIP3    H135299   0.958   4.431  12.718 -1.0044  0.6115 -0.4469
 4628TIP3    H235300   1.100   4.456  12.764 -0.6695 -0.8457 -0.6195
 4629TIP3   OH235301   1.093   5.707  15.227 -0.4159 -0.2675 -0.0223
 4629TIP3    H135302   1.077   5.613  15.236 -2.2625  0.0913  0.9748
 4629TIP3    H235303   1.012   5.748  15.258  0.0868  1.6431 -1.0867
 4630TIP3   OH235304   0.463   5.413   2.137 -0.5356  0.1476 -0.0616
 4630TIP3    H135305   0.515   5.494   2.141 -1.1565  0.6271 -1.2019
 4630TIP3    H235306   0.444   5.393   2.228  0.4966  0.7150  0.3004
 4631TIP3   OH235307   1.286   2.378   2.477  0.0262 -0.5503 -0.2623
 4631TIP3    H135308   1.342   2.435   2.423  0.8102  0.2677  1.3166
 4631TIP3    H235309   1.262   2.433   2.552 -1.3647 -1.5042  0.0237
 4632TIP3   OH235310   2.249   3.427   0.870  0.6741 -0.0394 -0.0775
 4632TIP3    H135311   2.213   3.340   0.854  1.3178 -0.1416 -1.0559
 4632TIP3    H235312   2.201   3.460   0.946  0.0632 -1.0372 -0.0238
 4633TIP3   OH235313   1.126   5.091  10.555 -0.3353 -0.4690  0.4649
 4633TIP3    H135314   1.030   5.093  10.560 -0.4513  0.6739 -1.1913
 4633TIP3    H235315   1.150   5.177  10.520  0.9862 -1.9344 -2.6547
 4634TIP3   OH235316   2.119   3.162  15.674  0.4006 -0.7375 -0.3222
 4634TIP3    H135317   2.081   3.074  15.681 -1.1192 -0.2293 -1.5348
 4634TIP3    H235318   2.212   3.147  15.660  0.1316 -2.1684 -0.7437
 4635TIP3   OH235319   1.355   1.018  13.279 -0.1878  0.3141  0.5144
 4635TIP3    H135320   1.432   1.005  13.223 -0.4300  0.2513  0.1955
 4635TIP3    H235321   1.295   0.948  13.254  0.3379 -0.7049  1.9693
 4636TIP3   OH235322   0.352   1.758  16.177  0.1744 -0.2688  0.6632
 4636TIP3    H135323   0.439   1.799  16.178  0.3795 -0.6832  1.8280
 4636TIP3    H235324   0.293   1.828  16.152  0.8448  0.0189 -0.1509
 4637TIP3   OH235325   2.337   3.459  16.457 -0.2121 -0.2201 -0.0944
 4637TIP3    H135326   2.392   3.416  16.391  0.3300  0.1339  0.1209
 4637TIP3    H235327   2.375   3.434  16.541  0.0314  0.5605  0.0364
 4638TIP3   OH235328   6.465   3.752  16.168  0.1953  0.0898 -0.2393
 4638TIP3    H135329   6.394   3.812  16.146 -0.4863 -1.1556 -1.5287
 4638TIP3    H235330   6.532   3.768  16.101 -0.5118 -1.4122 -1.3588
 4639TIP3   OH235331   5.890   4.885   5.191  0.2823 -0.1167 -0.3465
 4639TIP3    H135332   5.871   4.803   5.235 -0.9909 -0.8355 -2.1003
 4639TIP3    H235333   5.804   4.927   5.181  0.8105  1.0249 -0.2545
 4640TIP3   OH235334   2.074   0.519  16.212  0.2593 -0.5344 -0.1682
 4640TIP3    H135335   2.127   0.445  16.243 -0.3191 -0.8633  0.0559
 4640TIP3    H235336   2.045   0.494  16.125  1.0499 -0.0470 -0.5786
 4641TIP3   OH235337   3.735   5.541  12.367  0.2253  0.0811  0.0262
 4641TIP3    H135338   3.731   5.563  12.460 -4.4231  3.8309 -0.6578
 4641TIP3    H235339   3.757   5.624  12.324  1.6304 -1.4039 -2.3629
 4642TIP3   OH235340   1.134   3.655   1.444 -0.2711  0.4792  0.1369
 4642TIP3    H135341   1.103   3.745   1.441 -1.8026 -0.0119  0.0876
 4642TIP3    H235342   1.079   3.608   1.381 -0.1873 -0.6658  0.8693
 4643TIP3   OH235343   1.174   5.294  16.530 -0.1070 -0.0187 -0.5707
 4643TIP3    H135344   1.243   5.333  16.476  0.0813  1.0940  0.4489
 4643TIP3    H235345   1.105   5.359  16.533  0.0933  0.1635  0.9169
 4644TIP3   OH235346   5.028   2.951   5.614  0.1647 -0.2205 -0.1685
 4644TIP3    H135347   4.987   2.873   5.652  0.2986 -0.5904 -0.7592
 4644TIP3    H235348   4.988   3.024   5.661 -0.7028 -0.6026 -0.2764
 4645TIP3   OH235349   6.177   0.861   0.213  0.0490 -0.2374 -0.5912
 4645TIP3    H135350   6.200   0.815   0.293 -0.5846  0.4867  0.0251
 4645TIP3    H235351   6.084   0.843   0.200 -0.0252  0.2317 -0.7612
 4646TIP3   OH235352   0.275   1.499  16.145 -0.4512  0.0060  0.4439
 4646TIP3    H135353   0.215   1.548  16.088  0.0638 -1.0524 -1.0616
 4646TIP3    H235354   0.331   1.566  16.183 -1.4143  0.8304  0.4747
 4647TIP3   OH235355   1.871   4.019  12.153  0.1667  0.2146  0.2321
 4647TIP3    H135356   1.937   4.077  12.190 -1.0464  1.8313 -0.0388
 4647TIP3    H235357   1.787   4.063  12.170 -0.9393 -2.0383  1.0827
 4648TIP3   OH235358   2.451   3.542   1.214 -0.0823  0.1795  0.0316
 4648TIP3    H135359   2.497   3.603   1.272 -0.1023 -0.4540  0.7353
 4648TIP3    H235360   2.367   3.583   1.196 -0.5079 -0.0709  1.3194
 4649TIP3   OH235361   5.415   4.935  13.137  0.0079  0.0039  0.2762
 4649TIP3    H135362   5.497   4.903  13.175 -0.3909 -0.3970  0.8237
 4649TIP3    H235363   5.395   5.013  13.188  0.7555  0.9108 -0.7722
 4650TIP3   OH235364   5.500   0.400  12.804  0.2264 -0.3066  0.0197
 4650TIP3    H135365   5.496   0.496  12.800 -2.7620 -0.3336  0.5536
 4650TIP3    H235366   5.540   0.382  12.890 -0.2079  0.4698  0.4002
 4651TIP3   OH235367   3.448   6.453   6.439 -0.4997 -0.6251 -0.1408
 4651TIP3    H135368   3.414   6.380   6.491 -0.0046 -0.5558  0.2863
 4651TIP3    H235369   3.543   6.438   6.436 -0.1072  1.1375  1.7555
 4652TIP3   OH235370   4.293   4.230  15.018  0.3894  0.1494  0.3110
 4652TIP3    H135371   4.256   4.192  14.938 -0.4535  0.9991  0.2742
 4652TIP3    H235372   4.219   4.272  15.061  0.3516 -2.0928  2.6738
 4653TIP3   OH235373   0.164   3.772  13.698 -0.2597  0.0362 -0.2496
 4653TIP3    H135374   0.089   3.816  13.657 -0.0500  0.0827 -0.5828
 4653TIP3    H235375   0.163   3.684  13.660 -0.8537 -0.3536  0.6305
 4654TIP3   OH235376   6.272   1.437   0.700  0.1097  0.4218  0.3620
 4654TIP3    H135377   6.182   1.449   0.731  0.3111  1.7854  0.4883
 4654TIP3    H235378   6.266   1.453   0.606  0.0451 -0.6132  0.1745
 4655TIP3   OH235379   3.100   0.775   0.197 -0.3767  0.4992 -0.1962
 4655TIP3    H135380   3.073   0.724   0.121  0.5511  0.3572 -0.4438
 4655TIP3    H235381   3.177   0.729   0.231 -0.4988  0.8293  0.5409
 4656TIP3   OH235382   1.348   0.299  12.618  0.2116  0.6450 -0.0267
 4656TIP3    H135383   1.346   0.359  12.692 -1.7579  0.6223  0.0048
 4656TIP3    H235384   1.297   0.223  12.648  1.5896 -0.5109 -0.5046
 4657TIP3   OH235385   4.595   4.880  16.697 -0.2182  0.7122  0.2294
 4657TIP3    H135386   4.601   4.930  16.778 -2.9257  1.1942  0.2330
 4657TIP3    H235387   4.570   4.792  16.725  1.1286  0.2425  0.0190
 4658TIP3   OH235388   3.626   5.877  13.570  0.3993 -0.8392 -0.2706
 4658TIP3    H135389   3.545   5.894  13.619  1.1988  0.0279  0.7801
 4658TIP3    H235390   3.675   5.817  13.625  0.2978 -1.7201 -1.1161
 4659TIP3   OH235391   3.580   4.677  10.748  0.2410 -0.5446 -0.3599
 4659TIP3    H135392   3.670   4.675  10.780 -0.2210 -1.0297  0.9852
 4659TIP3    H235393   3.531   4.624  10.812 -1.2408  0.8610 -0.2807
 4660TIP3   OH235394   3.400   2.104   0.444 -0.3989 -0.0061  0.0660
 4660TIP3    H135395   3.432   2.018   0.471  0.6455 -0.0934 -1.3011
 4660TIP3    H235396   3.323   2.120   0.498 -0.8827 -2.0022  0.0270
 4661TIP3   OH235397   6.308   5.100  12.325 -0.8818 -0.2889 -0.2995
 4661TIP3    H135398   6.304   5.085  12.420  1.4923  1.0740  0.0982
 4661TIP3    H235399   6.360   5.027  12.291 -0.3901  0.0565 -0.2999
 4662TIP3   OH235400   5.030   3.017  15.636 -0.4177  0.4106 -0.1228
 4662TIP3    H135401   4.960   3.030  15.573 -0.2810  0.5081 -0.2546
 4662TIP3    H235402   5.011   3.079  15.707  0.4356  1.6093 -0.9166
 4663TIP3   OH235403   4.321   6.597  13.590 -0.4633 -0.2260  0.2750
 4663TIP3    H135404   4.416   6.602  13.581 -0.6269  2.2220 -0.9100
 4663TIP3    H235405   4.298   6.510  13.557  1.3603 -1.0012  0.9141
 4664TIP3   OH235406   6.225   2.389  11.796  0.6058 -0.0404  0.6436
 4664TIP3    H135407   6.291   2.457  11.780  0.7183 -0.1290  0.7305
 4664TIP3    H235408   6.238   2.326  11.725 -0.9179  1.0965 -0.7197
 4665TIP3   OH235409   1.616   5.255   0.705 -0.6461 -0.1351  0.2785
 4665TIP3    H135410   1.587   5.230   0.793  0.5100  0.6992  0.9288
 4665TIP3    H235411   1.544   5.230   0.648 -2.3808  1.2820  1.7276
 4666TIP3   OH235412   1.861   2.865   0.271  0.3328 -0.3062  0.1386
 4666TIP3    H135413   1.945   2.867   0.225 -0.1270  0.8530 -0.6781
 4666TIP3    H235414   1.885   2.860   0.364  1.3006 -0.0469 -0.0844
 4667TIP3   OH235415   3.050   1.320  12.214 -0.3730 -0.5074  0.0955
 4667TIP3    H135416   3.028   1.413  12.218 -1.7891 -0.8203  0.0337
 4667TIP3    H235417   2.988   1.284  12.151 -0.3860 -1.6404  0.7433
 4668TIP3   OH235418   2.209   3.254  13.431  0.1458  0.6276  0.4641
 4668TIP3    H135419   2.230   3.237  13.523  1.5976  0.2791  0.0838
 4668TIP3    H235420   2.150   3.330  13.434  1.4007  1.6029  1.6146
 4669TIP3   OH235421   2.112   1.894   5.714  0.1714  0.3047  0.3406
 4669TIP3    H135422   2.041   1.927   5.769  1.6038 -0.3863  2.7612
 4669TIP3    H235423   2.160   1.973   5.689 -0.6955  0.6635 -0.2353
 4670TIP3   OH235424   2.741   4.111  11.075 -0.0549 -0.3085 -0.0206
 4670TIP3    H135425   2.741   4.023  11.038  0.8296 -0.0292 -0.7089
 4670TIP3    H235426   2.664   4.153  11.036 -0.2099 -0.6199 -0.0539
 4671TIP3   OH235427   1.153   2.501   2.207  0.7038 -0.2303 -0.0728
 4671TIP3    H135428   1.091   2.539   2.145 -0.7862 -1.2153  0.7642
 4671TIP3    H235429   1.234   2.550   2.192 -0.4573  1.6081 -0.6646
 4672TIP3   OH235430   5.093   3.720  12.728  0.0159 -0.3574 -0.1199
 4672TIP3    H135431   5.126   3.769  12.803  1.8402 -1.7499  0.0522
 4672TIP3    H235432   5.075   3.787  12.661  1.0247  0.6548  0.5961
 4673TIP3   OH235433   5.322   5.682   4.304 -0.0612  0.0447 -0.0419
 4673TIP3    H135434   5.259   5.611   4.316  1.4825 -1.0284  2.4246
 4673TIP3    H235435   5.310   5.739   4.380  0.8572  0.7169 -0.3737
 4674TIP3   OH235436   4.161   1.321   1.684 -0.3344 -0.3194 -0.4304
 4674TIP3    H135437   4.198   1.233   1.685  0.0685 -0.1654 -1.1860
 4674TIP3    H235438   4.218   1.370   1.624 -0.6781  0.3989 -0.1797
 4675TIP3   OH235439   3.127   2.673   4.339 -0.3551 -0.2276  0.1884
 4675TIP3    H135440   3.205   2.725   4.358 -0.5237 -0.4331  1.5071
 4675TIP3    H235441   3.133   2.598   4.398 -0.5457 -1.2829 -1.0998
 4676TIP3   OH235442   6.515   1.994  13.775 -0.2297 -0.2613  0.0691
 4676TIP3    H135443   6.454   1.937  13.729 -1.4606  1.0093  0.0368
 4676TIP3    H235444   6.594   1.942  13.787 -0.6762 -1.3513 -1.5217
 4677TIP3   OH235445   3.164   3.742   2.505 -0.1558  0.8104  0.9295
 4677TIP3    H135446   3.103   3.732   2.431  1.5669 -1.1564 -0.3231
 4677TIP3    H235447   3.194   3.832   2.498 -0.2509  0.7526 -0.6208
 4678TIP3   OH235448   5.803   1.065  16.118 -0.3547  0.2244 -0.1755
 4678TIP3    H135449   5.773   0.975  16.111  2.4139 -0.6326 -2.5826
 4678TIP3    H235450   5.810   1.081  16.212 -3.3051 -1.1027  0.3853
 4679TIP3   OH235451   6.056   4.182  15.864  0.2682 -0.7132  0.2362
 4679TIP3    H135452   5.994   4.111  15.878 -0.6112 -0.3546 -1.5708
 4679TIP3    H235453   6.016   4.257  15.909 -0.7587 -0.4345 -1.0782
 4680TIP3   OH235454   4.924   3.755  15.869  0.0685 -0.3338 -0.2690
 4680TIP3    H135455   4.939   3.828  15.929  0.3149 -1.5856  1.2561
 4680TIP3    H235456   5.006   3.706  15.869  0.4606  0.2359 -2.5323
 4681TIP3   OH235457   0.351   2.333  17.202  0.2300 -0.2365  0.5796
 4681TIP3    H135458   0.444   2.318  17.188 -0.3835 -3.9674 -0.6089
 4681TIP3    H235459   0.330   2.282  17.280 -1.2263 -1.8207 -0.7658
 4682TIP3   OH235460   1.168   0.725  16.080 -0.3491 -0.1200 -0.5568
 4682TIP3    H135461   1.139   0.681  16.000  2.1056 -0.7164 -1.2096
 4682TIP3    H235462   1.262   0.735  16.069 -0.1906  1.3857  1.5276
 4683TIP3   OH235463   4.268   5.131   1.231  0.2619 -0.1469 -0.2590
 4683TIP3    H135464   4.257   5.173   1.145 -1.3499  1.2100  0.5363
 4683TIP3    H235465   4.304   5.200   1.286  1.1998 -0.9835  0.1996
 4684TIP3   OH235466   6.551   5.949   1.348  0.1780 -0.6474 -0.0281
 4684TIP3    H135467   6.607   5.893   1.401 -1.3123 -1.1725  1.0340
 4684TIP3    H235468   6.550   5.907   1.262  0.0312 -1.5847  0.4251
 4685TIP3   OH235469   5.400   6.522  15.025  0.5782  0.2746 -0.3050
 4685TIP3    H135470   5.390   6.511  15.120  1.1679 -0.7114 -0.3508
 4685TIP3    H235471   5.486   6.561  15.014  0.1388  1.2526 -0.3958
 4686TIP3   OH235472   2.999   1.481   4.718 -0.3123 -0.4515 -0.5420
 4686TIP3    H135473   2.972   1.403   4.669 -0.6606 -0.4487 -0.3561
 4686TIP3    H235474   3.059   1.448   4.785  0.5362 -0.3999 -1.2536
 4687TIP3   OH235475   5.540   6.218  15.808  0.4927  0.2198 -0.4139
 4687TIP3    H135476   5.463   6.210  15.864  1.1364  0.4086  0.5207
 4687TIP3    H235477   5.592   6.287  15.849  0.5139  1.0701 -1.8171
 4688TIP3   OH235478   3.398   2.914   2.108 -0.0432 -0.0803  0.0385
 4688TIP3    H135479   3.419   2.823   2.130 -1.2374  0.0862  2.2044
 4688TIP3    H235480   3.377   2.912   2.015  0.4840 -1.9065 -0.0934
 4689TIP3   OH235481   5.679   2.873  12.475  0.2823 -0.1530 -0.8273
 4689TIP3    H135482   5.662   2.966  12.485 -0.5834 -0.3892  0.1454
 4689TIP3    H235483   5.624   2.831  12.541  0.6407 -1.3577 -1.2511
 4690TIP3   OH235484   3.277   5.720   4.653  0.3807  0.1652 -0.3404
 4690TIP3    H135485   3.215   5.786   4.683  1.0152  1.7284 -2.2679
 4690TIP3    H235486   3.222   5.650   4.618 -0.3005  0.1736  0.6838
 4691TIP3   OH235487   2.977   3.982  13.174  0.0923 -0.0741 -0.2078
 4691TIP3    H135488   2.984   3.999  13.080  0.3360 -1.3773 -0.4509
 4691TIP3    H235489   3.041   3.913  13.191  0.8997  0.9542  1.1629
 4692TIP3   OH235490   4.860   1.890   2.942 -0.3492 -0.0003  0.1112
 4692TIP3    H135491   4.906   1.867   2.861 -0.1024  1.9691 -0.3691
 4692TIP3    H235492   4.930   1.919   3.001 -0.5697 -1.0863  0.9184
 4693TIP3   OH235493   0.033   1.848  15.292 -0.7719  0.2763 -0.2618
 4693TIP3    H135494   0.027   1.878  15.201 -1.6411 -1.4662 -0.8218
 4693TIP3    H235495   0.111   1.794  15.294 -0.7580  0.3052  0.0381
 4694TIP3   OH235496   3.398   6.569  11.703 -0.2418  0.2982 -0.5240
 4694TIP3    H135497   3.312   6.554  11.743 -0.1788  0.4790 -0.3241
 4694TIP3    H235498   3.460   6.538  11.768 -0.1619 -0.1320 -0.7984
 4695TIP3   OH235499   2.390   2.908  17.189  0.4566  0.2016 -0.0594
 4695TIP3    H135500   2.384   3.001  17.212  0.8186  0.3471 -0.5407
 4695TIP3    H235501   2.471   2.878  17.230  0.3520  0.1051  0.0754
 4696TIP3   OH235502   0.945   4.209   3.265 -0.0990  0.3397 -0.4528
 4696TIP3    H135503   0.961   4.171   3.351  0.9124  2.7641  0.5309
 4696TIP3    H235504   0.891   4.287   3.283  0.2329  0.9695 -1.9917
 4697TIP3   OH235505   3.963   0.553   2.071 -0.7243  0.4920  0.1040
 4697TIP3    H135506   3.985   0.550   1.978 -0.8491 -0.3014  0.0905
 4697TIP3    H235507   3.915   0.635   2.082 -2.2550 -0.2241 -0.8793
 4698TIP3   OH235508   0.002   6.427   6.362  0.5515  0.0522 -1.1150
 4698TIP3    H135509  -0.006   6.333   6.381 -1.7586  0.1664 -1.1593
 4698TIP3    H235510   0.092   6.438   6.331  1.1548 -1.9790 -0.2521
 4699TIP3   OH235511   0.385   6.241   5.834 -0.1292  0.6956  0.0325
 4699TIP3    H135512   0.476   6.250   5.860 -0.1880  0.8978  0.1681
 4699TIP3    H235513   0.364   6.323   5.790 -0.4715  0.9639  0.6891
 4700TIP3   OH235514   1.529   3.003  14.309 -0.1940 -0.4224  0.1416
 4700TIP3    H135515   1.606   3.013  14.253 -1.1793 -2.1628 -1.6528
 4700TIP3    H235516   1.557   2.943  14.378 -0.1813 -1.9185 -1.1114
 4701TIP3   OH235517   5.182   4.555  12.098 -0.1514 -0.1301  0.0538
 4701TIP3    H135518   5.165   4.562  12.004 -0.3690  0.0122  0.1031
 4701TIP3    H235519   5.183   4.460  12.115 -1.2892 -0.1471  0.1171
 4702TIP3   OH235520   5.879   1.666   6.158  0.2667 -0.2819  0.0443
 4702TIP3    H135521   5.839   1.752   6.150 -2.1093 -1.1419  1.7358
 4702TIP3    H235522   5.911   1.662   6.248  1.4412 -0.7572 -0.3747
 4703TIP3   OH235523   2.574   4.207  16.665 -0.1480  0.6694  0.6251
 4703TIP3    H135524   2.583   4.116  16.637 -2.7968  0.3713  0.5436
 4703TIP3    H235525   2.555   4.202  16.758  0.1633  1.1868  0.7213
 4704TIP3   OH235526   2.347   5.834  15.948 -0.4133  0.3636  0.1756
 4704TIP3    H135527   2.368   5.910  15.893 -1.5763  1.9752  1.8068
 4704TIP3    H235528   2.269   5.796  15.908 -0.1769  0.3863 -0.3145
 4705TIP3   OH235529   4.367   3.107   3.350 -0.3127  0.1841 -0.1564
 4705TIP3    H135530   4.458   3.095   3.377 -0.2799 -0.9712 -0.7084
 4705TIP3    H235531   4.353   3.040   3.282 -1.9782 -0.6251  0.9078
 4706TIP3   OH235532   2.817   1.362  11.067 -0.3254 -0.0110 -0.4308
 4706TIP3    H135533   2.761   1.287  11.084 -1.5880  1.0502  0.3042
 4706TIP3    H235534   2.811   1.376  10.972 -0.3610 -0.6162 -0.5191
 4707TIP3   OH235535   0.749   3.621   2.489  0.4737 -0.3784  0.0279
 4707TIP3    H135536   0.757   3.606   2.584 -0.3808 -1.7770 -0.0967
 4707TIP3    H235537   0.659   3.652   2.477  1.2244  1.9351 -0.1171
 4708TIP3   OH235538   1.695   4.854  13.637  0.7224 -0.5756  0.2081
 4708TIP3    H135539   1.715   4.941  13.602 -0.4483 -0.7167 -0.8967
 4708TIP3    H235540   1.631   4.870  13.706  0.0807 -0.5890 -0.3743
 4709TIP3   OH235541   5.819   4.297   0.488 -0.6412  0.2013  0.0783
 4709TIP3    H135542   5.815   4.390   0.466 -0.2962  0.1032 -0.4257
 4709TIP3    H235543   5.754   4.256   0.431  0.1278 -0.0311 -0.6604
 4710TIP3   OH235544   2.451   3.142  15.393 -0.2849  0.1973 -0.8184
 4710TIP3    H135545   2.471   3.151  15.299  0.4919  1.3518 -0.5700
 4710TIP3    H235546   2.388   3.212  15.410 -1.4687 -0.8704 -0.7451
 4711TIP3   OH235547   0.633   4.178   6.023  0.1541  0.1295 -0.2374
 4711TIP3    H135548   0.695   4.199   5.953  0.5437 -1.2662 -0.3403
 4711TIP3    H235549   0.585   4.259   6.038  0.4993  0.6263 -1.6867
 4712TIP3   OH235550   0.074   4.710   4.899  0.5387 -0.0011  0.1856
 4712TIP3    H135551   0.078   4.710   4.994  1.4841 -0.4395  0.1585
 4712TIP3    H235552   0.165   4.713   4.871  0.2351  1.9206 -0.7239
 4713TIP3   OH235553   0.685   3.676  13.608 -0.3717  0.4587 -0.5114
 4713TIP3    H135554   0.689   3.706  13.698 -0.0318 -0.7051 -0.1180
 4713TIP3    H235555   0.600   3.706  13.576 -0.0463  1.8072 -0.1566
 4714TIP3   OH235556   4.485   4.002   5.418  0.2662  0.2301  0.0184
 4714TIP3    H135557   4.464   4.092   5.392  0.2321  1.2424  3.2076
 4714TIP3    H235558   4.580   3.998   5.416  0.4047  1.1757  2.1362
 4715TIP3   OH235559   2.267   0.222   0.979 -0.4191 -0.1494  0.4528
 4715TIP3    H135560   2.320   0.298   0.953 -2.5279  2.2616  2.6063
 4715TIP3    H235561   2.323   0.175   1.041  0.7194 -0.0902 -0.4839
 4716TIP3   OH235562   0.917   0.258  11.553  0.5277  0.1254  0.5068
 4716TIP3    H135563   0.957   0.330  11.602  1.3746 -0.5761  0.8779
 4716TIP3    H235564   0.886   0.198  11.621  2.5830 -1.3358  0.2523
 4717TIP3   OH235565   4.927   4.658  11.279  0.3530 -0.1795  0.2876
 4717TIP3    H135566   4.921   4.637  11.186 -2.1703  0.0806  0.3409
 4717TIP3    H235567   4.997   4.601  11.312  1.9748  0.4159 -1.9049
 4718TIP3   OH235568   0.102   6.770   1.065 -0.1196 -0.2723 -0.7588
 4718TIP3    H135569   0.044   6.775   0.990 -0.6608 -1.4428 -0.4392
 4718TIP3    H235570   0.150   6.853   1.064 -2.1000  0.9518 -0.7793
 4719TIP3   OH235571   3.927   5.645   2.801  0.1056 -0.3180  0.1989
 4719TIP3    H135572   3.891   5.717   2.853 -0.8720 -0.4382 -0.2830
 4719TIP3    H235573   4.009   5.622   2.844  0.3350  0.9584  0.4649
 4720TIP3   OH235574   6.523   1.160  13.705  0.8285 -0.3477  0.1120
 4720TIP3    H135575   6.521   1.236  13.762  0.2629  0.0597 -0.4443
 4720TIP3    H235576   6.562   1.091  13.759  1.5151  0.3767  0.5569
 4721TIP3   OH235577   4.175   1.169  11.753 -0.5567  0.0932 -0.2906
 4721TIP3    H135578   4.091   1.145  11.793  0.5554 -0.8493  1.6019
 4721TIP3    H235579   4.223   1.087  11.746  0.9745  0.8633  0.5463
 4722TIP3   OH235580   5.039   3.564  15.572  0.6553 -0.1947 -0.8114
 4722TIP3    H135581   5.110   3.617  15.609  1.2886 -2.4692  1.5734
 4722TIP3    H235582   4.989   3.625  15.517  0.5507  3.2033  2.6338
 4723TIP3   OH235583   1.267   3.078   5.208  0.1505  0.9730  0.8577
 4723TIP3    H135584   1.273   3.027   5.289  0.0384  1.1517  0.9801
 4723TIP3    H235585   1.233   3.016   5.143  2.0922  0.2741  0.4450
 4724TIP3   OH235586   6.611   1.873   3.785 -0.0194 -0.8717 -0.7973
 4724TIP3    H135587   6.689   1.922   3.760 -1.3563  1.6408 -0.4269
 4724TIP3    H235588   6.539   1.936   3.775 -2.2046 -3.3616 -2.1820
 4725TIP3   OH235589   0.423   3.281   0.439 -0.1064 -0.2427  0.5382
 4725TIP3    H135590   0.471   3.330   0.373  0.8209 -0.7248  0.8448
 4725TIP3    H235591   0.490   3.245   0.497 -0.7961 -1.3227  0.6990
 4726TIP3   OH235592   2.144   1.905  12.999  0.3581  0.2425 -0.4519
 4726TIP3    H135593   2.146   1.830  13.058  1.2145 -0.7962 -1.7682
 4726TIP3    H235594   2.175   1.872  12.915 -1.5780  1.5040 -1.7466
 4727TIP3   OH235595   2.407   5.088   5.207  0.2808 -0.8699  0.4454
 4727TIP3    H135596   2.364   5.091   5.292  0.6424  0.9602  0.5983
 4727TIP3    H235597   2.501   5.093   5.228  0.3217  1.2719 -0.0815
 4728TIP3   OH235598   3.714   2.407   4.954 -0.0633  0.2283 -0.5416
 4728TIP3    H135599   3.662   2.485   4.975  0.9977  0.7704  0.1232
 4728TIP3    H235600   3.693   2.346   5.024 -0.8720 -0.0958 -1.0460
 4729TIP3   OH235601   2.127   0.679   4.183  0.8258  0.0389  0.0925
 4729TIP3    H135602   2.129   0.641   4.271 -1.1687  1.2520  0.7413
 4729TIP3    H235603   2.056   0.631   4.139 -0.1520  1.3887  0.1542
 4730TIP3   OH235604   6.664   2.236   1.578 -0.1221 -0.0428  0.3529
 4730TIP3    H135605   6.602   2.212   1.509  0.5074  1.0423 -0.6274
 4730TIP3    H235606   6.746   2.195   1.552  0.3290  1.0625 -0.0011
 4731TIP3   OH235607   5.470   2.964   1.771  0.1999  0.4337 -0.1283
 4731TIP3    H135608   5.518   3.047   1.774  1.0832 -0.0215 -0.9780
 4731TIP3    H235609   5.520   2.905   1.826 -1.1649  0.7873  1.5766
 4732TIP3   OH235610   5.266   3.879   1.996  0.1389  0.0376 -0.2389
 4732TIP3    H135611   5.235   3.968   2.014  0.5134  0.3489 -1.0950
 4732TIP3    H235612   5.277   3.840   2.083 -2.2387  0.0347  0.1281
 4733TIP3   OH235613   6.234   0.045   1.246 -0.1781 -0.2682  0.5846
 4733TIP3    H135614   6.203  -0.003   1.322  1.5838  0.8473  2.0922
 4733TIP3    H235615   6.222   0.137   1.269  1.6023  0.1208  0.1184
 4734TIP3   OH235616   1.598   6.680  12.115 -0.2438 -0.0338 -0.5927
 4734TIP3    H135617   1.687   6.687  12.080 -0.0163 -0.1224 -0.0325
 4734TIP3    H235618   1.542   6.712  12.044  0.0152 -2.5125 -2.0174
 4735TIP3   OH235619   6.734   4.040  16.123 -0.0095 -0.9971 -0.0175
 4735TIP3    H135620   6.820   4.003  16.102 -0.4232 -1.4584 -0.9196
 4735TIP3    H235621   6.672   3.988  16.073 -0.7242  0.0515 -0.2529
 4736TIP3   OH235622   2.930   0.945  13.876 -0.0020 -0.2828 -0.4163
 4736TIP3    H135623   2.836   0.960  13.888 -0.4544 -3.2021  0.6022
 4736TIP3    H235624   2.946   0.967  13.784 -1.8796 -0.5615 -0.8518
 4737TIP3   OH235625   6.395   1.839  14.879  0.1749  0.9422  0.7347
 4737TIP3    H135626   6.411   1.933  14.879 -1.1136  1.1813  1.5600
 4737TIP3    H235627   6.323   1.826  14.941  0.4962 -0.6161  0.8453
 4738TIP3   OH235628   5.602   6.053  10.856 -0.4926 -0.1157 -0.2775
 4738TIP3    H135629   5.679   6.042  10.912  0.7434  0.6109 -1.7538
 4738TIP3    H235630   5.530   6.012  10.905  0.8772 -1.0623  1.0278
 4739TIP3   OH235631   3.901   6.229   4.501 -0.4245  1.0160  0.4896
 4739TIP3    H135632   3.947   6.218   4.419 -0.9375 -0.5107  0.3761
 4739TIP3    H235633   3.897   6.141   4.539 -1.3855  1.4581  1.4883
 4740TIP3   OH235634   1.843   5.718  14.836  0.1667  0.1801 -0.0601
 4740TIP3    H135635   1.875   5.724  14.746  2.0668 -2.6571  0.3036
 4740TIP3    H235636   1.773   5.653  14.832  0.5960 -0.3290  0.5753
 4741TIP3   OH235637   4.470   3.897   3.992 -0.0884 -0.1779 -0.1230
 4741TIP3    H135638   4.451   3.915   4.084 -0.0533 -1.0914  0.0755
 4741TIP3    H235639   4.483   3.802   3.989 -0.5803 -0.2222 -1.1606
 4742TIP3   OH235640   2.285   0.824   1.973 -0.4482  0.1491  0.6332
 4742TIP3    H135641   2.306   0.822   1.880 -0.3075 -1.3773  0.6685
 4742TIP3    H235642   2.286   0.917   1.997 -0.1474  0.5289 -0.7995
 4743TIP3   OH235643   6.318   2.129  16.904 -0.0217 -0.3843  0.3780
 4743TIP3    H135644   6.300   2.199  16.841  1.7114 -0.5086 -0.3100
 4743TIP3    H235645   6.288   2.163  16.988 -0.5435  0.5864 -0.1930
 4744TIP3   OH235646   0.339   6.371   4.369  0.3434 -0.0046 -0.3569
 4744TIP3    H135647   0.273   6.317   4.412 -0.3010 -0.3442 -1.6980
 4744TIP3    H235648   0.421   6.322   4.379 -0.1896 -1.1582 -1.3442
 4745TIP3   OH235649   2.394   4.204  16.231  0.6669  0.5551  0.2059
 4745TIP3    H135650   2.434   4.253  16.160  0.5155  0.0166 -0.2583
 4745TIP3    H235651   2.445   4.123  16.236  0.2502  0.2896  0.2509
 4746TIP3   OH235652   3.423   0.844   4.895 -0.6099  0.9999 -0.2745
 4746TIP3    H135653   3.419   0.926   4.944 -0.5513  1.1520 -0.5260
 4746TIP3    H235654   3.517   0.825   4.889 -0.5299  1.7246 -1.5704
 4747TIP3   OH235655   3.670   6.028  10.631 -0.4026 -0.7145 -0.0629
 4747TIP3    H135656   3.709   5.940  10.626  1.1377 -0.1710  1.4623
 4747TIP3    H235657   3.745   6.087  10.632 -1.2831  0.4389  2.0144
 4748TIP3   OH235658   1.517   5.580   6.087  0.1040 -0.5126  0.0936
 4748TIP3    H135659   1.433   5.535   6.096  0.6912 -2.1446 -1.8786
 4748TIP3    H235660   1.521   5.606   5.995  1.2141  0.6767  0.4499
 4749TIP3   OH235661   1.259   4.374   4.216 -0.2090  0.2364  0.6152
 4749TIP3    H135662   1.254   4.284   4.248  0.9954 -0.9338 -2.1565
 4749TIP3    H235663   1.205   4.375   4.137  1.2193  1.4075 -0.4110
 4750TIP3   OH235664   6.730   2.531   1.344 -0.0535 -0.1654 -0.3563
 4750TIP3    H135665   6.752   2.451   1.297 -0.1601 -0.8241  0.6850
 4750TIP3    H235666   6.810   2.555   1.390  0.9208  2.0112 -2.9417
 4751TIP3   OH235667   6.522   3.770  15.335  0.5483 -0.2260  0.3892
 4751TIP3    H135668   6.466   3.811  15.268  1.3147 -0.4225 -0.3960
 4751TIP3    H235669   6.561   3.695  15.291  1.9099  0.2557  0.7076
 4752TIP3   OH235670   1.710   3.379   0.195 -0.3360  0.5511 -0.4844
 4752TIP3    H135671   1.722   3.441   0.123 -1.2514  0.0764 -1.0655
 4752TIP3    H235672   1.743   3.426   0.272 -2.2289  2.3332 -0.6572
 4753TIP3   OH235673   6.160   5.293   1.062 -1.2365  0.0421  0.4429
 4753TIP3    H135674   6.198   5.381   1.062 -0.4500 -0.2457 -1.4660
 4753TIP3    H235675   6.066   5.307   1.062 -1.1357  0.8445  1.4100
 4754TIP3   OH235676   0.875   4.309   2.024  0.3071 -0.4109 -0.4249
 4754TIP3    H135677   0.853   4.311   1.931 -0.7303 -1.6700 -0.2416
 4754TIP3    H235678   0.960   4.353   2.030  0.0757  0.3060 -1.8565
 4755TIP3   OH235679   5.337   4.639   4.017  1.0594  0.0196 -0.3023
 4755TIP3    H135680   5.352   4.726   3.981 -0.9389  0.8060  0.6021
 4755TIP3    H235681   5.420   4.616   4.059  1.7796  1.2689 -0.9660
 4756TIP3   OH235682   2.329   6.328   1.646  0.0859  0.0710 -0.2706
 4756TIP3    H135683   2.253   6.359   1.695 -0.3279 -2.9526  1.2900
 4756TIP3    H235684   2.296   6.308   1.559 -0.2278  1.3690 -0.4604
 4757TIP3   OH235685   6.484   6.016  11.560 -0.5645 -0.3013  0.1965
 4757TIP3    H135686   6.573   6.002  11.594 -0.4963 -0.4399 -0.0407
 4757TIP3    H235687   6.471   6.110  11.566 -0.0637 -0.1761 -0.6118
 4758TIP3   OH235688   6.536   3.192  12.897 -0.2786 -0.0200 -0.1042
 4758TIP3    H135689   6.558   3.114  12.846  0.2444 -0.8736  1.3805
 4758TIP3    H235690   6.467   3.235  12.846 -0.9976 -1.7514 -0.6701
 4759TIP3   OH235691   5.099   4.735  14.548 -0.5051  0.7374  0.0676
 4759TIP3    H135692   5.129   4.648  14.575  0.0496  0.8185 -0.2684
 4759TIP3    H235693   5.165   4.795  14.581  0.2792  0.8292 -1.5438
 4760TIP3   OH235694   1.891   2.030  11.983  0.1269  0.3378  0.7599
 4760TIP3    H135695   1.795   2.028  11.990  0.0536  0.1934 -0.1858
 4760TIP3    H235696   1.910   1.989  11.899  1.1730 -2.0368  2.0508
 4761TIP3   OH235697   2.416   4.838  13.725 -0.5597  0.1526 -0.9208
 4761TIP3    H135698   2.495   4.867  13.679 -1.7505  1.5069 -2.2250
 4761TIP3    H235699   2.354   4.910  13.712 -2.2038 -1.1359 -0.4479
 4762TIP3   OH235700   5.486   0.411   5.925 -0.5350 -0.0486 -0.5458
 4762TIP3    H135701   5.567   0.362   5.936 -0.5342  0.2977  1.2736
 4762TIP3    H235702   5.417   0.346   5.939 -0.5410  0.1660  0.4782
 4763TIP3   OH235703   1.802   4.591   4.318  0.5682  0.2020  0.3211
 4763TIP3    H135704   1.778   4.504   4.287 -0.4837  0.2310  1.0015
 4763TIP3    H235705   1.854   4.629   4.247  2.7893 -1.7116  0.7998
 4764TIP3   OH235706   3.484   3.401  15.665 -0.0775  0.1265 -0.0069
 4764TIP3    H135707   3.562   3.407  15.720 -0.7541  3.5534  0.8019
 4764TIP3    H235708   3.516   3.366  15.582  1.4411 -2.6961  1.5834
 4765TIP3   OH235709   4.554   0.550   6.555  0.0105 -0.1433  0.0146
 4765TIP3    H135710   4.632   0.516   6.511  0.0582  1.6648 -1.3940
 4765TIP3    H235711   4.558   0.645   6.542 -1.2701  0.2232  1.8667
 4766TIP3   OH235712   1.848   2.001   4.785 -0.3051  0.2594  0.6885
 4766TIP3    H135713   1.871   1.932   4.847 -0.9994 -0.4723  0.1528
 4766TIP3    H235714   1.896   1.979   4.705 -0.9847  0.0518  0.3277
 4767TIP3   OH235715   0.485   2.033  11.987 -0.3674 -0.2247 -0.2073
 4767TIP3    H135716   0.498   2.036  11.892 -0.4382  2.3127 -0.2158
 4767TIP3    H235717   0.574   2.031  12.023 -0.2132  1.8238 -0.3593
 4768TIP3   OH235718   4.089   3.720   5.118  0.0998  0.0272 -0.2766
 4768TIP3    H135719   4.063   3.633   5.086  1.4171 -0.4114 -0.2150
 4768TIP3    H235720   4.006   3.766   5.131 -0.7259 -1.6596  0.9391
 4769TIP3   OH235721   1.585   1.325   2.325 -0.3457  0.0417  0.2422
 4769TIP3    H135722   1.527   1.298   2.254 -0.6844  0.7394  0.2383
 4769TIP3    H235723   1.664   1.358   2.281 -0.4024  0.1222  0.2002
 4770TIP3   OH235724   6.678   0.959  15.228 -0.1432  0.6904 -0.4706
 4770TIP3    H135725   6.663   0.868  15.250 -0.2237  1.3908  2.9008
 4770TIP3    H235726   6.649   1.008  15.305  2.5681  3.3594 -0.9314
 4771TIP3   OH235727   1.408   2.484   4.468  0.0411 -0.4326 -0.2831
 4771TIP3    H135728   1.337   2.421   4.452  0.4919 -0.4074 -2.7484
 4771TIP3    H235729   1.432   2.470   4.559 -1.9139 -1.7008  0.1038
 4772TIP3   OH235730   6.585   4.026  16.512  0.3207 -0.0274  0.2426
 4772TIP3    H135731   6.607   4.112  16.548  1.6920  0.4132 -1.4957
 4772TIP3    H235732   6.670   3.987  16.492 -0.3251 -0.5821 -1.6474
 4773TIP3   OH235733   3.320   6.191   6.421  0.1339 -0.6037  0.3884
 4773TIP3    H135734   3.410   6.162   6.404  0.3383 -0.8057  1.7091
 4773TIP3    H235735   3.287   6.129   6.486 -0.7220 -0.1070  0.4386
 4774TIP3   OH235736   2.735   4.800  13.712 -0.2724 -0.2277 -0.1450
 4774TIP3    H135737   2.725   4.820  13.805  2.2289  2.6097 -0.3359
 4774TIP3    H235738   2.736   4.886  13.669  0.5317 -1.3507 -2.5645
 4775TIP3   OH235739   5.708   5.147  12.455  0.2250 -0.0468  0.6128
 4775TIP3    H135740   5.796   5.130  12.420 -0.8149 -1.4679 -1.5032
 4775TIP3    H235741   5.689   5.070  12.509 -1.0272 -1.5186 -1.7929
 4776TIP3   OH235742   3.864   0.679  13.756 -0.1404  0.3158  0.1123
 4776TIP3    H135743   3.792   0.620  13.777  0.0208 -0.1892 -0.7049
 4776TIP3    H235744   3.835   0.765  13.787 -0.9014  0.0338  0.1880
 4777TIP3   OH235745   0.833   6.244  16.690 -0.0491  0.5056  0.5585
 4777TIP3    H135746   0.818   6.155  16.724  1.1268 -1.0094 -2.4828
 4777TIP3    H235747   0.752   6.266  16.644  0.8197 -0.5680 -1.6316
 4778TIP3   OH235748   5.993   2.671  17.063  0.1511  0.0511 -0.2171
 4778TIP3    H135749   6.044   2.608  17.012  0.6969  0.6872 -0.4719
 4778TIP3    H235750   5.943   2.721  16.997 -0.7384 -0.4977  0.0197
 4779TIP3   OH235751   4.325   2.801  15.285  0.3248 -0.6451 -0.1284
 4779TIP3    H135752   4.340   2.784  15.192  1.3170  2.9425 -0.8074
 4779TIP3    H235753   4.233   2.779  15.300 -0.3581  0.3457 -2.4737
 4780TIP3   OH235754   0.071   2.078  15.445  0.4594 -0.7172 -0.2146
 4780TIP3    H135755   0.053   1.999  15.395  1.0504 -2.2931  1.9026
 4780TIP3    H235756   0.108   2.047  15.528 -0.4228  1.6966  1.2269
 4781TIP3   OH235757   3.719   3.590   3.567 -0.0340 -0.5676  0.6580
 4781TIP3    H135758   3.673   3.600   3.650  0.0054  0.3833  0.5764
 4781TIP3    H235759   3.750   3.499   3.567  0.5947 -0.3691  2.0126
 4782TIP3   OH235760   5.882   0.059   2.638 -0.3514 -0.2506 -0.3555
 4782TIP3    H135761   5.798   0.068   2.593 -0.5627 -0.3137  0.0274
 4782TIP3    H235762   5.879   0.122   2.709  0.2004  0.2300 -0.7453
 4783TIP3   OH235763   5.808   2.212  12.390  0.1423 -0.2223  0.0892
 4783TIP3    H135764   5.735   2.193  12.330 -0.9273  1.2578  0.8449
 4783TIP3    H235765   5.814   2.135  12.446  0.4379 -1.1655 -1.1996
 4784TIP3   OH235766   4.453   3.147   0.314 -0.3709 -0.1285 -0.3268
 4784TIP3    H135767   4.480   3.237   0.298 -2.0023  1.0428  2.6058
 4784TIP3    H235768   4.381   3.155   0.377 -0.9742 -3.4689 -0.4223
 4785TIP3   OH235769   3.420   1.945   2.607  0.1331  0.1485 -0.0905
 4785TIP3    H135770   3.367   2.023   2.627  1.6546  0.9654  0.9257
 4785TIP3    H235771   3.491   1.978   2.552 -1.1978 -1.2259 -2.8348
 4786TIP3   OH235772   4.158   3.635   4.613 -0.1121  0.6375  0.2503
 4786TIP3    H135773   4.213   3.560   4.637  1.5784  2.3190  1.8977
 4786TIP3    H235774   4.155   3.632   4.517 -0.3003 -1.6403  0.2750
 4787TIP3   OH235775   4.085   6.260  11.723  0.1351 -0.1306  0.1355
 4787TIP3    H135776   4.105   6.185  11.779 -0.8526 -0.3106  0.2624
 4787TIP3    H235777   4.029   6.316  11.776  0.8337  0.6997  0.0300
 4788TIP3   OH235778   3.004   5.959  11.449 -0.2485 -0.0221 -0.2337
 4788TIP3    H135779   3.081   6.000  11.488 -0.5580  1.1388 -0.8145
 4788TIP3    H235780   3.036   5.923  11.366  0.2574 -1.9181  0.7169
 4789TIP3   OH235781   6.654   5.628   5.486  0.0465 -0.4123  0.2976
 4789TIP3    H135782   6.701   5.672   5.558 -2.5484  3.0392  0.1317
 4789TIP3    H235783   6.710   5.642   5.409  0.9157 -0.5174  0.8914
 4790TIP3   OH235784   6.684   3.000   3.190  0.0959  0.1720  0.0096
 4790TIP3    H135785   6.673   2.988   3.285 -0.2860  2.5192  0.3069
 4790TIP3    H235786   6.596   3.021   3.158  0.4804  0.8866 -0.6083
 4791TIP3   OH235787   6.680   4.311  15.309 -0.2516  0.4276 -0.2712
 4791TIP3    H135788   6.725   4.296  15.227 -2.2333 -0.0600 -1.3384
 4791TIP3    H235789   6.631   4.231  15.325 -0.2819  0.7016  1.1362
 4792TIP3   OH235790   6.144   6.222  16.850 -0.5432 -0.3076  0.3605
 4792TIP3    H135791   6.099   6.302  16.877 -0.2583 -0.6427  1.9325
 4792TIP3    H235792   6.204   6.250  16.781 -0.3319  0.8679  0.9909
 4793TIP3   OH235793   2.724   3.430  12.977  0.5007 -1.0571 -0.7178
 4793TIP3    H135794   2.713   3.350  12.926 -1.0380 -1.8585  0.7927
 4793TIP3    H235795   2.738   3.401  13.067 -1.5958  0.3289  0.1341
 4794TIP3   OH235796   4.652   1.473   0.286  0.0272 -0.1040  0.0622
 4794TIP3    H135797   4.615   1.513   0.208  0.2047  1.5484  0.7802
 4794TIP3    H235798   4.631   1.535   0.357 -1.4966 -2.2630  1.6177
 4795TIP3   OH235799   0.816   2.881   0.863 -0.1156  0.0538  0.4267
 4795TIP3    H135800   0.903   2.895   0.826 -0.1339 -1.2669 -0.1508
 4795TIP3    H235801   0.756   2.891   0.789 -0.2786 -1.1297  0.3916
 4796TIP3   OH235802   1.082   0.198   3.783 -0.3148 -0.0012 -0.3221
 4796TIP3    H135803   1.118   0.164   3.865 -1.9147  1.1503  0.9091
 4796TIP3    H235804   1.154   0.247   3.743  0.2548  0.0800  0.7763
 4797TIP3   OH235805   0.180   2.384   3.842  0.6613  0.2884  0.0322
 4797TIP3    H135806   0.269   2.350   3.853  1.0514  1.2147 -0.1010
 4797TIP3    H235807   0.157   2.418   3.928 -1.0490 -3.2182  1.1082
 4798TIP3   OH235808   4.337   6.533   1.916 -0.2817 -0.4802 -0.3501
 4798TIP3    H135809   4.331   6.625   1.942 -0.3636 -0.4599 -0.4410
 4798TIP3    H235810   4.247   6.507   1.897 -0.2537 -0.5675 -0.3642
 4799TIP3   OH235811   0.456   3.843  13.552  0.2015  0.3695 -0.2588
 4799TIP3    H135812   0.454   3.936  13.576  1.8930  0.4608 -0.3718
 4799TIP3    H235813   0.366   3.813  13.567 -0.4609  2.0869 -0.5287
 4800TIP3   OH235814   5.527   6.200   1.687  0.0753 -0.1086  0.3364
 4800TIP3    H135815   5.543   6.168   1.598 -0.7420 -1.0436  0.5114
 4800TIP3    H235816   5.592   6.154   1.740  0.8546  0.7767  0.1861
 4801TIP3   OH235817   5.025   2.257   6.026 -0.1655  0.1241 -0.3757
 4801TIP3    H135818   5.006   2.192   6.093 -0.9384 -0.3168 -1.0057
 4801TIP3    H235819   5.108   2.296   6.053 -0.8042  0.4530  1.2076
 4802TIP3   OH235820   3.311   0.235  12.646 -0.1761  0.0184  0.4005
 4802TIP3    H135821   3.315   0.271  12.734  0.2408  0.0779  0.3574
 4802TIP3    H235822   3.317   0.140  12.659  0.4271  0.0579  0.3982
 4803TIP3   OH235823   2.412   2.169   3.190 -0.8335 -0.0343  0.0903
 4803TIP3    H135824   2.404   2.140   3.099  0.2965  1.0861 -0.3908
 4803TIP3    H235825   2.491   2.126   3.222 -1.4275 -0.7124  0.6719
 4804TIP3   OH235826   4.625   0.256   2.900 -0.8658 -0.1881  0.3760
 4804TIP3    H135827   4.548   0.313   2.901 -0.7207  0.0346 -0.2426
 4804TIP3    H235828   4.606   0.189   2.965  0.2121  2.1477  3.3133
 4805TIP3   OH235829   1.644   5.397  14.454 -0.6698 -0.0931 -0.8425
 4805TIP3    H135830   1.710   5.466  14.440  0.2465 -0.6084  0.6880
 4805TIP3    H235831   1.573   5.419  14.394 -0.2426  1.9811 -0.6519
 4806TIP3   OH235832   2.727   3.301  11.736 -0.0892 -0.5528  0.3906
 4806TIP3    H135833   2.721   3.229  11.799  0.6034 -0.3749  0.6605
 4806TIP3    H235834   2.685   3.266  11.657  0.8265 -1.4927  0.3046
 4807TIP3   OH235835   1.201   1.589   1.064  0.5070 -0.3242 -0.8141
 4807TIP3    H135836   1.130   1.575   1.127  1.6990  0.3322  0.7474
 4807TIP3    H235837   1.215   1.504   1.024  0.3909 -1.0303  0.5813
 4808TIP3   OH235838   1.163   1.892   2.604 -0.2063 -0.1960  0.0512
 4808TIP3    H135839   1.139   1.831   2.674 -1.1161 -0.5668 -0.5646
 4808TIP3    H235840   1.080   1.915   2.562  0.1370  1.3383  0.1479
 4809TIP3   OH235841   6.073   1.272   4.010  0.1516 -0.2951  0.2966
 4809TIP3    H135842   5.999   1.255   4.069  0.7332 -2.7839  0.4161
 4809TIP3    H235843   6.080   1.192   3.957  1.1085  0.9580 -1.5673
 4810TIP3   OH235844   0.957   2.998   4.206 -0.1377  0.0285 -0.9953
 4810TIP3    H135845   1.034   3.055   4.205 -0.0239 -0.0474  0.3995
 4810TIP3    H235846   0.992   2.913   4.235 -0.9566  0.4167  1.3578
 4811TIP3   OH235847   5.227   6.011  16.204 -0.1901 -0.1977 -0.1367
 4811TIP3    H135848   5.264   5.959  16.276  0.6571  0.3440 -0.1721
 4811TIP3    H235849   5.303   6.038  16.152 -0.5052  1.7610  0.3385
 4812TIP3   OH235850   6.486   5.190   4.955  0.8665 -0.6610  0.0369
 4812TIP3    H135851   6.521   5.114   5.003  1.6200  0.9835  2.2870
 4812TIP3    H235852   6.555   5.214   4.895  1.5144 -0.5171  0.8206
 4813TIP3   OH235853   4.280   0.596  12.379  0.1720 -0.0075 -0.2339
 4813TIP3    H135854   4.332   0.584  12.300  0.1659  0.0895 -0.2535
 4813TIP3    H235855   4.344   0.626  12.444  0.4240 -1.3644  0.1679
 4814TIP3   OH235856   0.930   4.806   5.168 -0.3344 -0.1937 -0.2045
 4814TIP3    H135857   0.958   4.744   5.101 -1.4117 -0.1824 -0.6756
 4814TIP3    H235858   0.835   4.810   5.160 -0.6756 -1.3303  2.3432
 4815TIP3   OH235859   3.319   5.556   5.963  0.0646 -0.0005  0.0520
 4815TIP3    H135860   3.293   5.587   5.876  1.2637 -0.4595 -0.4848
 4815TIP3    H235861   3.237   5.530   6.004 -0.6053  0.9225 -0.6595
 4816TIP3   OH235862   1.347   6.333  11.782  0.4862  0.2826 -0.1429
 4816TIP3    H135863   1.333   6.240  11.763  1.7069 -0.1863  1.1183
 4816TIP3    H235864   1.325   6.342  11.874  2.2997  0.7994  0.2695
 4817TIP3   OH235865   6.027   5.714  11.739 -0.3341 -0.3803 -0.8906
 4817TIP3    H135866   5.979   5.701  11.821  0.0498  3.8909  0.2553
 4817TIP3    H235867   5.959   5.727  11.673 -0.7083  0.5413 -0.3325
 4818TIP3   OH235868   4.081   5.130  15.534 -0.3029  0.7725 -0.2607
 4818TIP3    H135869   4.035   5.072  15.595 -2.6480  1.6215 -1.0805
 4818TIP3    H235870   4.156   5.079  15.504 -1.3524 -1.2186  0.2729
 4819TIP3   OH235871   1.051   4.633   0.761 -0.0518  0.0714  0.2139
 4819TIP3    H135872   1.021   4.685   0.686  3.0698  1.7723 -0.0347
 4819TIP3    H235873   1.089   4.555   0.722  0.3608  0.3149  0.1267
 4820TIP3   OH235874   4.505   6.396   0.446 -0.1589 -0.1677  0.0769
 4820TIP3    H135875   4.582   6.366   0.397  0.0176  0.0504  0.2167
 4820TIP3    H235876   4.452   6.443   0.381  0.5135  0.9096  0.2819
 4821TIP3   OH235877   2.137   5.077  13.959 -0.5097  0.3043 -0.2785
 4821TIP3    H135878   2.065   5.019  13.934 -0.9311  0.5313  0.3683
 4821TIP3    H235879   2.158   5.051  14.049  1.4506 -0.9828 -1.0467
 4822TIP3   OH235880   2.395   3.017   6.146  0.2036 -0.0147 -0.4666
 4822TIP3    H135881   2.401   3.009   6.051 -1.1001 -0.2482 -0.5436
 4822TIP3    H235882   2.471   2.970   6.179  1.2417  0.9422 -1.4075
 4823TIP3   OH235883   0.165   0.191  12.499  0.5964  0.6760 -0.0503
 4823TIP3    H135884   0.135   0.102  12.515 -0.2258  0.8897 -0.3684
 4823TIP3    H235885   0.088   0.237  12.467  0.6547  1.8587  1.4291
 4824TIP3   OH235886   0.932   1.238   2.627 -0.4253 -0.0104  0.5741
 4824TIP3    H135887   0.945   1.333   2.639 -0.2218 -0.0653  0.8047
 4824TIP3    H235888   0.974   1.199   2.704 -0.1758 -0.3115  0.2841
 4825TIP3   OH235889   6.290   0.378  13.935 -1.4121 -0.1015 -0.1952
 4825TIP3    H135890   6.232   0.452  13.950 -0.8663 -0.1442  2.6682
 4825TIP3    H235891   6.365   0.393  13.993 -0.2804 -1.8626 -1.0775
 4826TIP3   OH235892   4.595   3.582  13.094  0.4695 -1.1260 -0.0129
 4826TIP3    H135893   4.568   3.530  13.018  1.9609 -1.6764 -0.1975
 4826TIP3    H235894   4.690   3.588  13.086  0.5263 -0.1569  1.1660
 4827TIP3   OH235895   6.111   6.597  14.897 -0.4940 -0.3357 -0.1500
 4827TIP3    H135896   6.045   6.566  14.835  1.0812  0.7749 -2.5302
 4827TIP3    H235897   6.142   6.518  14.940 -1.5125 -1.1897 -0.9299
 4828TIP3   OH235898   4.449   3.856   4.275 -0.2641 -0.3619 -0.3662
 4828TIP3    H135899   4.383   3.925   4.273 -0.4857 -0.5709 -0.2157
 4828TIP3    H235900   4.448   3.823   4.364  1.6088  1.1310  0.2799
 4829TIP3   OH235901   3.058   0.079  15.138 -0.3749 -0.1668 -0.0564
 4829TIP3    H135902   3.107   0.013  15.090  0.8375  0.5417  0.1588
 4829TIP3    H235903   3.125   0.135  15.177 -1.3462  0.0703  1.3448
 4830TIP3   OH235904   2.144   0.967  14.840  0.3396 -0.8774 -0.1818
 4830TIP3    H135905   2.069   0.996  14.891  0.6836 -0.6665  0.2162
 4830TIP3    H235906   2.107   0.919  14.766 -0.2614  0.9903 -1.1349
 4831TIP3   OH235907   2.004   6.565  11.116 -0.5139  0.3975 -0.2995
 4831TIP3    H135908   2.093   6.592  11.139 -0.3619 -0.2276 -0.1338
 4831TIP3    H235909   1.956   6.568  11.199 -0.6577  0.7713 -0.3957
 4832TIP3   OH235910   5.750   3.121   3.315  0.0923  0.1276 -0.0873
 4832TIP3    H135911   5.705   3.141   3.398 -0.4469 -0.9578 -0.1016
 4832TIP3    H235912   5.753   3.025   3.312  2.0456  0.1593 -0.3041
 4833TIP3   OH235913   0.817   2.939   3.970  0.2783 -0.4489 -0.5251
 4833TIP3    H135914   0.864   2.960   4.051  0.4988  0.9017 -0.9869
 4833TIP3    H235915   0.742   2.999   3.970  0.0498 -0.7260 -1.1188
 4834TIP3   OH235916   2.825   5.458  11.103  0.1356 -0.4154 -0.0383
 4834TIP3    H135917   2.917   5.475  11.080 -0.4201  1.1607 -1.2972
 4834TIP3    H235918   2.822   5.365  11.126  2.2194 -0.2921  0.9732
 4835TIP3   OH235919   1.501   6.088   3.307  0.0262 -0.3380 -0.1541
 4835TIP3    H135920   1.486   6.041   3.225 -0.0747 -0.7240  0.0844
 4835TIP3    H235921   1.422   6.142   3.318 -0.6481 -1.4013  0.4423
 4836TIP3   OH235922   4.129   3.173   3.459 -0.1406 -0.2183  0.1479
 4836TIP3    H135923   4.214   3.157   3.416 -0.1099  0.9642 -0.2988
 4836TIP3    H235924   4.095   3.250   3.414 -2.2758 -1.6633 -0.8554
 4837TIP3   OH235925   0.511   1.327  16.095 -0.0497 -0.5112  0.2762
 4837TIP3    H135926   0.509   1.316  16.000 -1.4449 -1.0303  0.3424
 4837TIP3    H235927   0.423   1.355  16.118  0.2333 -0.5168  1.4385
 4838TIP3   OH235928   0.211   5.628   5.469 -0.7321 -0.1944  1.0618
 4838TIP3    H135929   0.155   5.552   5.454 -1.3153  0.1499  1.4555
 4838TIP3    H235930   0.298   5.599   5.444 -0.7261 -1.3700  2.3284
 4839TIP3   OH235931   4.293   5.759   0.805 -0.5083  0.5801 -0.0527
 4839TIP3    H135932   4.231   5.799   0.867  0.3362  0.5252  0.8578
 4839TIP3    H235933   4.372   5.811   0.814 -0.3329  0.5012 -1.0308
 4840TIP3   OH235934   6.017   3.976   6.460  0.1000  0.1213 -0.0485
 4840TIP3    H135935   6.054   4.064   6.468 -0.2030  0.2494 -0.0201
 4840TIP3    H235936   6.049   3.929   6.537 -0.6223  0.5385  0.5203
 4841TIP3   OH235937   2.551   2.342  14.828  0.4289  0.8459 -0.5601
 4841TIP3    H135938   2.594   2.427  14.828  0.9185  0.6032 -0.6594
 4841TIP3    H235939   2.623   2.279  14.837  0.0072  0.4722  0.2730
 4842TIP3   OH235940   4.849   0.392   6.665  0.1626 -0.6088 -0.2240
 4842TIP3    H135941   4.813   0.389   6.577  0.2351  0.6247 -0.3092
 4842TIP3    H235942   4.943   0.380   6.653  0.6611  2.7470 -0.7074
 4843TIP3   OH235943   1.746   5.730  14.179 -0.3419  0.2369  0.0878
 4843TIP3    H135944   1.813   5.699  14.119 -0.2435  4.3671 -2.2632
 4843TIP3    H235945   1.669   5.746  14.125 -2.1291 -0.9812  2.0974
 4844TIP3   OH235946   2.891   2.197   2.534 -0.2030  0.0172 -0.5926
 4844TIP3    H135947   2.979   2.165   2.514  0.1484  0.4726  0.1950
 4844TIP3    H235948   2.833   2.124   2.513  0.2762 -0.0362 -1.8449
 4845TIP3   OH235949   3.848   5.274  13.198  0.0046 -0.1291  0.1161
 4845TIP3    H135950   3.795   5.240  13.126 -0.5616  1.8714 -0.4876
 4845TIP3    H235951   3.785   5.315  13.257  0.6895  0.4626  0.4529
 4846TIP3   OH235952   5.778   6.128   5.510 -0.5130  0.1840  0.4017
 4846TIP3    H135953   5.760   6.064   5.442 -1.0082 -0.1523  0.8462
 4846TIP3    H235954   5.771   6.079   5.592  1.2933  0.2899  0.6644
 4847TIP3   OH235955   0.793   5.744   2.799 -0.7118 -0.0444 -0.0975
 4847TIP3    H135956   0.697   5.738   2.808 -0.7946  1.3602  0.1773
 4847TIP3    H235957   0.822   5.784   2.880 -0.0281  0.7212 -0.7043
 4848TIP3   OH235958   6.092   1.225  16.664 -0.1473  0.3858  0.1249
 4848TIP3    H135959   6.170   1.209  16.609  0.5830  0.8588  0.9931
 4848TIP3    H235960   6.050   1.140  16.671  0.4993  0.0424 -0.0542
 4849TIP3   OH235961   2.867   0.109  15.350 -0.3811 -0.0308 -0.3933
 4849TIP3    H135962   2.922   0.152  15.285  0.5991  0.9965  1.0482
 4849TIP3    H235963   2.810   0.179  15.383 -1.0070 -0.5815 -0.2893
 4850TIP3   OH235964   3.974   6.212   2.251 -0.0037 -0.1878 -0.0695
 4850TIP3    H135965   4.051   6.229   2.304  1.0422 -0.0490 -1.5544
 4850TIP3    H235966   3.971   6.284   2.188 -0.7468 -0.7344 -0.6924
 4851TIP3   OH235967   4.077   2.741   4.625 -0.1522 -0.0893  0.4533
 4851TIP3    H135968   4.087   2.646   4.635 -0.2878 -0.2426 -0.7179
 4851TIP3    H235969   4.157   2.768   4.579 -1.1135 -0.0145 -1.2706
 4852TIP3   OH235970   5.381   4.845   2.648  0.3201  0.6531 -0.7046
 4852TIP3    H135971   5.320   4.780   2.614  0.5584  0.7980 -1.4219
 4852TIP3    H235972   5.448   4.794   2.693  0.4814  0.4018 -1.2250
 4853TIP3   OH235973   4.233   2.128   3.692 -0.3228 -0.7401  0.3345
 4853TIP3    H135974   4.180   2.205   3.675  1.1057  0.2277  0.0649
 4853TIP3    H235975   4.198   2.092   3.773 -1.2750 -0.0561  0.2432
 4854TIP3   OH235976   3.997   4.772  12.580  0.0734  0.3403 -0.1470
 4854TIP3    H135977   3.919   4.728  12.545  0.6597  0.2009 -1.3445
 4854TIP3    H235978   4.057   4.778  12.505  0.8641  1.2488  0.5299
 4855TIP3   OH235979   3.626   3.861   2.315  0.1737 -0.2290  0.6864
 4855TIP3    H135980   3.599   3.845   2.225  3.0917  0.5713 -0.4603
 4855TIP3    H235981   3.706   3.809   2.326  2.7507  3.3983  1.0097
 4856TIP3   OH235982   1.145   6.004  13.720  0.5189  0.2956  0.1778
 4856TIP3    H135983   1.086   5.957  13.662 -0.4015  0.2695  1.0997
 4856TIP3    H235984   1.128   6.097  13.702 -0.1443  0.2925  0.7583
 4857TIP3   OH235985   3.220   1.288   4.528 -0.1763  0.4862  0.3535
 4857TIP3    H135986   3.241   1.198   4.504 -0.4960  0.4563  0.1738
 4857TIP3    H235987   3.124   1.291   4.526 -0.1604  1.3645 -1.6656
 4858TIP3   OH235988   4.178   3.046   6.556 -0.3950 -0.6913 -0.6060
 4858TIP3    H135989   4.272   3.046   6.578 -0.1505  0.3641 -1.5588
 4858TIP3    H235990   4.148   2.959   6.580  0.1823 -0.1877  2.3448
 4859TIP3   OH235991   5.323   4.192   0.256  0.2158 -0.6463 -0.0650
 4859TIP3    H135992   5.382   4.116   0.253  0.8042 -0.1777 -1.1356
 4859TIP3    H235993   5.235   4.154   0.261  0.3248 -1.5205 -2.9275
 4860TIP3   OH235994   4.195   1.681  15.612 -0.4788  0.1963  0.2421
 4860TIP3    H135995   4.185   1.694  15.707  0.2940  2.3016  0.0983
 4860TIP3    H235996   4.278   1.635  15.602 -0.1253  0.7439  0.5794
 4861TIP3   OH235997   0.505   4.272  15.439 -0.2220  0.1307 -0.0130
 4861TIP3    H135998   0.578   4.221  15.473  1.5372  1.5634 -1.4505
 4861TIP3    H235999   0.440   4.207  15.413  0.0653 -1.1421  2.1987
 4862TIP3   OH236000   3.392   5.064   4.336 -0.6126  0.5917  0.8179
 4862TIP3    H136001   3.315   5.120   4.341 -1.5350 -0.7137  1.7113
 4862TIP3    H236002   3.460   5.112   4.383 -1.1576  1.3260  0.8633
 4863TIP3   OH236003   3.504   1.557  11.025 -0.1406  0.1160  0.1617
 4863TIP3    H136004   3.552   1.481  10.991  0.5390 -0.3166  1.9570
 4863TIP3    H236005   3.428   1.565  10.967  1.2489 -0.1483 -1.8113
 4864TIP3   OH236006   3.610   4.572   2.841 -0.3566 -0.0387 -0.1642
 4864TIP3    H136007   3.584   4.651   2.793  0.6684  0.2108 -0.3264
 4864TIP3    H236008   3.696   4.549   2.806  0.5166  0.2602  1.6851
 4865TIP3   OH236009   1.025   0.235  11.880  0.2896 -0.6648 -0.1891
 4865TIP3    H136010   1.024   0.314  11.935  1.1108 -0.1942 -0.8433
 4865TIP3    H236011   0.934   0.224  11.854  0.3452  0.8169 -1.1365
 4866TIP3   OH236012   1.030   2.300  16.955  0.3067 -0.1809  0.0277
 4866TIP3    H136013   1.058   2.268  16.869 -0.3880  2.1191 -1.1246
 4866TIP3    H236014   0.973   2.374  16.935 -2.4993 -1.5121  2.3787
 4867TIP3   OH236015   0.863   1.740   0.534 -0.1925 -0.0663 -0.1066
 4867TIP3    H136016   0.865   1.698   0.620 -0.5825 -0.4046 -0.2566
 4867TIP3    H236017   0.836   1.671   0.474 -2.6622  0.7873 -0.1008
 4868TIP3   OH236018   4.372   0.700  11.549 -0.4580 -0.4817  0.1864
 4868TIP3    H136019   4.348   0.704  11.456  0.3966 -0.4735 -0.0405
 4868TIP3    H236020   4.351   0.610  11.574  0.0459 -0.7179 -0.2240
 4869TIP3   OH236021   4.559   0.672  11.755 -0.0901 -0.6333  0.5098
 4869TIP3    H136022   4.485   0.697  11.698 -0.5586  0.0817  1.4070
 4869TIP3    H236023   4.517   0.635  11.833  0.5170 -0.7510  0.7819
 4870TIP3   OH236024   2.066   4.335   2.459  0.6613 -0.0882  0.4171
 4870TIP3    H136025   2.061   4.259   2.518  0.6068 -0.5271 -0.1395
 4870TIP3    H236026   1.975   4.348   2.431  0.6087  0.4382  0.8176
 4871TIP3   OH236027   2.745   5.881   4.204 -0.5831 -0.3737 -0.0693
 4871TIP3    H136028   2.791   5.964   4.211  1.6321 -1.4215 -1.2051
 4871TIP3    H236029   2.694   5.889   4.123 -1.8868  0.5111  0.7988
 4872TIP3   OH236030   4.294   3.696  14.909  0.3047 -0.0010  0.5604
 4872TIP3    H136031   4.354   3.698  14.834  0.0062  0.3487  0.3261
 4872TIP3    H236032   4.225   3.758  14.886 -0.9435 -1.4693  0.1774
 4873TIP3   OH236033   3.743   0.759   4.789 -0.4009  0.6100  0.1443
 4873TIP3    H136034   3.739   0.853   4.807 -1.3163  0.6223 -0.0873
 4873TIP3    H236035   3.781   0.721   4.869  0.9497  1.2664 -0.1473
 4874TIP3   OH236036   5.098   1.114  15.411 -0.0356 -0.2777 -0.3693
 4874TIP3    H136037   5.075   1.021  15.422 -1.6900  0.1203 -0.2576
 4874TIP3    H236038   5.014   1.160  15.411  0.7805  1.2920  0.1345
 4875TIP3   OH236039   6.778   2.920   5.354  0.6333  0.1857  0.4162
 4875TIP3    H136040   6.841   2.970   5.406 -0.1585  0.1109  1.4803
 4875TIP3    H236041   6.788   2.830   5.385  1.1620 -0.1264 -0.6036
 4876TIP3   OH236042   2.389   3.863  13.782  0.3720 -0.3395 -0.0409
 4876TIP3    H136043   2.305   3.895  13.814  0.2244 -0.1987 -0.5624
 4876TIP3    H236044   2.422   3.808  13.853  0.2780  0.3478  0.5602
 4877TIP3   OH236045   1.841   3.963  13.233  0.0792  0.6434 -0.1387
 4877TIP3    H136046   1.923   3.982  13.186  0.2013  0.5390  0.0315
 4877TIP3    H236047   1.774   3.966  13.165  0.3879 -0.6320 -0.5269
 4878TIP3   OH236048   0.104   5.015  10.649 -0.8316  0.0788  0.2410
 4878TIP3    H136049   0.153   5.049  10.574 -0.0140  1.1476  1.2425
 4878TIP3    H236050   0.043   5.085  10.672 -1.5588 -0.5156  0.1704
 4879TIP3   OH236051   0.975   3.676   2.336 -0.1784 -0.2678 -0.0772
 4879TIP3    H136052   0.912   3.639   2.399 -0.7802 -0.5372 -0.8115
 4879TIP3    H236053   0.944   3.644   2.251  0.8190 -0.1956 -0.4775
 4880TIP3   OH236054   4.115   1.198  14.994  0.0770 -0.0666 -0.4485
 4880TIP3    H136055   4.037   1.234  15.037  0.3306  0.6130 -0.5358
 4880TIP3    H236056   4.089   1.111  14.966 -0.6022  0.0919 -0.3317
 4881TIP3   OH236057   2.797   4.794   3.671 -0.4629  0.8254  0.4986
 4881TIP3    H136058   2.844   4.874   3.647 -0.3466  1.0484  1.4257
 4881TIP3    H236059   2.863   4.725   3.670 -0.4175  0.8717  0.3679
 4882TIP3   OH236060   5.128   5.336  14.969  0.0973 -0.0691 -0.6373
 4882TIP3    H136061   5.074   5.373  15.039 -0.3165  0.4898 -1.2394
 4882TIP3    H236062   5.207   5.390  14.968  0.1706 -0.1737 -0.5008
 4883TIP3   OH236063   4.520   5.798  11.587  0.1215 -0.1396  0.0010
 4883TIP3    H136064   4.612   5.816  11.567  0.3680 -0.6463  0.6117
 4883TIP3    H236065   4.517   5.794  11.683 -0.9529  1.9276  0.0926
 4884TIP3   OH236066   3.281   3.433  13.232  0.1797 -0.0390 -0.0137
 4884TIP3    H136067   3.208   3.378  13.203  0.1911 -1.2386  2.0084
 4884TIP3    H236068   3.244   3.488  13.301  0.5315  1.4982 -0.9989
 4885TIP3   OH236069   5.038   0.672  12.885  0.4070  0.6451 -0.6115
 4885TIP3    H136070   4.951   0.651  12.851  0.5935  2.1328 -2.1506
 4885TIP3    H236071   5.027   0.674  12.980 -1.7601  2.7061 -0.8191
 4886TIP3   OH236072   4.260   6.455  11.584 -0.0048  0.0569  0.0619
 4886TIP3    H136073   4.245   6.488  11.495  0.8724 -0.4889 -0.3109
 4886TIP3    H236074   4.174   6.454  11.625 -0.3671  0.6614 -0.6651
 4887TIP3   OH236075   5.262   2.942  12.807  0.8474  0.2762 -0.1867
 4887TIP3    H136076   5.209   2.988  12.742  1.8677  0.3779 -0.9756
 4887TIP3    H236077   5.231   2.851  12.802  0.2859  0.4582 -0.1412
 4888TIP3   OH236078   5.458   1.864  14.609  0.4319 -0.0109 -0.1915
 4888TIP3    H136079   5.475   1.849  14.702 -0.1199 -2.7169 -0.4499
 4888TIP3    H236080   5.380   1.812  14.590  0.7424  0.1935 -2.2346
 4889TIP3   OH236081   2.558   2.394   4.943  0.7867  0.7087 -0.0973
 4889TIP3    H136082   2.584   2.452   5.014 -1.3420  0.8238  0.6322
 4889TIP3    H236083   2.580   2.306   4.974 -0.2298  0.7507  0.7556
 4890TIP3   OH236084   3.391   3.713  11.315  0.3902  0.4852  0.6160
 4890TIP3    H136085   3.405   3.658  11.392  0.5569  0.6928  0.7344
 4890TIP3    H236086   3.400   3.653  11.241  0.1132  0.2605  0.7587
 4891TIP3   OH236087   5.587   0.847  11.247  0.3886  0.4312  0.5441
 4891TIP3    H136088   5.647   0.820  11.178  1.5066 -1.7235  2.2230
 4891TIP3    H236089   5.505   0.866  11.202  1.6964  1.3628 -1.5885
 4892TIP3   OH236090   6.583   2.701   4.870  0.1401  0.3269 -0.0803
 4892TIP3    H136091   6.541   2.757   4.937  0.4437  0.8529 -0.3211
 4892TIP3    H236092   6.619   2.763   4.807  1.1209 -0.1217  0.0240
 4893TIP3   OH236093   0.497   3.940  10.852 -0.2759 -0.3570  0.5572
 4893TIP3    H136094   0.502   4.026  10.811  0.5651 -0.6204  0.0837
 4893TIP3    H236095   0.586   3.905  10.846  0.0997 -0.0948  3.2788
 4894TIP3   OH236096   5.238   6.798  15.610 -0.2864 -0.1162 -0.2609
 4894TIP3    H136097   5.230   6.750  15.692 -2.1002 -0.2915 -0.5016
 4894TIP3    H236098   5.153   6.840  15.597  0.7152  1.8516 -0.8940
 4895TIP3   OH236099   0.951   1.458   5.282 -0.1971  0.0773  0.7698
 4895TIP3    H136100   0.962   1.366   5.257  1.4130  0.4824 -0.1375
 4895TIP3    H236101   0.958   1.458   5.378  1.8956 -0.5278  0.6618
 4896TIP3   OH236102   4.499   3.202   2.617 -0.2586  0.1314  0.3004
 4896TIP3    H136103   4.540   3.116   2.628 -1.3335 -0.6792 -1.6439
 4896TIP3    H236104   4.445   3.213   2.695  0.0344 -0.8711  0.6604
 4897TIP3   OH236105   2.726   3.883   4.127 -0.7133 -0.6279  0.0569
 4897TIP3    H136106   2.704   3.958   4.182  2.2024  0.3484  0.0471
 4897TIP3    H236107   2.778   3.920   4.056  1.1110 -2.6592  0.2415
 4898TIP3   OH236108   1.727   0.029   2.714  0.4738 -0.2362 -0.4002
 4898TIP3    H136109   1.781   0.045   2.792 -0.4794  0.0138  0.2200
 4898TIP3    H236110   1.679   0.110   2.701  1.4970  0.1605 -1.9826
 4899TIP3   OH236111   1.134   3.698   5.119 -0.7373 -0.1409  0.5191
 4899TIP3    H136112   1.226   3.720   5.101 -0.7686 -1.0588 -0.9630
 4899TIP3    H236113   1.139   3.619   5.172 -0.6361 -1.1986 -0.9998
 4900TIP3   OH236114   1.425   3.381   5.089  0.4339  0.7573  0.3583
 4900TIP3    H136115   1.389   3.293   5.079  1.7392  0.2616 -0.2439
 4900TIP3    H236116   1.385   3.414   5.170  0.4542 -0.6673  0.9866
 4901TIP3   OH236117   2.226   6.253   5.570  0.3878 -0.2760  0.1582
 4901TIP3    H136118   2.150   6.204   5.603 -0.1883  1.2573  1.1953
 4901TIP3    H236119   2.190   6.311   5.503  0.5639  0.6814  0.8693
 4902TIP3   OH236120   4.118   0.766   2.305 -0.5944  0.2872  0.0827
 4902TIP3    H136121   4.206   0.729   2.294 -0.5202  0.2900  0.6318
 4902TIP3    H236122   4.116   0.841   2.244  1.0011  2.3835  2.3898
 4903TIP3   OH236123   3.954   2.435  11.101  0.0838  0.1550  0.4779
 4903TIP3    H136124   3.957   2.360  11.042  3.4476  0.8911 -0.5426
 4903TIP3    H236125   3.931   2.510  11.045 -2.8922  0.0755  1.4195
 4904TIP3   OH236126   5.523   4.735  11.501  0.6071 -0.1853 -0.5002
 4904TIP3    H136127   5.447   4.704  11.550  0.1840  1.1667 -0.2545
 4904TIP3    H236128   5.492   4.743  11.411  0.7603 -0.5997 -0.5924
 4905TIP3   OH236129   1.723   1.859   0.231 -0.1111 -0.4458 -0.7967
 4905TIP3    H136130   1.632   1.831   0.242  0.4661 -2.3631 -0.4794
 4905TIP3    H236131   1.748   1.893   0.317 -0.7160  0.7898 -1.0843
 4906TIP3   OH236132   2.660   1.917  15.765 -1.2150  0.2367  0.0654
 4906TIP3    H136133   2.565   1.928  15.769 -1.5075 -1.5917 -0.9432
 4906TIP3    H236134   2.685   1.888  15.852 -1.6727  0.0501  0.1337
 4907TIP3   OH236135   0.171   1.250   2.244  0.0151 -0.4780 -0.0682
 4907TIP3    H136136   0.186   1.216   2.332  0.4825  2.4285  1.1008
 4907TIP3    H236137   0.257   1.278   2.214 -0.2961 -0.5191 -1.0366
 4908TIP3   OH236138   6.423   5.563   5.090 -0.5159 -0.1020  0.4600
 4908TIP3    H136139   6.371   5.496   5.045 -0.1294 -0.1885  0.1423
 4908TIP3    H236140   6.443   5.525   5.176 -0.8891 -0.1098  0.5452
 4909TIP3   OH236141   2.721   0.691   4.447  0.0532 -0.1414  0.5036
 4909TIP3    H136142   2.660   0.764   4.437 -1.5586 -1.1890  1.9482
 4909TIP3    H236143   2.728   0.653   4.360 -0.5554  0.6329  0.1031
 4910TIP3   OH236144   2.213   5.699   6.128 -0.3313 -0.1734  1.0485
 4910TIP3    H136145   2.187   5.627   6.186 -2.0420  0.7535  1.5024
 4910TIP3    H236146   2.187   5.778   6.175 -1.7010  0.6236 -0.9206
 4911TIP3   OH236147   1.879   5.992  12.181  0.6202  0.5204 -0.2124
 4911TIP3    H136148   1.851   5.924  12.120 -0.8898  1.5485 -0.7376
 4911TIP3    H236149   1.815   5.988  12.252  0.1111  1.7564 -0.5610
 4912TIP3   OH236150   1.193   4.525   2.944 -0.0404  0.0394  0.0470
 4912TIP3    H136151   1.214   4.441   2.986  0.0505  0.4588  0.8433
 4912TIP3    H236152   1.147   4.500   2.864 -0.3464 -0.7690  0.4605
 4913TIP3   OH236153   4.313   3.477  11.279 -0.2101  0.0971  0.0800
 4913TIP3    H136154   4.325   3.557  11.330 -0.8169  0.5761 -0.5026
 4913TIP3    H236155   4.312   3.507  11.188 -1.2493 -0.4519 -0.1052
 4914TIP3   OH236156   4.459   0.634   4.835 -0.3275  0.0851 -0.1374
 4914TIP3    H136157   4.445   0.729   4.829 -2.0025 -0.2032 -1.4691
 4914TIP3    H236158   4.434   0.601   4.749  0.3978 -1.5693  0.2574
 4915TIP3   OH236159   1.809   5.631   2.764 -0.1779 -0.3910  0.3082
 4915TIP3    H136160   1.881   5.635   2.701 -0.7542  0.1418 -0.3451
 4915TIP3    H236161   1.791   5.537   2.775 -0.9365 -0.4883 -1.3777
 4916TIP3   OH236162   1.662   4.665  11.691  0.0674  0.0824  0.0277
 4916TIP3    H136163   1.637   4.679  11.782  1.0323  2.8861 -0.0337
 4916TIP3    H236164   1.596   4.713  11.640  0.1915 -0.4770 -0.6762
 4917TIP3   OH236165   2.739   0.603  17.126  0.2038 -0.2461  0.0410
 4917TIP3    H136166   2.669   0.538  17.117 -2.1069  2.0842 -0.0253
 4917TIP3    H236167   2.772   0.616  17.037 -0.5999 -0.0221 -0.2287
 4918TIP3   OH236168   2.737   1.485   3.777 -0.0638  0.1381  0.1020
 4918TIP3    H136169   2.717   1.574   3.749  0.9787  0.5999  0.7899
 4918TIP3    H236170   2.661   1.459   3.829 -0.2211  0.7506  0.1817
 4919TIP3   OH236171   5.108   0.477   3.403  0.2336 -0.3343  0.1582
 4919TIP3    H136172   5.062   0.482   3.487  0.1241  0.7792  0.0516
 4919TIP3    H236173   5.082   0.393   3.365 -2.4330  0.6301 -0.3145
 4920TIP3   OH236174   0.608   6.324  10.570 -0.1811  0.3718 -0.2528
 4920TIP3    H136175   0.679   6.385  10.552 -1.0479  2.2715  2.1735
 4920TIP3    H236176   0.652   6.243  10.598  0.9919  0.7482 -0.9348
 4921TIP3   OH236177   1.083   1.193  16.225 -0.4955  0.1011  0.5482
 4921TIP3    H136178   1.166   1.178  16.271  0.7022  2.3218 -0.7355
 4921TIP3    H236179   1.105   1.253  16.155 -3.0372 -0.0743 -0.4981
 4922TIP3   OH236180   1.316   4.069  17.157  0.7836 -0.5382 -0.1504
 4922TIP3    H136181   1.354   4.040  17.240 -0.1213  1.3735  1.0051
 4922TIP3    H236182   1.320   4.165  17.161 -1.8271 -0.3217 -1.0432
 4923TIP3   OH236183   2.279   4.317   5.586 -0.4256  0.1524  0.5838
 4923TIP3    H136184   2.199   4.345   5.632 -1.5839 -2.2382  0.1648
 4923TIP3    H236185   2.317   4.398   5.553 -1.4501  1.5977  2.6974
 4924TIP3   OH236186   5.429   4.531   2.854 -0.0357 -0.3269 -0.5249
 4924TIP3    H136187   5.510   4.579   2.834 -0.1306 -0.6377 -1.7518
 4924TIP3    H236188   5.442   4.498   2.943  0.8398  0.3181 -0.3945
 4925TIP3   OH236189   2.331   4.262   6.182 -0.4974 -0.2208 -0.0508
 4925TIP3    H136190   2.402   4.216   6.136 -0.2144  2.1212 -2.1491
 4925TIP3    H236191   2.371   4.344   6.211 -1.6204 -0.1466  1.3712
 4926TIP3   OH236192   2.543   0.500   2.775  0.2452 -0.0475 -1.0690
 4926TIP3    H136193   2.585   0.423   2.734 -0.0501  0.5347 -2.5411
 4926TIP3    H236194   2.601   0.572   2.753 -0.8895  0.5827 -2.1060
 4927TIP3   OH236195   3.621   4.105  13.138  0.1960 -0.2388  0.1651
 4927TIP3    H136196   3.538   4.107  13.090  0.4062 -1.1574 -0.2480
 4927TIP3    H236197   3.684   4.146  13.079  0.3623 -0.9743 -0.1771
 4928TIP3   OH236198   2.250   6.618  14.553 -0.8327 -0.1802 -0.0725
 4928TIP3    H136199   2.244   6.610  14.649 -0.3127 -0.2220 -0.0418
 4928TIP3    H236200   2.332   6.666  14.538 -0.8994 -0.1954 -0.4995
 4929TIP3   OH236201   2.068   1.284   5.008 -0.8385  0.1962  0.2793
 4929TIP3    H136202   2.000   1.218   5.019  0.5770 -1.7011 -1.4449
 4929TIP3    H236203   2.090   1.312   5.096 -0.6171 -2.6467  1.2329
 4930TIP3   OH236204   6.142   6.607  12.459  0.0828 -0.5475 -0.6214
 4930TIP3    H136205   6.069   6.658  12.423 -0.3279 -0.3840  0.3984
 4930TIP3    H236206   6.152   6.534  12.398 -1.1280 -0.7252 -0.6407
 4931TIP3   OH236207   3.909   3.863   4.475 -0.1227  0.4891 -0.3031
 4931TIP3    H136208   3.827   3.876   4.426  0.8794  2.5148 -1.6267
 4931TIP3    H236209   3.957   3.798   4.424 -0.0806  0.7953 -0.6555
 4932TIP3   OH236210   2.899   3.696   0.197  0.8416 -0.5500 -0.2209
 4932TIP3    H136211   2.850   3.667   0.120 -0.2442 -1.5174  0.8058
 4932TIP3    H236212   2.854   3.775   0.227 -0.1286 -1.4372  0.7205
 4933TIP3   OH236213   0.834   3.654   5.410  0.3906 -0.3090  0.3827
 4933TIP3    H136214   0.908   3.684   5.359  1.8714 -0.0483  2.5465
 4933TIP3    H236215   0.799   3.732   5.452  1.7862 -0.9365  2.9134
 4934TIP3   OH236216   3.668   1.562   1.052  0.8639 -0.2680 -0.3373
 4934TIP3    H136217   3.722   1.496   1.010  0.3439 -0.9823  0.0998
 4934TIP3    H236218   3.678   1.640   0.997  0.5377 -1.0478 -1.5320
 4935TIP3   OH236219   3.401   6.385   2.300  0.4347  0.2337 -0.0232
 4935TIP3    H136220   3.385   6.462   2.355  1.1918  1.4546 -1.4260
 4935TIP3    H236221   3.457   6.418   2.230 -0.8421 -1.1505 -1.7756
 4936TIP3   OH236222   5.389   0.731   5.481  0.6770  0.1173 -0.6338
 4936TIP3    H136223   5.458   0.764   5.538  0.8787  0.0951 -0.8647
 4936TIP3    H236224   5.396   0.636   5.488  0.3281  0.1175 -0.2476
 4937TIP3   OH236225   5.029   2.877  13.181  0.1230 -0.1418  0.6957
 4937TIP3    H136226   5.106   2.932  13.197  0.0144  0.2978 -0.2315
 4937TIP3    H236227   5.005   2.896  13.090  0.9672 -2.7962 -0.1765
 4938TIP3   OH236228   2.439   2.072  12.942 -0.7937 -0.2731 -0.1274
 4938TIP3    H136229   2.459   2.086  12.849  0.9928  0.7060  0.3530
 4938TIP3    H236230   2.351   2.106  12.953 -0.5615  0.7494 -1.2345
 4939TIP3   OH236231   3.554   5.434   4.660  0.5420 -0.3303  0.2991
 4939TIP3    H136232   3.619   5.464   4.723 -0.8463  0.3572  1.4808
 4939TIP3    H236233   3.525   5.350   4.694  0.5233 -0.4386  0.0144
 4940TIP3   OH236234   2.204   1.273  11.839  0.1909 -0.2536  1.0991
 4940TIP3    H136235   2.157   1.224  11.771 -1.4801 -0.9101  2.6313
 4940TIP3    H236236   2.221   1.209  11.908  3.7012 -0.1095  0.5592
 4941TIP3   OH236237   0.202   5.354  11.353  0.2187 -0.3575  0.3534
 4941TIP3    H136238   0.149   5.278  11.331  0.8443 -1.0283  1.0681
 4941TIP3    H236239   0.239   5.383  11.270 -0.2849 -0.6372  0.0292
 4942TIP3   OH236240   0.455   0.241   5.695 -0.1040 -0.1579  0.4468
 4942TIP3    H136241   0.383   0.276   5.747 -0.5081 -1.1573  0.5861
 4942TIP3    H236242   0.427   0.152   5.672  0.6627 -0.2153 -0.3243
 4943TIP3   OH236243   5.267   2.422  12.647  0.0724 -0.4540 -0.0446
 4943TIP3    H136244   5.338   2.367  12.616 -1.3320 -1.2107 -2.1516
 4943TIP3    H236245   5.281   2.428  12.741  1.7611 -2.2269 -0.1085
 4944TIP3   OH236246   0.155   6.684   0.154  0.1535 -0.0708  0.0948
 4944TIP3    H136247   0.181   6.743   0.082 -1.4849 -0.8138 -1.1715
 4944TIP3    H236248   0.190   6.599   0.129 -0.0954 -0.2577  0.3767
 4945TIP3   OH236249   1.750   1.178  13.779 -0.2506  0.6463  0.2295
 4945TIP3    H136250   1.843   1.179  13.757 -0.4135  1.6830 -0.4959
 4945TIP3    H236251   1.723   1.269  13.769 -1.0844  0.5593  1.5887
 4946TIP3   OH236252   2.096   3.109  16.353 -0.0155 -0.0980 -0.5942
 4946TIP3    H136253   2.037   3.086  16.425 -0.7621 -0.4900 -1.3187
 4946TIP3    H236254   2.101   3.205  16.357 -0.5544 -0.0739 -0.4180
 4947TIP3   OH236255   3.951   3.806  13.895 -0.5539  0.1725  0.0528
 4947TIP3    H136256   4.004   3.852  13.830 -0.7173  1.0654  0.5465
 4947TIP3    H236257   4.005   3.730  13.919  0.6352  1.2080  0.7531
 4948TIP3   OH236258   3.815   3.700  12.753 -1.2414 -0.7850  0.4582
 4948TIP3    H136259   3.888   3.740  12.706 -0.8106 -1.1246  0.8230
 4948TIP3    H236260   3.768   3.650  12.686 -1.0851 -0.6383  0.2387
 4949TIP3   OH236261   6.359   1.150  16.956  0.3105 -0.1329 -0.7028
 4949TIP3    H136262   6.274   1.193  16.950  0.8614  1.4020  1.2785
 4949TIP3    H236263   6.414   1.196  16.892 -0.2904 -1.0863 -1.9395
 4950TIP3   OH236264   1.851   4.010   3.415 -0.7050 -0.4648  0.2268
 4950TIP3    H136265   1.757   4.030   3.417 -0.9738 -1.5241 -0.7234
 4950TIP3    H236266   1.884   4.040   3.500 -2.0691 -0.8453  0.9176
 4951TIP3   OH236267   4.253   2.704  12.128 -0.4539 -0.5910  0.3922
 4951TIP3    H136268   4.199   2.656  12.190 -1.7982 -0.0806 -0.3486
 4951TIP3    H236269   4.291   2.775  12.180 -0.0660 -1.2479  1.0283
 4952TIP3   OH236270   6.215   6.538   0.363  0.2825  0.6449  0.0681
 4952TIP3    H136271   6.134   6.534   0.311  0.2547 -1.4876  0.1841
 4952TIP3    H236272   6.283   6.562   0.300  0.0290 -0.5737 -0.6976
 4953TIP3   OH236273   4.517   4.524  15.638  0.6847  0.5148 -0.3226
 4953TIP3    H136274   4.540   4.603  15.685  1.2001  0.2495 -0.1252
 4953TIP3    H236275   4.588   4.511  15.575  0.5448  0.2699 -0.4345
 4954TIP3   OH236276   2.277   0.964  16.284 -0.2386  0.5931  0.2530
 4954TIP3    H136277   2.231   1.018  16.219 -0.3139  0.0281 -0.1735
 4954TIP3    H236278   2.354   1.016  16.309 -0.4062  0.9722 -0.0205
 4955TIP3   OH236279   1.762   0.500  15.970  0.2345 -0.4067  0.2377
 4955TIP3    H136280   1.846   0.544  15.958  1.4261 -2.9838 -2.0255
 4955TIP3    H236281   1.774   0.445  16.048  0.2427  0.0878  0.5841
 4956TIP3   OH236282   3.414   3.269  11.660 -0.4709 -0.5936  0.2480
 4956TIP3    H136283   3.337   3.244  11.711 -1.2554  1.0518 -0.0586
 4956TIP3    H236284   3.398   3.360  11.636  1.1067 -0.5329 -0.7059
 4957TIP3   OH236285   3.058   2.315  16.015  0.3807 -1.0663  0.0953
 4957TIP3    H136286   3.069   2.266  15.934  0.6676 -2.9150  1.1962
 4957TIP3    H236287   3.071   2.407  15.990 -0.8464 -1.4555 -2.1555
 4958TIP3   OH236288   5.040   1.985  11.464  0.2454  0.8268 -0.3574
 4958TIP3    H136289   5.012   2.055  11.405 -0.7637 -1.1705 -2.3953
 4958TIP3    H236290   5.085   1.922  11.407 -2.7269 -2.3087  0.4310
 4959TIP3   OH236291   0.539   3.058  15.632 -0.0616 -0.0244 -0.6158
 4959TIP3    H136292   0.561   2.965  15.636  0.6482 -0.0361 -2.9296
 4959TIP3    H236293   0.624   3.102  15.628 -0.3102  0.9650  2.5042
 4960TIP3   OH236294   2.950   5.767   4.688  0.4669  0.2871  0.3674
 4960TIP3    H136295   2.958   5.748   4.782  0.7057  1.8150  0.6897
 4960TIP3    H236296   2.857   5.785   4.676  0.3415 -0.4656  0.1879
 4961TIP3   OH236297   0.236   0.875  15.900 -0.1465 -0.3839  0.0041
 4961TIP3    H136298   0.325   0.899  15.928 -0.2148 -0.0970 -0.0186
 4961TIP3    H236299   0.223   0.787  15.934  0.7237 -1.0545 -1.2796
 4962TIP3   OH236300   0.877   1.852   1.337 -0.5735 -0.7858 -0.3513
 4962TIP3    H136301   0.865   1.882   1.427  1.1709 -0.6578 -0.1165
 4962TIP3    H236302   0.823   1.911   1.284 -0.3654  0.1692  0.4728
 4963TIP3   OH236303   4.782   4.640  13.146 -0.0731  0.0571 -0.8012
 4963TIP3    H136304   4.719   4.704  13.182  2.2904  1.7256  0.6749
 4963TIP3    H236305   4.760   4.558  13.190  0.1056  1.1206  1.4201
 4964TIP3   OH236306   4.040   3.651  13.632  0.1508  0.2813  0.5679
 4964TIP3    H136307   3.988   3.604  13.696 -0.0207 -0.3037  0.0055
 4964TIP3    H236308   3.977   3.704  13.584  0.0638 -0.3979 -0.0874
 4965TIP3   OH236309   1.837   6.028  15.486 -0.0097 -0.3649 -1.0396
 4965TIP3    H136310   1.781   6.066  15.555  0.3879 -0.0345 -0.8992
 4965TIP3    H236311   1.886   6.102  15.451  0.0426 -0.5919 -1.4435
 4966TIP3   OH236312   1.206   3.150   4.233  0.6397  0.4517  0.0353
 4966TIP3    H136313   1.198   3.161   4.327  0.0885  0.4311 -0.0083
 4966TIP3    H236314   1.267   3.077   4.222 -2.0244 -2.0002  0.4355
 4967TIP3   OH236315   6.010   3.368   4.521 -0.3926  0.1772 -0.3109
 4967TIP3    H136316   6.033   3.277   4.504 -0.4311  0.5713 -3.0520
 4967TIP3    H236317   6.058   3.417   4.454 -0.1015  2.2330  1.2939
 4968TIP3   OH236318   0.729   4.081  15.280  0.3575 -0.3629 -0.0681
 4968TIP3    H136319   0.710   4.104  15.189 -1.0011 -0.6929  0.1126
 4968TIP3    H236320   0.762   4.163  15.319  0.5845 -0.1205 -0.7575
 4969TIP3   OH236321   1.565   5.198  15.748  0.3413 -0.8693  0.5109
 4969TIP3    H136322   1.610   5.279  15.725 -0.3978 -1.0608 -1.8369
 4969TIP3    H236323   1.609   5.130  15.698 -0.4722 -1.5651  0.7082
 4970TIP3   OH236324   1.519   3.500  15.183  0.6517 -0.3026  0.0801
 4970TIP3    H136325   1.448   3.529  15.126  0.8891 -0.1921 -0.1625
 4970TIP3    H236326   1.587   3.470  15.123  1.7925  1.8416  0.1810
 4971TIP3   OH236327   0.328   3.570   0.014  0.0149  0.2007  0.3909
 4971TIP3    H136328   0.247   3.520   0.008 -1.4852  2.5103  0.5131
 4971TIP3    H236329   0.320   3.638  -0.052  1.5050  0.9776  0.9488
 4972TIP3   OH236330   2.668   0.189   5.895  0.1519 -0.1108  0.1480
 4972TIP3    H136331   2.702   0.159   5.979 -0.8161 -3.0673 -0.3941
 4972TIP3    H236332   2.726   0.149   5.830 -1.4440 -1.3009 -0.6272
 4973TIP3   OH236333   3.615   2.550  14.502 -0.2503  0.4154 -0.5192
 4973TIP3    H136334   3.646   2.519  14.417  0.2719 -0.0328 -0.1769
 4973TIP3    H236335   3.596   2.469  14.551 -0.8069  0.6724 -0.3078
 4974TIP3   OH236336   6.173   1.633   2.039  0.7340 -0.2681 -0.0101
 4974TIP3    H136337   6.211   1.562   2.090 -0.2842 -0.3709  0.6298
 4974TIP3    H236338   6.116   1.590   1.975  2.3468 -0.1735 -1.6177
 4975TIP3   OH236339   0.379   0.900  14.592  0.4556  0.0235  0.0980
 4975TIP3    H136340   0.388   0.807  14.572  1.3955  0.3037 -0.9216
 4975TIP3    H236341   0.403   0.944  14.510  0.3733  1.1710  0.6718
 4976TIP3   OH236342   0.805   6.522  14.101 -0.0970  0.0549 -0.1695
 4976TIP3    H136343   0.811   6.426  14.105 -0.2834 -0.0985 -2.3728
 4976TIP3    H236344   0.892   6.552  14.127  0.4259 -0.7877 -0.8832
 4977TIP3   OH236345   1.626   6.016  12.326  0.7513 -0.5260  0.1236
 4977TIP3    H136346   1.581   5.983  12.403 -0.5130 -0.6364 -0.6350
 4977TIP3    H236347   1.576   5.981  12.252  0.1620  1.9514 -0.7327
 4978TIP3   OH236348   4.614   0.842   1.776  0.6289 -0.2128 -0.5002
 4978TIP3    H136349   4.563   0.764   1.752  1.3075 -0.9211  0.2883
 4978TIP3    H236350   4.570   0.914   1.731 -1.0302 -0.8034  0.0782
 4979TIP3   OH236351   2.073   4.294  16.234 -0.7987  0.3202  0.3621
 4979TIP3    H136352   2.060   4.316  16.326 -1.7693  2.0106 -0.1340
 4979TIP3    H236353   2.152   4.239  16.233 -1.0470 -0.1264  2.2312
 4980TIP3   OH236354   6.585   1.615   2.707 -0.0839 -0.2517 -0.1818
 4980TIP3    H136355   6.642   1.581   2.776 -0.4075 -1.4432 -0.4857
 4980TIP3    H236356   6.535   1.685   2.750 -0.0370 -0.7502  0.6979
 4981TIP3   OH236357   4.207   3.949   5.338 -0.0707 -0.2132  0.0983
 4981TIP3    H136358   4.288   3.967   5.386  0.4162 -1.0919 -0.3689
 4981TIP3    H236359   4.137   3.974   5.398  0.5390  0.6725  0.4632
 4982TIP3   OH236360   3.760   3.200   1.884  0.0598 -0.4132 -0.0738
 4982TIP3    H136361   3.770   3.119   1.834  0.4560 -0.3714 -0.0660
 4982TIP3    H236362   3.816   3.189   1.960 -0.1271 -0.2570  0.0880
 4983TIP3   OH236363   6.462   5.985   3.983  0.2650  0.1561 -0.3014
 4983TIP3    H136364   6.530   6.010   3.920 -2.0223  2.4307 -2.0930
 4983TIP3    H236365   6.386   6.037   3.958 -1.7180 -1.1015  2.5532
 4984TIP3   OH236366   1.209   0.863   4.762 -0.0991  0.1890 -0.1343
 4984TIP3    H136367   1.205   0.805   4.838 -1.3528 -1.3493 -1.3096
 4984TIP3    H236368   1.303   0.875   4.746  0.1805  0.0453  1.2627
 4985TIP3   OH236369   1.852   3.160   0.095  0.2123 -0.1176  0.0482
 4985TIP3    H136370   1.802   3.241   0.083 -0.4221 -0.6340 -0.9330
 4985TIP3    H236371   1.805   3.112   0.164  0.7403  0.4472  0.8185
 4986TIP3   OH236372   0.247   1.076  16.621 -0.2676  0.3740  0.1287
 4986TIP3    H136373   0.172   1.133  16.604  0.2118  1.1534  0.5878
 4986TIP3    H236374   0.280   1.104  16.706  0.2652 -0.2795  0.1478
 4987TIP3   OH236375   6.009   5.738  14.309  0.3977  0.6470  0.1133
 4987TIP3    H136376   6.085   5.681  14.304 -0.4630 -0.6874  1.3737
 4987TIP3    H236377   6.000   5.759  14.402 -0.1927  1.6176 -0.1454
 4988TIP3   OH236378   3.441   1.459  13.631 -0.4213  0.7337  0.5617
 4988TIP3    H136379   3.511   1.437  13.569  0.8692 -0.9334  2.4630
 4988TIP3    H236380   3.363   1.417  13.596  0.3580 -0.4904  0.2408
 4989TIP3   OH236381   0.968   0.982   3.063 -0.3784 -0.7483 -0.6908
 4989TIP3    H136382   0.925   0.985   3.149 -1.0785 -0.2652 -1.0523
 4989TIP3    H236383   0.965   1.072   3.031 -0.5813 -1.0157 -1.4511
 4990TIP3   OH236384   0.738   5.552  16.842 -0.2967 -0.7961  0.0913
 4990TIP3    H136385   0.783   5.633  16.819  0.6375 -1.2567  0.2204
 4990TIP3    H236386   0.657   5.580  16.884  0.9943  0.1193  2.1230
 4991TIP3   OH236387   3.903   0.013   3.919  0.5023 -0.4600  0.7829
 4991TIP3    H136388   3.939  -0.067   3.879 -0.5721 -0.9176  0.7024
 4991TIP3    H236389   3.837   0.043   3.856  0.8170  0.4350  0.8693
 4992TIP3   OH236390   0.015   1.027  15.000  0.4708  0.0861  0.1553
 4992TIP3    H136391   0.096   1.076  15.008 -0.3877  1.5297  0.4243
 4992TIP3    H236392  -0.009   1.005  15.090 -0.0998  0.8393  0.2005
 4993TIP3   OH236393   6.306   1.009  14.165 -0.0281  0.4031 -0.1562
 4993TIP3    H136394   6.339   0.922  14.142  0.3635  1.1096 -2.5249
 4993TIP3    H236395   6.295   1.053  14.081 -3.0564  1.6624  0.7536
 4994TIP3   OH236396   6.072   6.363   6.212  0.4548 -0.0992  0.1734
 4994TIP3    H136397   6.126   6.336   6.287  0.1187 -3.3159 -0.6211
 4994TIP3    H236398   6.133   6.365   6.138  0.0758 -0.6613 -0.1562
 4995TIP3   OH236399   1.778   1.159   2.984  0.2526  0.2272 -0.6631
 4995TIP3    H136400   1.782   1.145   2.890 -1.8819 -0.3823 -0.7235
 4995TIP3    H236401   1.735   1.081   3.018 -2.2920  1.9327  0.3340
 4996TIP3   OH236402   0.241   0.581  16.281 -0.2652  0.0625 -0.1136
 4996TIP3    H136403   0.188   0.577  16.361 -0.6014  0.9912 -0.2690
 4996TIP3    H236404   0.291   0.662  16.290 -0.4777  0.2940 -0.9463
 4997TIP3   OH236405   5.492   4.092  12.198  0.0088 -0.2365 -0.3724
 4997TIP3    H136406   5.488   3.998  12.182  0.4248  0.0745 -2.5994
 4997TIP3    H236407   5.581   4.107  12.230  0.2183 -0.4777 -0.8427
 4998TIP3   OH236408   2.714   1.831  16.393  0.0220 -0.1516 -0.2030
 4998TIP3    H136409   2.803   1.802  16.413 -0.0651 -0.0577  0.3335
 4998TIP3    H236410   2.658   1.766  16.435 -0.1670  0.0710 -0.1082
 4999TIP3   OH236411   5.385   6.474  14.079  0.3778 -0.2581  0.1679
 4999TIP3    H136412   5.318   6.535  14.108 -0.4590 -1.9642  2.0318
 4999TIP3    H236413   5.394   6.492  13.985 -1.6490  0.9905  0.1452
 5000TIP3   OH236414   2.969   2.946   5.435 -0.1247  0.0450  0.4621
 5000TIP3    H136415   3.029   2.975   5.504 -1.1627 -2.5066  2.6129
 5000TIP3    H236416   2.894   3.005   5.442 -0.6571 -0.7537  2.3161
 5001TIP3   OH236417   4.870   1.235  14.019 -0.1411 -0.1135  0.4676
 5001TIP3    H136418   4.921   1.193  14.088  1.5486  0.3945 -0.3886
 5001TIP3    H236419   4.810   1.294  14.064  0.3229 -0.4337  1.5180
 5002TIP3   OH236420   1.592   2.858  13.991  0.2596 -0.1199 -0.4752
 5002TIP3    H136421   1.565   2.776  13.950  0.0277  2.0183 -5.2766
 5002TIP3    H236422   1.511   2.907  14.002  0.6615  0.5265 -0.3572
 5003TIP3   OH236423   5.262   4.287  12.207 -0.1041  0.8617  0.5490
 5003TIP3    H136424   5.183   4.249  12.246  0.5672 -0.3541  0.7393
 5003TIP3    H236425   5.328   4.219  12.215  0.5599  1.2882 -1.0290
 5004TIP3   OH236426   0.047   6.255   3.464  0.2165  0.4495 -0.1552
 5004TIP3    H136427  -0.032   6.281   3.512 -0.0309 -0.4870 -0.0495
 5004TIP3    H236428   0.064   6.165   3.491  1.0180  0.4569 -0.5896
 5005TIP3   OH236429   3.054   3.820  13.806 -0.2312  0.1902  0.2627
 5005TIP3    H136430   3.130   3.764  13.822 -0.1117  0.4836  0.7670
 5005TIP3    H236431   2.997   3.805  13.881 -0.5320  0.2024  0.0384
 5006TIP3   OH236432   1.193   0.938  13.465  0.0552  0.1827  0.2351
 5006TIP3    H136433   1.257   0.998  13.426  1.0827 -1.6037 -0.9492
 5006TIP3    H236434   1.209   0.944  13.559  2.6444 -0.8595 -0.0540
 5007TIP3   OH236435   1.794   2.218   5.842 -0.5128  0.3694  0.0109
 5007TIP3    H136436   1.844   2.182   5.916  0.3559 -2.4540 -1.7747
 5007TIP3    H236437   1.856   2.272   5.795  0.0699 -0.8455 -0.6495
 5008TIP3   OH236438   0.095   0.748  16.123 -0.3174  0.5091 -0.3620
 5008TIP3    H136439   0.130   0.666  16.157 -0.3236  0.2074 -1.0710
 5008TIP3    H236440   0.115   0.813  16.191 -0.3637 -0.0871  0.2271
 5009TIP3   OH236441   0.327   6.730   2.746 -0.0607  0.7572 -0.0837
 5009TIP3    H136442   0.402   6.786   2.767  0.5417  0.1805 -0.6324
 5009TIP3    H236443   0.339   6.708   2.654  0.4555 -1.3310  0.4250
 5010TIP3   OH236444   4.465   6.653  16.710 -0.0193  0.0224 -0.0069
 5010TIP3    H136445   4.379   6.617  16.690 -0.9497  1.4576  1.2512
 5010TIP3    H236446   4.526   6.598  16.660 -1.5563 -1.6459 -0.1363
 5011TIP3   OH236447   0.675   0.619  13.960  0.6358  0.0246 -0.1050
 5011TIP3    H136448   0.743   0.652  13.901  0.5452  1.9422  0.7896
 5011TIP3    H236449   0.613   0.574  13.903  1.9882 -0.6388 -1.1001
 5012TIP3   OH236450   4.068   5.644   1.712  0.3572 -1.1592 -0.0044
 5012TIP3    H136451   3.974   5.637   1.699  0.2508  0.2869 -0.2110
 5012TIP3    H236452   4.106   5.625   1.627  0.3025 -2.2609  0.2011
 5013TIP3   OH236453   3.194   0.567   5.001  0.4914 -0.4038 -0.3382
 5013TIP3    H136454   3.172   0.489   4.951  0.1446  1.0470 -2.5699
 5013TIP3    H236455   3.289   0.563   5.011  0.4514 -1.2223 -0.1721
 5014TIP3   OH236456   0.160   3.814   2.865  0.3728  0.1139 -0.0351
 5014TIP3    H136457   0.205   3.889   2.903  1.9419 -0.7450 -0.0913
 5014TIP3    H236458   0.075   3.811   2.910 -1.6595  4.3503 -2.9172
 5015TIP3   OH236459   1.279   6.690   3.142  0.0088 -0.3309 -0.0385
 5015TIP3    H136460   1.245   6.600   3.146  1.6374 -1.0940 -1.8103
 5015TIP3    H236461   1.232   6.730   3.069 -0.7473  0.3113  0.7777
 5016TIP3   OH236462   4.991   2.732   2.186 -0.4097  0.0755  0.0852
 5016TIP3    H136463   4.942   2.800   2.232 -2.1951 -1.4733  0.5995
 5016TIP3    H236464   5.000   2.661   2.250  2.7005  0.3003  0.0482
 5017TIP3   OH236465   5.425   5.819   0.875 -0.1320 -0.1256 -0.1672
 5017TIP3    H136466   5.397   5.732   0.847  0.0374  0.1045 -1.0834
 5017TIP3    H236467   5.396   5.877   0.805  0.0023  0.5207  0.3044
 5018TIP3   OH236468   2.141   1.796   4.381 -0.3954 -0.3024 -0.2370
 5018TIP3    H136469   2.090   1.798   4.462  1.5699  0.1150  1.0654
 5018TIP3    H236470   2.098   1.860   4.324 -0.0365  1.7301  1.6474
 5019TIP3   OH236471   5.903   0.597   5.545  0.0800 -0.1317  0.3771
 5019TIP3    H136472   5.838   0.667   5.558  0.1842 -0.0965  0.7269
 5019TIP3    H236473   5.986   0.644   5.531 -0.0565 -0.1638 -0.6284
 5020TIP3   OH236474   3.772   0.543  10.990  0.2001 -0.1816  0.5391
 5020TIP3    H136475   3.779   0.595  11.070 -0.2769 -0.4938  0.7879
 5020TIP3    H236476   3.679   0.520  10.984  0.3970 -0.9676  0.4116
 5021TIP3   OH236477   3.794   6.639  15.109 -0.4830 -0.2959 -0.4340
 5021TIP3    H136478   3.797   6.620  15.016 -0.4060  0.6230 -0.6305
 5021TIP3    H236479   3.833   6.726  15.117 -0.9987 -0.1276  0.3865
 5022TIP3   OH236480   5.803   3.785  14.953  0.3307 -0.4029  0.2561
 5022TIP3    H136481   5.737   3.787  15.023  0.7489  1.0629  0.6471
 5022TIP3    H236482   5.808   3.693  14.927 -1.8657 -0.5588  0.2080
 5023TIP3   OH236483   4.652   0.064  16.696 -0.4649  0.1299 -0.0151
 5023TIP3    H136484   4.620   0.143  16.739 -0.2359  0.1769  0.0685
 5023TIP3    H236485   4.599  -0.007  16.733 -0.9397  0.2896 -0.3784
 5024TIP3   OH236486   0.207   3.736  11.207  0.2260 -0.1212 -0.1387
 5024TIP3    H136487   0.145   3.801  11.175  1.3766  0.5958 -0.9468
 5024TIP3    H236488   0.263   3.716  11.132 -1.3845 -3.6790 -0.5974
 5025TIP3   OH236489   0.718   1.787   2.806 -0.3478  0.0790  1.0240
 5025TIP3    H136490   0.782   1.831   2.862 -2.4928  0.1730  3.6258
 5025TIP3    H236491   0.647   1.851   2.797 -0.8066 -0.5969 -0.4249
 5026TIP3   OH236492   3.078   4.479   4.701 -0.4097  0.1851  0.0835
 5026TIP3    H136493   3.122   4.564   4.700 -0.7333  0.4026  1.9305
 5026TIP3    H236494   2.999   4.492   4.647 -2.2521  2.1340  2.9644
 5027TIP3   OH236495   6.786   3.088  16.830  0.7130  0.3706 -0.0235
 5027TIP3    H136496   6.775   3.142  16.908 -0.3802 -0.7271  0.6221
 5027TIP3    H236497   6.700   3.088  16.788  0.7308 -0.7469 -0.0818
 5028TIP3   OH236498   2.453   5.345   5.545  0.1300  0.4243 -0.4504
 5028TIP3    H136499   2.420   5.424   5.587  0.0146  0.3032 -0.3131
 5028TIP3    H236500   2.450   5.364   5.452  1.6576  1.2034 -0.3721
 5029TIP3   OH236501   5.353   5.876  13.226  0.1316  0.3971 -0.0125
 5029TIP3    H136502   5.431   5.835  13.187 -1.3919 -2.5114 -0.2685
 5029TIP3    H236503   5.288   5.875  13.157 -1.3025 -0.9162  1.2683
 5030TIP3   OH236504   5.677   3.701  15.678  0.1525 -0.2462 -0.2520
 5030TIP3    H136505   5.717   3.658  15.754  1.0344  0.4582 -0.3112
 5030TIP3    H236506   5.646   3.785  15.712 -0.4746 -0.4065 -0.4173
 5031TIP3   OH236507   3.395   1.846   4.937 -0.4629  0.1997  0.6300
 5031TIP3    H136508   3.302   1.824   4.939 -0.9131  2.0135  1.3863
 5031TIP3    H236509   3.425   1.835   5.027  0.1594 -0.6659  0.3368
 5032TIP3   OH236510   1.795   2.211  14.309 -0.4221 -0.0451  0.3711
 5032TIP3    H136511   1.882   2.237  14.280 -0.2995  0.3622  1.0777
 5032TIP3    H236512   1.738   2.230  14.234 -0.2277  1.6954  0.6247
 5033TIP3   OH236513   0.343   3.979  15.720  0.1141 -0.2195 -0.1801
 5033TIP3    H136514   0.279   4.049  15.707 -0.4503 -0.9142 -1.4267
 5033TIP3    H236515   0.290   3.900  15.734  0.7285 -0.5050  0.6087
 5034TIP3   OH236516   1.235   0.067   3.383 -0.4932  0.6471 -0.4864
 5034TIP3    H136517   1.318   0.075   3.430 -0.4881  0.2418 -0.4256
 5034TIP3    H236518   1.256   0.016   3.305 -0.3397  1.9558 -1.3467
 5035TIP3   OH236519   6.418   4.036   5.547  0.2494 -0.2929  0.4743
 5035TIP3    H136520   6.378   4.028   5.460 -0.3309 -2.2352  0.8821
 5035TIP3    H236521   6.510   4.059   5.528 -0.2308  0.9296 -0.5605
 5036TIP3   OH236522   0.914   1.147   3.578 -0.2652  0.1806  0.2552
 5036TIP3    H136523   0.997   1.131   3.623  0.3742  0.8741 -0.6368
 5036TIP3    H236524   0.893   1.064   3.536 -0.7735 -0.4219  1.6183
 5037TIP3   OH236525   0.670   6.010   2.126 -0.2671  0.3334  0.2755
 5037TIP3    H136526   0.646   6.029   2.216 -1.7606 -0.4108  0.0706
 5037TIP3    H236527   0.740   5.946   2.133 -0.5029  0.1351  0.9216
 5038TIP3   OH236528   6.621   3.277   2.022  0.1105  0.5065 -0.9815
 5038TIP3    H136529   6.650   3.367   2.008  0.4336  0.5806  0.0532
 5038TIP3    H236530   6.531   3.285   2.053  0.5912  0.5999  0.5170
 5039TIP3   OH236531   1.762   5.654  16.288 -0.2042 -0.0450 -0.5212
 5039TIP3    H136532   1.786   5.745  16.269 -1.1451  0.4139  0.3961
 5039TIP3    H236533   1.700   5.661  16.361  0.2192 -1.4662 -0.0029
 5040TIP3   OH236534   5.340   1.047  12.722 -0.3311 -0.1812 -0.0208
 5040TIP3    H136535   5.260   1.045  12.774 -0.7042  0.3477 -0.5561
 5040TIP3    H236536   5.349   1.139  12.697  0.1549 -0.3323 -0.4016
 5041TIP3   OH236537   4.004   5.990  14.215 -0.2973  0.5505  0.3040
 5041TIP3    H136538   3.921   6.038  14.214  0.3187  1.6609  0.5716
 5041TIP3    H236539   3.984   5.909  14.263 -1.3433  0.5484 -0.0921
 5042TIP3   OH236540   4.190   2.525  14.561  0.1032  0.0882  0.8526
 5042TIP3    H136541   4.121   2.589  14.580 -1.4308 -0.9013 -0.9723
 5042TIP3    H236542   4.248   2.529  14.636 -1.1158  2.0738  1.7700
 5043TIP3   OH236543   2.663   2.271  15.613 -0.2106 -0.2673 -0.2082
 5043TIP3    H136544   2.675   2.331  15.539  0.3997  0.4230  0.4359
 5043TIP3    H236545   2.739   2.288  15.669 -1.0429 -0.2585  0.9396
 5044TIP3   OH236546   0.540   1.037  14.417  0.4160 -0.0856 -0.1131
 5044TIP3    H136547   0.630   1.011  14.435  1.3844  1.8676 -1.6778
 5044TIP3    H236548   0.546   1.129  14.393 -1.9491 -0.0251 -0.7694
 5045TIP3   OH236549   2.867   3.211  13.469  0.2816 -0.8380 -0.0345
 5045TIP3    H136550   2.961   3.201  13.485  0.7062  0.0651 -1.6887
 5045TIP3    H236551   2.829   3.219  13.556  1.8607 -0.3060  0.6525
 5046TIP3   OH236552   6.776   5.475  10.910 -0.2582 -0.7401  0.4837
 5046TIP3    H136553   6.749   5.438  10.994  0.1692  0.5420  1.2061
 5046TIP3    H236554   6.705   5.534  10.886  0.7820  0.8515  1.2247
 5047TIP3   OH236555   6.782   4.032  13.800 -0.1142 -0.0884 -0.4007
 5047TIP3    H136556   6.820   3.959  13.849 -0.9152 -0.5246 -0.4153
 5047TIP3    H236557   6.753   3.993  13.718 -0.7888  0.1821 -0.3018
 5048TIP3   OH236558   0.325   3.116  16.997  0.1382 -0.0974  0.0121
 5048TIP3    H136559   0.311   3.042  16.938 -0.1967 -0.9577  1.1436
 5048TIP3    H236560   0.406   3.097  17.042  0.0553  0.2310  0.3108
 5049TIP3   OH236561   4.439   0.339   6.691 -0.0828  0.3206 -0.5479
 5049TIP3    H136562   4.503   0.308   6.755 -1.5962 -0.7174  0.5382
 5049TIP3    H236563   4.480   0.416   6.652  1.2624  0.4792  1.0457
 5050TIP3   OH236564   2.641   3.623  13.832 -0.1143  1.0321  0.0156
 5050TIP3    H136565   2.668   3.715  13.837 -0.1582  1.0283  0.3339
 5050TIP3    H236566   2.569   3.615  13.894 -1.1967  1.1491 -1.1993
 5051TIP3   OH236567   3.488   4.265   0.056 -0.4531  0.1152 -0.2585
 5051TIP3    H136568   3.521   4.315   0.131  1.4096  0.6978 -1.4061
 5051TIP3    H236569   3.500   4.324  -0.019 -3.8731  0.2634 -0.8868
 5052TIP3   OH236570   2.223   0.973  12.796  0.3221 -0.0281  0.0050
 5052TIP3    H136571   2.144   0.959  12.847  0.5865 -0.8274  0.2165
 5052TIP3    H236572   2.239   0.889  12.753 -0.5396  0.9343 -2.3577
 5053TIP3   OH236573   1.687   0.009   0.521 -0.2187 -0.3080  0.0718
 5053TIP3    H136574   1.653  -0.034   0.600  0.9385 -0.4823  0.4835
 5053TIP3    H236575   1.779  -0.014   0.518 -0.3396 -0.7077 -1.6097
 5054TIP3   OH236576   2.520   3.427   3.103 -0.0028  0.1894  0.2970
 5054TIP3    H136577   2.604   3.474   3.104 -0.1606  0.4775  0.2395
 5054TIP3    H236578   2.540   3.343   3.061  0.5449 -0.3039  1.5088
 5055TIP3   OH236579   3.232   4.473   2.135 -0.0084 -0.5493 -0.6654
 5055TIP3    H136580   3.261   4.424   2.212 -1.6653  1.1099  1.1601
 5055TIP3    H236581   3.137   4.482   2.148 -0.4428 -0.7545 -3.2822
 5056TIP3   OH236582   0.123   4.027  12.145  0.2970 -0.2390  0.0278
 5056TIP3    H136583   0.079   3.992  12.068  0.6224  1.3662 -0.9330
 5056TIP3    H236584   0.195   3.967  12.161 -1.7390 -2.5264  1.2125
 5057TIP3   OH236585   5.274   1.512  11.360  0.5085 -0.9004 -0.4806
 5057TIP3    H136586   5.209   1.580  11.338  0.5032 -0.1418  1.6705
 5057TIP3    H236587   5.358   1.554  11.345  0.5379 -1.4147 -1.9030
 5058TIP3   OH236588   3.744   3.790  11.440 -0.6079  0.1672 -0.2191
 5058TIP3    H136589   3.719   3.727  11.508 -0.3520 -0.3801 -0.6275
 5058TIP3    H236590   3.795   3.739  11.377  0.3369  0.9670 -0.1210
 5059TIP3   OH236591   3.882   3.828   3.570  0.1715  0.0492 -0.0010
 5059TIP3    H136592   3.825   3.889   3.524  0.0879  1.3317  1.6893
 5059TIP3    H236593   3.834   3.746   3.571 -0.2509  0.2590 -1.2857
 5060TIP3   OH236594   0.900   6.624   3.834 -0.2243 -0.1519  0.0598
 5060TIP3    H136595   0.811   6.604   3.806 -0.1059  0.2652 -0.6226
 5060TIP3    H236596   0.948   6.640   3.753  0.1990  0.7576  0.4806
 5061TIP3   OH236597   4.922   6.548   1.341  0.0822  0.4224  0.3299
 5061TIP3    H136598   4.906   6.587   1.428  0.0972  0.9000  0.1220
 5061TIP3    H236599   5.006   6.504   1.350 -0.1528  0.0435  0.7040
 5062TIP3   OH236600   6.583   1.678   6.212 -0.2321  0.0958 -0.2335
 5062TIP3    H136601   6.627   1.606   6.257  0.5879  0.4843 -0.3780
 5062TIP3    H236602   6.555   1.737   6.282  0.8785  0.6106 -0.2021
 5063TIP3   OH236603   0.242   5.172   4.230  0.1685  0.1575 -0.1475
 5063TIP3    H136604   0.213   5.211   4.147 -0.9593  0.0734  0.1863
 5063TIP3    H236605   0.161   5.144   4.273  0.8508 -1.4235  0.1907
 5064TIP3   OH236606   6.206   1.134   3.029 -0.5987  0.2718 -0.1308
 5064TIP3    H136607   6.145   1.183   3.082  0.9888  2.4140 -0.1368
 5064TIP3    H236608   6.291   1.147   3.072  0.2290 -0.5131 -1.4579
 5065TIP3   OH236609   2.658   3.657   3.627 -0.5672  0.2456  0.2726
 5065TIP3    H136610   2.657   3.747   3.596 -1.5324  0.6543  1.4476
 5065TIP3    H236611   2.567   3.628   3.622 -0.4212 -0.3435  0.8192
 5066TIP3   OH236612   1.483   4.967  15.308  0.0961 -0.1340 -0.1179
 5066TIP3    H136613   1.490   5.059  15.335 -1.3552 -0.3014  0.9342
 5066TIP3    H236614   1.431   4.970  15.228 -0.5748 -0.0872  0.3148
 5067TIP3   OH236615   3.792   5.850   5.231 -0.0415 -0.6160 -0.5733
 5067TIP3    H136616   3.748   5.795   5.295  0.5405 -1.4581 -0.8754
 5067TIP3    H236617   3.790   5.799   5.150 -0.5894  0.3448 -1.1919
 5068TIP3   OH236618   1.701   2.313   1.190 -0.0586  0.7991 -0.2175
 5068TIP3    H136619   1.622   2.366   1.201  0.2116  0.8616  1.7028
 5068TIP3    H236620   1.683   2.232   1.238  1.0812  0.8814  0.3852
 5069TIP3   OH236621   4.491   2.021   3.703 -0.3134  0.6643 -0.2128
 5069TIP3    H136622   4.407   2.066   3.711 -0.5750  0.2850 -0.7788
 5069TIP3    H236623   4.507   1.984   3.789 -0.3900  1.3201  0.0905
 5070TIP3   OH236624   4.204   0.161   5.752  0.1080 -0.1231 -0.4700
 5070TIP3    H136625   4.185   0.252   5.726 -1.4825 -0.3853 -0.3411
 5070TIP3    H236626   4.195   0.161   5.847 -0.6042 -0.5568 -0.5316
 5071TIP3   OH236627   1.332   6.294  15.293  0.1567  0.4408  0.0920
 5071TIP3    H136628   1.357   6.354  15.364  2.1738  0.9081 -0.9383
 5071TIP3    H236629   1.340   6.207  15.331  2.3177  0.6388  0.1684
 5072TIP3   OH236630   2.123   4.319   5.989 -0.7733 -0.0783  0.8917
 5072TIP3    H136631   2.063   4.255   6.027  0.5617 -1.4876  0.7279
 5072TIP3    H236632   2.196   4.323   6.050 -0.8507  1.3534  0.9177
 5073TIP3   OH236633   0.112   0.613   5.375 -0.4469 -1.2883  0.0097
 5073TIP3    H136634   0.036   0.633   5.430 -2.0565 -0.5050 -2.3714
 5073TIP3    H236635   0.091   0.529   5.334  1.4669 -2.6992  1.6686
 5074TIP3   OH236636   4.262   1.735  12.537 -0.0402 -0.1215 -0.1006
 5074TIP3    H136637   4.263   1.820  12.581  1.6254 -0.6159  0.9132
 5074TIP3    H236638   4.201   1.746  12.464 -0.4971  1.6751  0.5117
 5075TIP3   OH236639   3.301   2.573   3.227 -0.8612 -0.2080  0.3248
 5075TIP3    H136640   3.211   2.605   3.231 -0.5450  0.6800  0.6325
 5075TIP3    H236641   3.346   2.621   3.297 -0.3052 -1.1628  0.6444
 5076TIP3   OH236642   0.229   0.802  16.875  0.1723  0.1347  0.1638
 5076TIP3    H136643   0.246   0.716  16.913 -0.4924  0.2794  0.8118
 5076TIP3    H236644   0.179   0.783  16.795 -1.3134 -0.0340  1.0889
 5077TIP3   OH236645   0.719   1.924  12.508  0.1406  0.9072 -0.3092
 5077TIP3    H136646   0.709   1.878  12.591 -0.1199  1.2622 -0.1372
 5077TIP3    H236647   0.795   1.884  12.466 -0.7933 -0.5157 -0.7245
 5078TIP3   OH236648   2.341   4.667  11.063 -0.4643 -0.3977 -0.1959
 5078TIP3    H136649   2.383   4.583  11.048  0.2361 -0.4030  1.5117
 5078TIP3    H236650   2.349   4.713  10.980 -2.2040 -2.5353 -1.6430
 5079TIP3   OH236651   4.669   6.162   5.704  0.4149  0.4771  0.0064
 5079TIP3    H136652   4.598   6.225   5.686 -1.2244 -0.6958  1.9515
 5079TIP3    H236653   4.693   6.178   5.795  2.6280  0.7385 -0.5751
 5080TIP3   OH236654   5.113   6.026   5.608 -0.1576  0.5131 -0.6414
 5080TIP3    H136655   5.100   6.090   5.678 -1.4100  1.8440 -2.0117
 5080TIP3    H236656   5.110   5.941   5.652 -3.9683  1.1151  0.6173
 5081TIP3   OH236657   3.789   2.990   2.574 -0.0255  0.1647  0.4159
 5081TIP3    H136658   3.693   2.992   2.577 -0.0802  0.8163 -0.9784
 5081TIP3    H236659   3.814   3.077   2.542  1.0818  0.2231  1.3466
 5082TIP3   OH236660   2.696   4.789   0.371  0.6199  0.6394 -0.6328
 5082TIP3    H136661   2.752   4.833   0.435  0.6119 -0.1035 -0.0959
 5082TIP3    H236662   2.642   4.729   0.423  0.2796  0.3676 -1.2838
 5083TIP3   OH236663   3.518   6.404  16.988 -0.1630 -0.0312 -0.1106
 5083TIP3    H136664   3.480   6.318  16.970 -1.0484  0.1576  0.7802
 5083TIP3    H236665   3.612   6.387  17.001 -0.6264 -1.2263  2.2285
 5084TIP3   OH236666   3.432   1.834   3.589 -0.7963 -0.3039 -0.1914
 5084TIP3    H136667   3.367   1.851   3.521 -0.5346  0.7286 -0.1961
 5084TIP3    H236668   3.472   1.751   3.564 -1.2709 -0.3406 -0.8465
 5085TIP3   OH236669   0.256   0.898   0.700 -0.1951 -0.2429  0.1075
 5085TIP3    H136670   0.295   0.913   0.786 -1.3418 -0.9256  0.7683
 5085TIP3    H236671   0.162   0.906   0.714 -0.3542  0.8296 -1.3426
 5086TIP3   OH236672   5.380   4.998   0.901 -0.1848 -0.1000 -0.3367
 5086TIP3    H136673   5.424   5.002   0.986 -2.4248  1.2442  0.8597
 5086TIP3    H236674   5.405   5.080   0.857 -0.6947  0.2149 -0.0530
 5087TIP3   OH236675   0.455   1.818  14.580 -0.4837 -0.6891  0.4607
 5087TIP3    H136676   0.410   1.898  14.607  0.2832 -0.4858  1.1781
 5087TIP3    H236677   0.401   1.747  14.616 -0.7430 -0.4696  0.5067
 5088TIP3   OH236678   5.186   1.525  14.425 -0.8796 -0.0896 -0.4109
 5088TIP3    H136679   5.125   1.475  14.370 -1.9853  0.6619  0.1061
 5088TIP3    H236680   5.189   1.612  14.385  0.1381 -0.2082 -0.6242
 5089TIP3   OH236681   0.354   4.010   1.146  0.3272 -0.2868  0.5435
 5089TIP3    H136682   0.293   4.075   1.112  0.0775 -0.4478  0.6855
 5089TIP3    H236683   0.337   4.008   1.240 -2.0808 -3.0298  0.1682
 5090TIP3   OH236684   2.629   5.749  15.875 -0.4272 -0.2749 -0.7722
 5090TIP3    H136685   2.655   5.796  15.796  0.0126  0.8444  0.0240
 5090TIP3    H236686   2.534   5.763  15.881 -0.3518  0.2298 -0.7246
 5091TIP3   OH236687   0.291   1.459   2.760 -0.4771 -0.0467  0.0878
 5091TIP3    H136688   0.270   1.388   2.699 -2.3220  1.0476 -0.6396
 5091TIP3    H236689   0.364   1.506   2.719  0.2463 -1.0529  0.2014
 5092TIP3   OH236690   5.304   1.224   6.097 -0.0162  0.2600  0.1449
 5092TIP3    H136691   5.369   1.250   6.162  1.8097  0.2133 -1.5530
 5092TIP3    H236692   5.355   1.183   6.027 -1.7109  1.3798 -1.8722
 5093TIP3   OH236693   4.865   5.839  12.279  0.0106  0.4713  0.0533
 5093TIP3    H136694   4.924   5.895  12.329 -2.4773  3.3228  0.0183
 5093TIP3    H236695   4.895   5.750  12.299  2.1331  1.6403  2.7117
 5094TIP3   OH236696   2.802   3.110   6.092 -0.6687  0.4779 -0.4121
 5094TIP3    H136697   2.881   3.158   6.068 -0.1194 -0.9692 -1.6341
 5094TIP3    H236698   2.832   3.046   6.157 -1.1496  0.8892  0.2340
 5095TIP3   OH236699   4.539   0.920   1.388  0.4416 -0.0446  0.6487
 5095TIP3    H136700   4.453   0.888   1.360  0.5138  0.0373  0.3331
 5095TIP3    H236701   4.602   0.870   1.336  0.5334  1.3261 -0.6204
 5096TIP3   OH236702   3.940   6.285   1.115  0.3758 -0.1448 -1.0496
 5096TIP3    H136703   3.892   6.230   1.176 -0.8978  1.4306 -0.5664
 5096TIP3    H236704   4.019   6.311   1.163  1.1504 -1.7464 -1.3982
 5097TIP3   OH236705   4.330   2.141  14.853  0.3782 -0.4806 -0.4005
 5097TIP3    H136706   4.238   2.151  14.878 -0.0485 -0.4310 -1.9181
 5097TIP3    H236707   4.376   2.133  14.936 -0.8962  0.3135  0.4194
 5098TIP3   OH236708   6.074   4.950  11.307  0.0846  0.3415 -0.4587
 5098TIP3    H136709   6.064   4.885  11.237  2.0983  0.0371 -0.5079
 5098TIP3    H236710   6.036   5.030  11.270  0.3826 -0.0274 -1.6026
 5099TIP3   OH236711   2.615   4.657  14.470  0.3895  0.3474  0.2350
 5099TIP3    H136712   2.574   4.578  14.436 -1.1331  0.3593  1.9454
 5099TIP3    H236713   2.602   4.722  14.400 -0.0228 -0.3890 -0.3852
 5100TIP3   OH236714   5.438   5.972  16.364  0.0528 -0.1092  0.2056
 5100TIP3    H136715   5.465   6.011  16.280 -0.2400  1.3156  0.7365
 5100TIP3    H236716   5.381   6.039  16.403 -0.0445 -0.8812  1.4115
 5101TIP3   OH236717   1.773   6.395  12.164  0.0437 -0.2386  0.3151
 5101TIP3    H136718   1.829   6.470  12.144 -0.6329 -0.0587 -1.0711
 5101TIP3    H236719   1.815   6.352  12.239 -0.3763  2.3757  2.1850
 5102TIP3   OH236720   0.590   2.649  12.960 -0.0629  1.3946 -0.2779
 5102TIP3    H136721   0.564   2.608  12.877  2.1297 -0.0812 -0.3068
 5102TIP3    H236722   0.544   2.599  13.027  1.3531 -0.1432 -0.4098
 5103TIP3   OH236723   1.613   0.856   3.977 -0.5124  0.0339 -0.2080
 5103TIP3    H136724   1.696   0.834   3.935 -0.5045 -1.8075  0.6590
 5103TIP3    H236725   1.619   0.816   4.064 -1.4104  1.8240  0.7281
 5104TIP3   OH236726   3.665   0.294   4.856 -0.3382  0.1693 -0.0262
 5104TIP3    H136727   3.618   0.229   4.803  0.1994  0.6416 -1.1078
 5104TIP3    H236728   3.658   0.375   4.806  5.1980 -0.4891 -2.5601
 5105TIP3   OH236729   2.115   5.263   0.429  0.2297 -0.0007  0.1429
 5105TIP3    H136730   2.175   5.199   0.469  1.9166  0.2157 -1.8787
 5105TIP3    H236731   2.054   5.210   0.378  0.7347 -0.0962 -0.3758
 5106TIP3   OH236732   2.141   0.245  15.735 -0.4064  0.4704  0.1938
 5106TIP3    H136733   2.172   0.185  15.667  3.4123  2.3187  0.0282
 5106TIP3    H236734   2.163   0.202  15.817 -1.6809 -0.1564  0.2386
 5107TIP3   OH236735   4.975   1.512  14.918 -0.1293  0.2065  0.4014
 5107TIP3    H136736   4.996   1.433  14.869 -2.0114  1.0541 -1.9861
 5107TIP3    H236737   5.038   1.514  14.989  1.3120 -2.3151 -0.6869
 5108TIP3   OH236738   6.069   2.737  13.319 -0.6959  0.1426 -0.1945
 5108TIP3    H136739   5.983   2.700  13.299 -0.5541  0.1558 -0.8299
 5108TIP3    H236740   6.131   2.668  13.297 -0.5279  0.2044  0.0821
 5109TIP3   OH236741   0.271   4.149  16.825 -0.0559 -0.5258 -0.2047
 5109TIP3    H136742   0.355   4.172  16.786 -0.5376 -2.6550 -2.8572
 5109TIP3    H236743   0.209   4.214  16.790 -0.3485 -1.9946 -2.6860
 5110TIP3   OH236744   0.871   3.910   2.062  0.3232 -0.5466  0.0156
 5110TIP3    H136745   0.869   3.818   2.035  0.1458 -0.5115 -0.0964
 5110TIP3    H236746   0.780   3.938   2.058  0.2569 -0.6250  0.9736
 5111TIP3   OH236747   1.641   4.270   3.676  0.0533 -0.1826  0.2008
 5111TIP3    H136748   1.709   4.328   3.641 -0.3635 -0.0354 -0.3639
 5111TIP3    H236749   1.603   4.228   3.600 -0.7615  0.0312  0.4774
 5112TIP3   OH236750   4.298   0.589   5.111  0.1620 -0.5496 -0.2032
 5112TIP3    H136751   4.315   0.619   5.201  2.0026 -0.0797 -0.6665
 5112TIP3    H236752   4.366   0.524   5.095 -1.0242 -1.6811 -0.8012
 5113TIP3   OH236753   5.173   4.854   6.054  0.4008 -0.3874 -0.0283
 5113TIP3    H136754   5.113   4.780   6.064 -1.8502  1.3738  0.1244
 5113TIP3    H236755   5.257   4.813   6.031 -0.7230 -2.9716  0.1211
 5114TIP3   OH236756   1.552   2.772  16.724 -0.0876  0.1730  0.3865
 5114TIP3    H136757   1.577   2.712  16.654  0.5040  0.7855  0.0621
 5114TIP3    H236758   1.457   2.780  16.717 -0.0161  0.3505 -0.4549
 5115TIP3   OH236759   3.584   0.608  11.457 -0.2267  0.5393 -0.3986
 5115TIP3    H136760   3.648   0.548  11.419  0.6031  1.1466  0.0161
 5115TIP3    H236761   3.624   0.638  11.539 -0.3865  2.0290 -0.8369
 5116TIP3   OH236762   4.868   5.181  11.214 -0.3632  0.2518  0.1666
 5116TIP3    H136763   4.879   5.097  11.259 -1.7003 -0.1811 -0.2599
 5116TIP3    H236764   4.780   5.176  11.175  0.3380  1.0096 -1.6177
 5117TIP3   OH236765   0.587   4.060  12.474  0.0599 -0.0356 -0.2072
 5117TIP3    H136766   0.533   4.064  12.552  0.8455  2.2991  0.3163
 5117TIP3    H236767   0.647   3.987  12.489 -1.1213 -0.9095  0.4064
 5118TIP3   OH236768   5.337   2.047   4.967  0.4055  0.4636  0.2945
 5118TIP3    H136769   5.274   2.098   4.918 -0.5550  0.3371  1.3563
 5118TIP3    H236770   5.326   2.076   5.058 -1.1737 -2.5227  1.1948
 5119TIP3   OH236771   4.390   4.326   1.170  0.0062  0.1046  0.3041
 5119TIP3    H136772   4.461   4.384   1.197 -0.2192  0.0952  0.9382
 5119TIP3    H236773   4.408   4.243   1.215 -0.1616 -0.0369  0.1123
 5120TIP3   OH236774   5.994   4.126   5.855 -0.2816  0.4488  0.8540
 5120TIP3    H136775   6.080   4.138   5.815 -0.8896  2.4347  0.0124
 5120TIP3    H236776   5.967   4.038   5.828  1.4087 -0.1783  1.0483
 5121TIP3   OH236777   0.022   3.281   1.459  0.4324 -0.3812  0.2580
 5121TIP3    H136778  -0.015   3.243   1.539  1.1135 -0.9351  0.3184
 5121TIP3    H236779   0.106   3.319   1.487  0.2907  0.1503 -0.0321
 5122TIP3   OH236780   2.987   5.653  15.592 -0.4402  0.2743  0.4813
 5122TIP3    H136781   3.056   5.645  15.658  1.2059 -1.1239 -1.3110
 5122TIP3    H236782   3.026   5.621  15.511 -2.7478  0.8272 -0.9677
 5123TIP3   OH236783   0.212   0.360  11.350  0.9481 -0.0849 -0.5041
 5123TIP3    H136784   0.127   0.399  11.371  1.2699  1.1569 -1.3903
 5123TIP3    H236785   0.192   0.288  11.292  0.4726  0.0067 -0.4547
 5124TIP3   OH236786   6.632   2.753   6.668 -0.0307  0.1401  0.1026
 5124TIP3    H136787   6.661   2.843   6.652 -1.5378  0.6590  0.1225
 5124TIP3    H236788   6.595   2.724   6.584  1.2826 -0.8162 -0.1741
 5125TIP3   OH236789   0.659   6.052  11.674  0.1722 -0.8077  0.2982
 5125TIP3    H136790   0.738   6.091  11.638 -1.2410  0.4612 -1.6103
 5125TIP3    H236791   0.620   6.003  11.601 -3.2036  2.5051 -0.4064
 5126TIP3   OH236792   6.385   5.801  11.459  0.0959 -0.5592  0.0990
 5126TIP3    H136793   6.451   5.774  11.395  0.3931  1.4279 -0.4924
 5126TIP3    H236794   6.415   5.887  11.490 -1.8960  0.1382  0.2288
 5127TIP3   OH236795   1.629   1.795  15.268 -0.3635  0.0689  0.3021
 5127TIP3    H136796   1.676   1.811  15.186 -1.3585  3.4840  0.2574
 5127TIP3    H236797   1.596   1.881  15.294 -0.4228 -0.9373  4.1314
 5128TIP3   OH236798   2.678   2.436  11.422 -0.7431 -0.1629  0.0058
 5128TIP3    H136799   2.647   2.388  11.499 -1.0995 -2.2327 -1.3383
 5128TIP3    H236800   2.631   2.396  11.349 -0.2687  1.6057 -1.3261
 5129TIP3   OH236801   3.797   4.824  13.681  0.0558 -0.0204  0.3358
 5129TIP3    H136802   3.735   4.827  13.754 -0.4737  0.1038 -0.1152
 5129TIP3    H236803   3.864   4.888  13.705 -1.5236  2.0756 -0.5282
 5130TIP3   OH236804   1.332   2.502   2.774  0.2322  0.9784 -0.0679
 5130TIP3    H136805   1.368   2.427   2.820 -0.9519  0.4887  0.1028
 5130TIP3    H236806   1.405   2.537   2.723  1.1408  0.5371  0.9037
 5131TIP3   OH236807   4.637   5.649   1.309  0.2879 -0.2243 -0.7244
 5131TIP3    H136808   4.573   5.698   1.360  0.1179 -0.7190 -0.4618
 5131TIP3    H236809   4.681   5.716   1.255  0.4144  0.2817 -0.0001
 5132TIP3   OH236810   3.890   0.810   2.110  0.5054  0.3613  0.9031
 5132TIP3    H136811   3.920   0.830   2.199 -0.0559  1.4647  0.8654
 5132TIP3    H236812   3.948   0.859   2.053  0.2501  0.4324  0.7038
 5133TIP3   OH236813   2.297   0.252   3.961  0.0832 -0.2359 -0.3137
 5133TIP3    H136814   2.215   0.300   3.967 -0.6679 -1.4216 -0.8809
 5133TIP3    H236815   2.338   0.283   3.880  0.4137  0.6392  0.1646
 5134TIP3   OH236816   3.809   6.303   0.085  0.5122 -0.0395 -0.4027
 5134TIP3    H136817   3.848   6.371   0.031 -0.9015  0.7638 -0.4677
 5134TIP3    H236818   3.754   6.351   0.147  0.1709 -1.0820  0.1205
 5135TIP3   OH236819   0.636   6.514   4.019  0.0068  0.7352  0.2174
 5135TIP3    H136820   0.541   6.525   4.025  0.1469  2.2507  0.2131
 5135TIP3    H236821   0.671   6.597   4.054  1.3040  0.5875 -0.6737
 5136TIP3   OH236822   4.529   2.112   0.255  0.0035  0.8653  0.7151
 5136TIP3    H136823   4.454   2.096   0.198 -0.1946  0.1937  1.1633
 5136TIP3    H236824   4.582   2.176   0.206  0.1918 -0.2033 -0.5365
 5137TIP3   OH236825   0.734   5.465   1.334 -0.3071 -0.3279 -0.2287
 5137TIP3    H136826   0.728   5.419   1.418 -0.5758  0.1972  0.0381
 5137TIP3    H236827   0.649   5.453   1.293  0.0218 -1.1155 -0.7121
 5138TIP3   OH236828   3.904   3.223  17.030  0.0636 -0.4392 -0.4279
 5138TIP3    H136829   3.867   3.286  17.092 -0.3834  1.1428 -2.1900
 5138TIP3    H236830   3.994   3.210  17.059  0.4515  1.7464 -0.4771
 5139TIP3   OH236831   1.030   0.118  13.700 -0.5157 -0.2543  0.0894
 5139TIP3    H136832   0.960   0.180  13.721  0.5759  0.6450  1.2784
 5139TIP3    H236833   1.013   0.090  13.610 -2.1698  0.2206  0.2315
 5140TIP3   OH236834   2.675   5.452  14.214  0.0364  0.3383  0.3443
 5140TIP3    H136835   2.703   5.368  14.250  1.7615 -0.1405 -1.8955
 5140TIP3    H236836   2.754   5.506  14.215  0.0316  0.4739 -2.0588
 5141TIP3   OH236837   1.395   6.549   5.295 -0.3438  0.3494 -0.0783
 5141TIP3    H136838   1.366   6.635   5.263 -1.4277  0.3667  0.8681
 5141TIP3    H236839   1.341   6.487   5.247 -0.8224  0.3003  0.5049
 5142TIP3   OH236840   0.126   3.734  14.924 -0.1095  0.1187 -0.0390
 5142TIP3    H136841   0.070   3.657  14.929 -0.6778  0.5011 -0.4434
 5142TIP3    H236842   0.071   3.807  14.953  0.4762  0.3553  0.5139
 5143TIP3   OH236843   1.883   0.346   6.560  0.3064 -0.0478 -0.7318
 5143TIP3    H136844   1.948   0.277   6.559  1.1208  0.6942 -0.2027
 5143TIP3    H236845   1.843   0.341   6.647  1.3519  1.0222 -0.1638
 5144TIP3   OH236846   4.739   2.640   4.704  0.5488  0.3082 -0.1862
 5144TIP3    H136847   4.691   2.680   4.631 -1.7855 -0.7407  0.6805
 5144TIP3    H236848   4.727   2.546   4.691 -0.4920  0.1124  1.8593
 5145TIP3   OH236849   0.603   0.471   1.822  0.3403 -1.0718  0.2279
 5145TIP3    H136850   0.672   0.537   1.824 -0.2236 -0.3608 -1.5656
 5145TIP3    H236851   0.522   0.522   1.830 -0.1781 -1.3300 -2.4724
 5146TIP3   OH236852   2.593   0.329  13.582 -0.4876 -0.2827  0.3002
 5146TIP3    H136853   2.641   0.361  13.658 -0.8428 -3.5215  2.0808
 5146TIP3    H236854   2.503   0.318  13.613 -0.7367 -1.2648 -0.6778
 5147TIP3   OH236855   2.132   0.874  16.491  0.0497  0.0277  0.6472
 5147TIP3    H136856   2.184   0.928  16.550 -0.1489  1.1650 -0.1693
 5147TIP3    H236857   2.162   0.899  16.403 -1.3583  0.2141  0.1874
 5148TIP3   OH236858   2.025   5.430  13.441 -0.1394  0.9113 -0.1071
 5148TIP3    H136859   2.033   5.344  13.399  0.1925  0.9596 -0.1520
 5148TIP3    H236860   1.936   5.459  13.421  0.2575  1.2657 -1.4298
 5149TIP3   OH236861   0.391   1.820  17.022  0.0630 -0.1809 -0.1704
 5149TIP3    H136862   0.461   1.810  17.087  0.9833 -0.5203 -1.1790
 5149TIP3    H236863   0.316   1.773  17.059  0.4436 -0.0133  0.8208
 5150TIP3   OH236864   2.647   3.925  13.716 -0.2334 -0.1867  0.6548
 5150TIP3    H136865   2.648   4.021  13.717 -0.2750 -0.1619  2.7955
 5150TIP3    H236866   2.555   3.902  13.722 -0.2318 -0.3585 -0.0070
 5151TIP3   OH236867   1.596   3.049   5.014 -0.3159 -0.8011  0.3468
 5151TIP3    H136868   1.603   3.054   5.109 -0.8085 -0.7157  0.3845
 5151TIP3    H236869   1.590   2.956   4.995  0.5691 -0.8594  0.3317
 5152TIP3   OH236870   5.216   4.742   0.912 -0.2085  0.0488 -0.1042
 5152TIP3    H136871   5.209   4.837   0.907  0.5258  0.2149  1.4097
 5152TIP3    H236872   5.166   4.710   0.837 -1.7310  1.5875  0.1771
 5153TIP3   OH236873   6.762   0.758  13.448  0.4393 -0.0284  0.0589
 5153TIP3    H136874   6.791   0.770  13.538  0.0939  0.8459  0.0669
 5153TIP3    H236875   6.720   0.672  13.447  1.2164 -0.4265  0.5162
 5154TIP3   OH236876   5.299   5.254  16.547 -0.6677  0.1879  0.2754
 5154TIP3    H136877   5.269   5.293  16.466  0.5825  0.2297 -0.1891
 5154TIP3    H236878   5.393   5.241  16.535  0.1420  2.7780  2.7337
 5155TIP3   OH236879   3.330   1.892   0.853  0.0629  0.2144  0.1468
 5155TIP3    H136880   3.257   1.835   0.879 -0.2389  0.0190 -1.0296
 5155TIP3    H236881   3.373   1.915   0.935 -1.2505  0.2290  0.8619
 5156TIP3   OH236882   3.463   5.563   0.644 -0.1814 -0.2358  0.0766
 5156TIP3    H136883   3.392   5.587   0.703 -0.7838  0.3034 -0.8239
 5156TIP3    H236884   3.429   5.489   0.594  0.3538 -0.7469  0.4624
 5157TIP3   OH236885   4.101   6.035   4.777 -0.2365 -0.6847  0.2381
 5157TIP3    H136886   4.098   5.979   4.855 -0.5822  0.1005  0.7982
 5157TIP3    H236887   4.152   6.111   4.804  1.8345 -1.5175 -1.0638
 5158TIP3   OH236888   2.205   1.086  12.388 -0.8840 -0.9278  0.1484
 5158TIP3    H136889   2.150   1.163  12.375 -0.8578 -0.8628  0.4149
 5158TIP3    H236890   2.285   1.120  12.428 -1.0840 -1.1545  0.7580
 5159TIP3   OH236891   2.377   3.418  12.712  0.0116 -0.0338  0.4592
 5159TIP3    H136892   2.358   3.329  12.742  1.5607 -0.3414  0.6080
 5159TIP3    H236893   2.320   3.430  12.635 -1.1088 -0.6755  1.1565
 5160TIP3   OH236894   1.321   6.338   0.040  0.1351 -0.2111 -0.5138
 5160TIP3    H136895   1.352   6.423   0.009 -0.4155 -0.3854 -1.5841
 5160TIP3    H236896   1.390   6.276   0.015 -0.7938 -0.5357 -2.5373
 5161TIP3   OH236897   6.109   3.747   4.344  0.3612 -0.0358  0.1156
 5161TIP3    H136898   6.081   3.671   4.292  0.7147  0.6835 -1.1916
 5161TIP3    H236899   6.185   3.782   4.296  0.0378  1.3001  0.5351
 5162TIP3   OH236900   1.682   2.245  15.048  0.1444  0.5464  0.1382
 5162TIP3    H136901   1.717   2.304  14.982  0.7230 -0.1375 -0.1755
 5162TIP3    H236902   1.653   2.168  14.999  0.8055 -0.0692  0.6905
 5163TIP3   OH236903   6.117   2.959   2.973  0.2413  0.0950 -0.1262
 5163TIP3    H136904   6.023   2.954   2.957 -0.3397 -0.2857  2.8686
 5163TIP3    H236905   6.140   3.050   2.955 -0.4965  0.0359 -1.5552
 5164TIP3   OH236906   1.807   4.306   4.995 -0.3750  0.4230 -0.0657
 5164TIP3    H136907   1.762   4.380   4.955 -0.3325  1.2769  1.4258
 5164TIP3    H236908   1.845   4.259   4.920 -1.0403  1.4567 -1.0984
 5165TIP3   OH236909   0.848   3.031   4.964 -0.2347  0.1948 -0.6284
 5165TIP3    H136910   0.820   3.119   4.938 -0.2189  0.0515 -1.1368
 5165TIP3    H236911   0.912   3.006   4.898 -1.4513 -0.8631 -1.4525
 5166TIP3   OH236912   2.085   3.277   5.882  0.1939  0.2165 -0.6200
 5166TIP3    H136913   2.160   3.244   5.930 -0.8280  0.0359  0.9362
 5166TIP3    H236914   2.051   3.348   5.936 -0.0641  1.0917 -1.8912
 5167TIP3   OH236915   2.103   2.366   4.545 -0.0837 -0.4775 -0.4574
 5167TIP3    H136916   2.039   2.322   4.490  0.3398 -3.3441  1.1605
 5167TIP3    H236917   2.107   2.313   4.625  3.6661  0.0059 -0.1290
 5168TIP3   OH236918   0.918   1.429  14.692  0.2354 -0.5234 -0.1738
 5168TIP3    H136919   0.982   1.462  14.630  0.5832 -2.1686 -0.7359
 5168TIP3    H236920   0.865   1.505  14.715  1.7557  0.6661 -0.4489
 5169TIP3   OH236921   2.484   5.090  14.671 -0.3773 -1.5136 -0.2943
 5169TIP3    H136922   2.504   4.996  14.663  2.8290 -1.0170  0.4655
 5169TIP3    H236923   2.559   5.133  14.630 -0.6984  0.7135  1.3125
 5170TIP3   OH236924   6.133   0.063  17.145 -0.0845 -0.0917  0.1257
 5170TIP3    H136925   6.214   0.110  17.162 -0.1261 -0.3541  1.0716
 5170TIP3    H236926   6.063   0.126  17.162 -0.1119 -0.1922  0.3847
 5171TIP3   OH236927   0.334   4.689   3.690 -0.5542  0.0874  0.0943
 5171TIP3    H136928   0.280   4.679   3.768 -1.9746  2.2599 -0.5149
 5171TIP3    H236929   0.419   4.717   3.723 -1.4002  1.9100  0.9095
 5172TIP3   OH236930   6.312   6.537   0.755 -0.1591  0.3997  0.0798
 5172TIP3    H136931   6.392   6.587   0.740 -1.2796  2.4004  0.4149
 5172TIP3    H236932   6.322   6.459   0.701  2.1216  0.4370  0.3411
 5173TIP3   OH236933   3.434   6.066   4.019 -0.2244 -0.2955  0.3423
 5173TIP3    H136934   3.394   6.062   3.932 -1.2884  0.2106  0.7866
 5173TIP3    H236935   3.459   5.976   4.038  0.8879 -0.2641 -0.8686
 5174TIP3   OH236936   0.475   6.413   1.393  0.1196 -0.7662  0.1600
 5174TIP3    H136937   0.384   6.440   1.408  0.3438  0.2748 -0.2925
 5174TIP3    H236938   0.524   6.453   1.465  0.2499 -1.1608  0.2910
 5175TIP3   OH236939   1.744   1.766   1.548  0.0514  0.0164  0.0987
 5175TIP3    H136940   1.702   1.850   1.562  0.9791  0.3752  0.7751
 5175TIP3    H236941   1.692   1.725   1.478  0.6714  1.9019 -1.5653
 5176TIP3   OH236942   1.048   1.883   4.823  1.0765  0.4133  0.9811
 5176TIP3    H136943   1.098   1.886   4.904  1.7300 -0.9577  0.6553
 5176TIP3    H236944   1.094   1.943   4.764  1.4426  0.3018  1.1543
 5177TIP3   OH236945   0.038   0.575  17.004 -0.3824  0.0440  0.3238
 5177TIP3    H136946   0.110   0.616  17.052 -0.2467 -0.9292  0.9616
 5177TIP3    H236947  -0.039   0.593  17.058 -0.4029 -0.1098  0.3432
 5178TIP3   OH236948   6.088   1.553   2.463 -0.1752  0.0738  0.3631
 5178TIP3    H136949   6.114   1.539   2.554  0.6545  1.2819  0.3265
 5178TIP3    H236950   6.142   1.626   2.433  0.3600 -1.0011 -1.4363
 5179TIP3   OH236951   1.654   6.017   5.429 -0.0978  0.4271  0.0636
 5179TIP3    H136952   1.738   6.041   5.390 -0.4089  0.0899 -0.8384
 5179TIP3    H236953   1.632   6.091   5.486  0.5382  0.7686 -0.1283
 5180TIP3   OH236954   3.094   0.453   1.254  0.0920 -0.0538 -0.0159
 5180TIP3    H136955   3.188   0.443   1.238 -0.2060 -1.6689 -1.0852
 5180TIP3    H236956   3.076   0.395   1.327 -0.1082  0.1003  0.0577
 5181TIP3   OH236957   4.239   3.869  12.355 -0.0011  0.3267 -0.0338
 5181TIP3    H136958   4.233   3.964  12.349 -0.3386  0.4591  1.6917
 5181TIP3    H236959   4.167   3.845  12.414  0.4897 -0.9280  0.0853
 5182TIP3   OH236960   0.778   4.139  13.487  0.3240 -0.5204  0.0572
 5182TIP3    H136961   0.844   4.101  13.544 -0.3987 -2.7853 -0.5069
 5182TIP3    H236962   0.828   4.185  13.419  1.2528 -0.5205  0.7306
 5183TIP3   OH236963   5.372   2.917  10.446  0.2065  0.1628  0.5117
 5183TIP3    H136964   5.389   2.836  10.493  2.5441 -0.3244 -0.9979
 5183TIP3    H236965   5.418   2.984  10.496 -0.4263  0.2919  0.9228
 5184TIP3   OH236966   3.878   3.031  14.328  0.0824  0.5760 -0.5767
 5184TIP3    H136967   3.909   3.068  14.245  0.3307  0.3154 -0.6025
 5184TIP3    H236968   3.952   2.981  14.361  0.2158  1.2078  0.1312
 5185TIP3   OH236969   5.105   1.990  11.025 -0.4377  0.1780 -0.5104
 5185TIP3    H136970   5.148   1.906  11.010  1.0662  1.3308 -3.5191
 5185TIP3    H236971   5.020   1.981  10.981 -0.2973  0.2019 -0.7887
 5186TIP3   OH236972   2.457   4.348  15.067 -0.4422 -0.0723 -0.2082
 5186TIP3    H136973   2.527   4.287  15.044 -0.8752 -1.2803  1.4670
 5186TIP3    H236974   2.499   4.434  15.068 -0.1450  0.0035 -4.0992
 5187TIP3   OH236975   0.236   6.110  16.299  0.0729  0.1203 -0.1242
 5187TIP3    H136976   0.255   6.115  16.392 -0.0859 -0.7897 -0.0358
 5187TIP3    H236977   0.153   6.063  16.294  0.2474 -0.1328 -0.7359
 5188TIP3   OH236978   6.435   3.697   6.090  0.7656  0.2789  0.2448
 5188TIP3    H136979   6.388   3.777   6.114  0.5751 -0.5358  2.8233
 5188TIP3    H236980   6.528   3.722   6.094  0.7662  0.0936  2.4225
 5189TIP3   OH236981   6.248   3.755   3.049 -0.1336 -0.0621 -0.5692
 5189TIP3    H136982   6.246   3.806   2.967 -0.8736 -1.5204 -1.4945
 5189TIP3    H236983   6.333   3.776   3.088  0.4869  0.2138 -2.0131
 5190TIP3   OH236984   0.148   5.664   1.568 -0.6705 -0.2201  0.5550
 5190TIP3    H136985   0.188   5.706   1.492  0.3526 -2.9617 -0.5141
 5190TIP3    H236986   0.149   5.732   1.635  2.8031  0.8886 -0.4069
 5191TIP3   OH236987   2.754   2.438  12.270  0.0478 -0.5773  0.7372
 5191TIP3    H136988   2.750   2.522  12.223  0.1964 -2.0884 -2.1930
 5191TIP3    H236989   2.795   2.460  12.354  2.9887  1.8324 -1.1147
 5192TIP3   OH236990   1.934   3.809  15.403  0.0368  0.7666 -0.0901
 5192TIP3    H136991   1.965   3.846  15.485  0.6820 -0.2995  0.1568
 5192TIP3    H236992   2.003   3.829  15.340 -0.4581  1.5862 -0.3987
 5193TIP3   OH236993   4.709   3.348   1.703  0.2651  0.0136  0.6436
 5193TIP3    H136994   4.615   3.359   1.714  0.3229 -0.0932  1.2572
 5193TIP3    H236995   4.719   3.261   1.663  0.1032  0.0677  0.4841
 5194TIP3   OH236996   6.686   1.724   0.473 -0.1172  0.1619  0.4390
 5194TIP3    H136997   6.612   1.697   0.527  0.1383 -1.0684  0.2060
 5194TIP3    H236998   6.761   1.676   0.509  0.2188  0.0262 -0.4172
 5195TIP3   OH236999   4.426   1.176   5.859 -0.2222 -0.2934 -0.2253
 5195TIP3    H137000   4.488   1.215   5.921  0.1801 -2.4426  0.8065
 5195TIP3    H237001   4.340   1.190   5.899 -0.2319  0.7996 -0.6018
 5196TIP3   OH237002   2.648   4.610   2.567 -0.0309 -0.2326  0.2895
 5196TIP3    H137003   2.629   4.603   2.474 -0.4909  0.0670  0.3578
 5196TIP3    H237004   2.642   4.704   2.586  0.6337 -0.2232  0.5061
 5197TIP3   OH237005   1.558   6.128   0.464 -0.0815 -0.2986 -0.0304
 5197TIP3    H137006   1.631   6.107   0.522  1.5929  0.2379 -1.8529
 5197TIP3    H237007   1.567   6.222   0.447 -1.4972 -0.1222  0.0715
 5198TIP3   OH237008   0.081   1.042  15.452  0.3184  0.2981 -0.3296
 5198TIP3    H137009   0.024   1.087  15.390 -0.1048 -0.4065 -0.4595
 5198TIP3    H237010   0.165   1.034  15.406  0.3605  0.8364 -0.3505
 5199TIP3   OH237011   1.643   2.556   4.978  0.4020  0.3719  0.1842
 5199TIP3    H137012   1.675   2.631   5.027 -0.5393 -0.1883  1.7320
 5199TIP3    H237013   1.722   2.509   4.952  0.9714  1.4877 -0.1554
 5200TIP3   OH237014   1.912   2.494   4.973 -0.2187 -0.7028  0.3322
 5200TIP3    H137015   1.930   2.558   4.904 -3.0440 -0.1894 -0.0258
 5200TIP3    H237016   1.890   2.413   4.927 -2.7282 -0.1924  0.5324
 5201TIP3   OH237017   4.433   5.085   0.210 -0.0791  0.4683  0.2372
 5201TIP3    H137018   4.386   5.139   0.273 -0.2972  2.0136 -1.1715
 5201TIP3    H237019   4.385   5.001   0.209 -1.3642  1.1735  0.5742
 5202TIP3   OH237020   1.131   4.065  12.032 -0.1029 -0.0101  0.3241
 5202TIP3    H137021   1.141   3.970  12.020 -1.0445  0.1767 -2.6456
 5202TIP3    H237022   1.036   4.079  12.033  0.0248  0.8941  1.2050
 5203TIP3   OH237023   3.411   3.352  15.313 -0.0001  0.2825 -0.0663
 5203TIP3    H137024   3.464   3.422  15.349 -0.4249  0.1120  0.9191
 5203TIP3    H237025   3.463   3.317  15.241  1.4330 -0.1534  1.1248
 5204TIP3   OH237026   3.078   4.115   5.196 -0.6777  0.7917  0.0327
 5204TIP3    H137027   3.168   4.131   5.225 -0.9517  2.3249  0.1199
 5204TIP3    H237028   3.030   4.096   5.277 -0.3949 -0.2980 -0.0433
 5205TIP3   OH237029   2.407   5.504   1.266  0.0274 -0.5156  0.4484
 5205TIP3    H137030   2.438   5.592   1.288 -1.7409 -0.3416  2.5249
 5205TIP3    H237031   2.386   5.509   1.173  2.3770  0.4559 -0.1002
 5206TIP3   OH237032   1.589   4.133   4.393 -0.0189  0.2981  0.0336
 5206TIP3    H137033   1.516   4.093   4.440 -0.7514  0.3056 -1.0730
 5206TIP3    H237034   1.649   4.061   4.376  1.1061  0.5721  2.4391
 5207TIP3   OH237035   5.248   3.708   2.245 -0.1386  0.2151  0.3768
 5207TIP3    H137036   5.159   3.739   2.230  0.2022  0.6232 -0.9578
 5207TIP3    H237037   5.237   3.620   2.282 -1.0952 -0.0861 -0.5790
 5208TIP3   OH237038   3.525   5.518  14.760  0.0790  0.4217  0.4408
 5208TIP3    H137039   3.565   5.539  14.844  1.4683  0.6358 -0.2420
 5208TIP3    H237040   3.591   5.465  14.715 -1.1904 -0.8554  0.0127
 5209TIP3   OH237041   2.250   3.660  11.524  0.2057  0.2935  0.3497
 5209TIP3    H137042   2.328   3.658  11.579  0.9026 -0.4646 -0.6268
 5209TIP3    H237043   2.198   3.585  11.552 -0.2941  0.9050  1.1279
 5210TIP3   OH237044   2.850   0.335   6.190  0.4357  0.0527 -0.1118
 5210TIP3    H137045   2.799   0.254   6.190 -0.2841  0.4925  1.0386
 5210TIP3    H237046   2.786   0.404   6.205  1.0901  0.8190 -0.7767
 5211TIP3   OH237047   1.521   1.563  12.522 -0.2539  0.2388 -0.2210
 5211TIP3    H137048   1.544   1.488  12.577 -1.3013 -1.4413 -1.9421
 5211TIP3    H237049   1.588   1.563  12.453 -0.0694  1.1043 -0.0476
 5212TIP3   OH237050   5.565   5.203   0.894  0.1297  0.2707  0.0827
 5212TIP3    H137051   5.599   5.280   0.939 -0.7730 -0.8653  2.9407
 5212TIP3    H237052   5.633   5.137   0.906 -0.0692 -0.0110 -0.3582
 5213TIP3   OH237053   0.989   0.072   5.602  0.0699 -0.7660  0.0538
 5213TIP3    H137054   0.918   0.022   5.641  0.3434 -0.5250  0.8986
 5213TIP3    H237055   0.996   0.150   5.658  1.4432 -1.1167  0.4125
 5214TIP3   OH237056   4.654   3.496   5.685  0.0933  0.3842  0.2022
 5214TIP3    H137057   4.671   3.405   5.664  2.8784  1.1997 -1.7496
 5214TIP3    H237058   4.692   3.508   5.772  1.6994  0.1016 -0.4259
 5215TIP3   OH237059   5.051   3.248  17.192 -0.0695 -0.3303  0.4068
 5215TIP3    H137060   4.962   3.213  17.182 -0.4150  0.3691  0.8670
 5215TIP3    H237061   5.047   3.298  17.274  0.7276 -0.2159  0.3809
 5216TIP3   OH237062   3.788   6.313   1.955 -0.2366  0.2865 -0.0494
 5216TIP3    H137063   3.866   6.296   1.903  0.1774  0.5723  0.4678
 5216TIP3    H237064   3.717   6.269   1.907  0.3272 -0.4441 -0.2310
 5217TIP3   OH237065   1.599   1.994   1.645  0.5773  0.1799  0.4588
 5217TIP3    H137066   1.646   2.057   1.699 -2.0470  2.1668  0.6166
 5217TIP3    H237067   1.537   1.952   1.705 -0.3576  0.2952 -0.3888
 5218TIP3   OH237068   3.312   6.603   5.940  0.7592 -0.0344  0.1312
 5218TIP3    H137069   3.326   6.581   6.032  2.4851 -0.6512 -0.2367
 5218TIP3    H237070   3.331   6.522   5.893 -0.0752  0.2821 -0.7797
 5219TIP3   OH237071   5.220   6.796  16.648  0.1260 -0.5870 -0.0982
 5219TIP3    H137072   5.198   6.745  16.726  0.6981 -0.2384  0.2968
 5219TIP3    H237073   5.166   6.875  16.655 -0.2101 -0.7888 -0.3325
 5220TIP3   OH237074   1.227   0.834  11.779  0.3626  0.2499  0.9175
 5220TIP3    H137075   1.248   0.804  11.690 -2.2102 -2.1215  0.9507
 5220TIP3    H237076   1.192   0.922  11.767  1.4876  0.5689 -0.2001
 5221TIP3   OH237077   0.869   1.667   5.137 -0.1320  0.2416 -0.1838
 5221TIP3    H137078   0.891   1.640   5.048 -0.8168 -0.1087 -0.2572
 5221TIP3    H237079   0.910   1.601   5.193  1.0425  0.9553 -0.1884
 5222TIP3   OH237080   4.821   5.622   3.633  0.1976  0.5521  0.0851
 5222TIP3    H137081   4.787   5.690   3.575  2.0527  1.6723  0.2603
 5222TIP3    H237082   4.747   5.562   3.645 -1.7182  2.8460  0.4533
 5223TIP3   OH237083   5.354   3.970  16.373 -0.1325 -0.1270  0.2647
 5223TIP3    H137084   5.395   3.966  16.459 -0.7972 -0.6452  0.5654
 5223TIP3    H237085   5.418   3.931  16.314  0.6533  0.9429  0.3832
 5224TIP3   OH237086   2.307   4.455  14.788  0.0015  0.3919  0.2552
 5224TIP3    H137087   2.296   4.510  14.710  1.4776  0.9804  0.4307
 5224TIP3    H237088   2.279   4.511  14.860 -2.4118 -0.5149  0.1164
 5225TIP3   OH237089   5.193   2.818  16.496 -0.4455 -0.0219  0.4282
 5225TIP3    H137090   5.201   2.848  16.405 -1.4282 -0.1367  0.2995
 5225TIP3    H237091   5.279   2.837  16.535  0.4677 -1.1972 -0.8839
 5226TIP3   OH237092   0.725   5.113   4.850 -0.2762 -0.6030  0.4340
 5226TIP3    H137093   0.720   5.186   4.913 -0.8247 -0.3477  0.1020
 5226TIP3    H237094   0.723   5.156   4.764  0.5878 -0.9410  0.2383
 5227TIP3   OH237095   4.421   2.034  12.252 -0.3400 -0.4295  0.1627
 5227TIP3    H137096   4.516   2.035  12.240 -0.4514 -1.9773 -1.1602
 5227TIP3    H237097   4.394   1.948  12.220 -2.2329  0.1130  0.2164
 5228TIP3   OH237098   3.594   5.466  14.255  0.0519 -0.0948  0.2760
 5228TIP3    H137099   3.528   5.503  14.312  0.2439  0.3674  0.2045
 5228TIP3    H237100   3.547   5.441  14.175 -0.4851 -2.0506  1.1374
 5229TIP3   OH237101   0.401   6.131  16.086 -0.0075 -0.0565  0.0261
 5229TIP3    H137102   0.351   6.129  16.168  0.7806  1.6362  0.5837
 5229TIP3    H237103   0.344   6.176  16.024 -1.0472 -2.2667 -0.7307
 5230TIP3   OH237104   2.148   6.335   4.337  0.1847  0.0510 -0.2674
 5230TIP3    H137105   2.085   6.407   4.345  0.1055 -0.2035  1.9017
 5230TIP3    H237106   2.193   6.333   4.421  0.8543 -1.8385 -0.6262
 5231TIP3   OH237107   2.247   5.640  15.325  0.2322 -0.1397 -0.6893
 5231TIP3    H137108   2.169   5.620  15.377  1.1130 -1.4617  0.1886
 5231TIP3    H237109   2.299   5.698  15.380  0.1841  0.1947 -0.9933
 5232TIP3   OH237110   4.477   6.526   3.960 -0.5140  0.6482 -0.4321
 5232TIP3    H137111   4.549   6.573   4.004 -0.5132  0.9718 -0.7732
 5232TIP3    H237112   4.403   6.536   4.020  0.1397 -1.1324  0.7429
 5233TIP3   OH237113   1.090   3.472  15.993  0.3862  0.0204 -0.1857
 5233TIP3    H137114   1.150   3.501  16.061  0.0453 -0.5730  0.3769
 5233TIP3    H237115   1.127   3.389  15.962  0.1698 -0.0609 -0.2319
 5234TIP3   OH237116   5.325   0.844   4.084  0.2911 -0.0859 -0.3618
 5234TIP3    H137117   5.283   0.878   4.163 -3.1347 -2.1848 -1.0198
 5234TIP3    H237118   5.306   0.909   4.017 -0.8799 -0.3699 -0.3422
 5235TIP3   OH237119   1.128   4.468  11.698  0.7903 -0.1442  0.0819
 5235TIP3    H137120   1.215   4.487  11.662  0.6484  0.2181 -0.0684
 5235TIP3    H237121   1.071   4.535  11.660  0.4935 -0.2235  0.3862
 5236TIP3   OH237122   5.997   1.877   5.714 -0.8652  0.4496  0.2232
 5236TIP3    H137123   6.033   1.880   5.803 -0.2151  2.0168 -0.0452
 5236TIP3    H237124   5.995   1.784   5.691  1.7430  0.1718  0.7960
 5237TIP3   OH237125   5.736   4.869   0.285 -0.4506 -0.3305 -0.3059
 5237TIP3    H137126   5.824   4.852   0.316 -1.4974 -0.9709  2.7006
 5237TIP3    H237127   5.700   4.932   0.349 -2.6180 -1.2390 -0.5298
 5238TIP3   OH237128   1.568   5.213   1.794  0.0231 -1.0379  0.0811
 5238TIP3    H137129   1.564   5.155   1.718 -1.7198  0.0775 -0.7405
 5238TIP3    H237130   1.661   5.219   1.815  0.4288 -2.3260 -1.2042
 5239TIP3   OH237131   2.355   1.527   3.358  0.2735 -0.3408 -0.4387
 5239TIP3    H137132   2.402   1.555   3.280 -1.7416  2.0100 -0.9004
 5239TIP3    H237133   2.270   1.499   3.326 -0.5055  0.4534  0.8782
 5240TIP3   OH237134   0.125   4.642   5.550 -0.5622 -0.2982 -0.1381
 5240TIP3    H137135   0.065   4.675   5.617  0.2344  0.3149  0.2836
 5240TIP3    H237136   0.117   4.706   5.478  0.0101  0.1050  0.1525
 5241TIP3   OH237137   1.579   6.223  17.209 -0.0220  1.0594  0.3141
 5241TIP3    H137138   1.624   6.248  17.128 -0.0825  0.4271  0.0799
 5241TIP3    H237139   1.626   6.145  17.240 -1.6905 -0.3835 -0.6111
 5242TIP3   OH237140   3.949   0.829   3.174  0.3320  0.2955  0.7622
 5242TIP3    H137141   3.879   0.769   3.200  1.6560 -0.6293  2.3257
 5242TIP3    H237142   3.902   0.909   3.147 -1.3681 -0.7330  0.5074
 5243TIP3   OH237143   0.076   1.464  15.190 -0.2379  0.3179  0.4646
 5243TIP3    H137144   0.144   1.530  15.199 -0.0465  0.0624  0.9680
 5243TIP3    H237145   0.124   1.381  15.190 -0.1802  0.2105 -2.9957
 5244TIP3   OH237146   4.722   4.174  17.072 -0.1106  0.4377  0.3065
 5244TIP3    H137147   4.704   4.203  17.161  1.7933  1.0392  0.5462
 5244TIP3    H237148   4.734   4.254  17.022  2.2243  0.1609  0.3089
 5245TIP3   OH237149   2.488   3.290  10.851 -0.1167 -0.1732 -0.9810
 5245TIP3    H137150   2.571   3.257  10.817  0.2851  0.5913 -0.7589
 5245TIP3    H237151   2.446   3.213  10.892  0.9639 -0.3315 -0.1395
 5246TIP3   OH237152   1.571   4.299  14.434  0.2295  0.2646 -0.3947
 5246TIP3    H137153   1.592   4.315  14.343  1.4356  0.6293 -0.0738
 5246TIP3    H237154   1.602   4.377  14.480  0.3575 -0.2518  0.4172
 5247TIP3   OH237155   4.823   6.698  11.557 -0.3642  0.3290  0.2449
 5247TIP3    H137156   4.803   6.696  11.651 -1.2045  0.4502  0.0829
 5247TIP3    H237157   4.737   6.694  11.515  0.0627 -1.6865 -0.5568
 5248TIP3   OH237158   1.687   3.800   4.984  0.0566  0.1153  0.1819
 5248TIP3    H137159   1.732   3.754   4.913 -0.6671  0.4525 -0.5107
 5248TIP3    H237160   1.608   3.749   5.000  0.2130  0.0458  0.7442
 5249TIP3   OH237161   3.612   2.816  16.893 -0.0331 -0.1643 -0.1941
 5249TIP3    H137162   3.672   2.855  16.956 -0.8461  1.6813 -0.4812
 5249TIP3    H237163   3.641   2.850  16.808 -0.4113 -0.6891 -0.5427
 5250TIP3   OH237164   4.815   6.119  10.390 -0.0082  0.0125  0.3323
 5250TIP3    H137165   4.755   6.097  10.319  0.5800  0.2817 -0.2524
 5250TIP3    H237166   4.866   6.193  10.357  1.3319 -0.8383  0.4361
 5251TIP3   OH237167   1.763   1.131   5.762 -0.2450 -0.2911 -0.1935
 5251TIP3    H137168   1.786   1.201   5.824 -2.2174  1.4542 -1.2732
 5251TIP3    H237169   1.799   1.052   5.801  1.9356  1.2605  1.2131
 5252TIP3   OH237170   0.134   3.827  15.847 -0.0869 -0.1744 -0.0264
 5252TIP3    H137171   0.061   3.803  15.904 -0.8386  0.4519 -0.7083
 5252TIP3    H237172   0.210   3.826  15.905 -0.3304 -2.4458  0.3456
 5253TIP3   OH237173   5.461   2.997   4.742  0.2141 -0.1521 -0.0654
 5253TIP3    H137174   5.475   2.939   4.667  0.0741  0.4390 -0.5577
 5253TIP3    H237175   5.468   2.939   4.818 -1.1404 -1.0561 -0.5845
 5254TIP3   OH237176   3.056   0.201  14.125  0.5023 -0.1235  0.7239
 5254TIP3    H137177   3.107   0.245  14.193  0.8410  2.4781 -1.0438
 5254TIP3    H237178   3.116   0.191  14.051 -0.4926 -0.5296 -0.0688
 5255TIP3   OH237179   6.519   6.015   0.897 -0.1512 -1.1187  0.2941
 5255TIP3    H137180   6.538   6.108   0.909  0.7453 -0.9486 -2.0043
 5255TIP3    H237181   6.556   5.973   0.975 -1.1168  0.4731  1.6681
 5256TIP3   OH237182   6.514   6.354   4.520  0.3842  0.2937  0.5591
 5256TIP3    H137183   6.587   6.294   4.503  0.3352  0.6217 -0.9180
 5256TIP3    H237184   6.465   6.312   4.591  0.7773 -1.0454  0.0751
 5257TIP3   OH237185   0.495   4.122   3.059  0.5373  0.1114  0.3866
 5257TIP3    H137186   0.403   4.095   3.054  0.6422 -0.3467  0.8127
 5257TIP3    H237187   0.505   4.186   2.989 -0.3456  0.8659  0.9188
 5258TIP3   OH237188   0.132   2.929  12.001 -0.0934 -0.2907  0.1121
 5258TIP3    H137189   0.179   2.847  12.011  0.9447  0.1986 -0.5380
 5258TIP3    H237190   0.200   2.994  11.984 -1.0171  0.3951 -1.1939
 5259TIP3   OH237191   0.201   4.244   2.585 -0.0746  0.1306  0.3455
 5259TIP3    H137192   0.129   4.251   2.648  0.7099 -1.4201  1.4774
 5259TIP3    H237193   0.234   4.334   2.576  0.9534  0.2041  3.6124
 5260TIP3   OH237194   4.501   3.411   0.282  0.2533 -0.2727  0.0720
 5260TIP3    H137195   4.585   3.443   0.249  0.6008  1.0962  2.1301
 5260TIP3    H237196   4.473   3.478   0.345 -1.1699 -1.9253  1.2755
 5261TIP3   OH237197   1.298   0.191   0.502 -0.0197 -0.1252 -0.6515
 5261TIP3    H137198   1.344   0.235   0.431  1.2481 -1.1754 -0.5151
 5261TIP3    H237199   1.336   0.228   0.582  0.2883 -0.6744 -0.5381
 5262TIP3   OH237200   0.642   3.159   3.000  0.3077 -0.3306  0.2191
 5262TIP3    H137201   0.653   3.080   2.947 -2.1437 -0.3812 -0.3661
 5262TIP3    H237202   0.593   3.130   3.077  0.0445  0.4772  0.3704
 5263TIP3   OH237203   5.669   1.895   1.254  0.3845  0.1078 -0.0311
 5263TIP3    H137204   5.617   1.950   1.196  0.7383 -0.9122 -1.3685
 5263TIP3    H237205   5.617   1.886   1.333 -0.3679  1.0687 -0.4015
 5264TIP3   OH237206   5.152   4.232  11.811  0.2739 -0.0210  0.4547
 5264TIP3    H137207   5.235   4.228  11.764  0.4915  0.6938  0.7606
 5264TIP3    H237208   5.163   4.173  11.886 -0.7728 -2.7427 -1.3846
 5265TIP3   OH237209   5.274   3.311   3.475 -0.6703  0.1310 -0.3437
 5265TIP3    H137210   5.352   3.260   3.453 -1.3744 -0.5007 -1.5188
 5265TIP3    H237211   5.278   3.323   3.570  0.6144 -0.2679 -0.3296
 5266TIP3   OH237212   5.808   6.474   1.293 -0.2135 -0.0642  0.4904
 5266TIP3    H137213   5.785   6.482   1.201 -0.9808  1.3183  0.7852
 5266TIP3    H237214   5.860   6.552   1.313  0.5377 -0.6904  1.0701
 5267TIP3   OH237215   5.631   2.074  14.791  0.0260 -0.0440  0.3480
 5267TIP3    H137216   5.712   2.116  14.821  0.3321 -1.4208  1.5978
 5267TIP3    H237217   5.660   1.995  14.747 -0.5674  0.7216 -1.5397
 5268TIP3   OH237218   2.217   3.690  10.621 -0.1335  0.2348  0.2535
 5268TIP3    H137219   2.257   3.658  10.541  0.2438  2.1117 -0.3470
 5268TIP3    H237220   2.125   3.667  10.613  0.4019 -2.5411  0.8488
 5269TIP3   OH237221   6.601   5.623  12.193  0.0369  0.2949  0.0288
 5269TIP3    H137222   6.584   5.570  12.115 -1.8952  1.8221 -0.6561
 5269TIP3    H237223   6.656   5.695  12.162 -0.7953  0.9447  0.0402
 5270TIP3   OH237224   0.856   4.093  12.033  0.3932 -0.2585  0.4744
 5270TIP3    H137225   0.791   4.130  12.093 -0.1060  0.3198 -0.4071
 5270TIP3    H237226   0.825   4.005  12.016  0.2022 -0.2114  0.5749
 5271TIP3   OH237227   3.896   0.639  13.468 -0.4058 -0.6021 -0.2319
 5271TIP3    H137228   3.890   0.652  13.563 -2.0860 -1.7235 -0.1401
 5271TIP3    H237229   3.806   0.619  13.441  0.2202 -1.3358 -1.8943
 5272TIP3   OH237230   2.320   1.830  11.142 -0.1549  0.0480  0.4748
 5272TIP3    H137231   2.257   1.889  11.101  1.3771  0.5956 -1.1766
 5272TIP3    H237232   2.292   1.742  11.116 -1.0823  0.1613  1.0248
 5273TIP3   OH237233   0.143   4.084   3.630 -0.1474  0.0324 -0.7859
 5273TIP3    H137234   0.213   4.034   3.587  0.0617  1.3298 -2.0279
 5273TIP3    H237235   0.062   4.044   3.598 -0.0271 -1.3545  0.5126
 5274TIP3   OH237236   6.610   2.935  11.996  0.1287 -0.0071  0.4067
 5274TIP3    H137237   6.525   2.914  11.957  0.6247  0.3688 -0.9299
 5274TIP3    H237238   6.651   2.850  12.012 -1.0334 -0.2614  2.4082
 5275TIP3   OH237239   4.355   4.943   4.241  0.6476 -0.5928 -0.5471
 5275TIP3    H137240   4.276   4.896   4.269 -2.3923  2.2129 -3.4684
 5275TIP3    H237241   4.396   4.971   4.322 -2.9300  0.0618  1.2398
 5276TIP3   OH237242   2.455   3.971   4.961 -0.2747  0.4037 -0.1513
 5276TIP3    H137243   2.506   3.908   5.011  0.3054 -0.1246 -1.3646
 5276TIP3    H237244   2.499   4.055   4.975  0.1465  0.1804 -0.1424
 5277TIP3   OH237245   3.587   6.753   0.100 -0.1061 -0.2956  0.8610
 5277TIP3    H137246   3.633   6.672   0.125  1.0538  0.9901  3.2436
 5277TIP3    H237247   3.502   6.746   0.143  0.4950  0.2720  2.2137
 5278TIP3   OH237248   5.637   4.797  13.536 -0.1152 -0.5733 -0.2046
 5278TIP3    H137249   5.727   4.823  13.516 -1.0992  2.6551 -1.0003
 5278TIP3    H237250   5.644   4.746  13.617  2.3226  0.5970  0.4058
 5279TIP3   OH237251   5.399   4.105   6.136  0.8049  0.0170  0.1139
 5279TIP3    H137252   5.465   4.037   6.125 -0.0292 -0.8145  0.1638
 5279TIP3    H237253   5.429   4.177   6.081  2.0194 -0.1443  0.5420
 5280TIP3   OH237254   2.108   6.254   0.557  0.2359 -0.0545 -0.8866
 5280TIP3    H137255   2.176   6.240   0.623 -0.7783  1.0060  0.4460
 5280TIP3    H237256   2.095   6.348   0.556 -1.6419 -0.2780 -0.6443
 5281TIP3   OH237257   1.904   0.929  11.478 -0.1579  0.4711  0.6153
 5281TIP3    H137258   1.873   1.017  11.502  0.0259  1.8318 -3.4245
 5281TIP3    H237259   1.872   0.916  11.389  4.3100 -1.2642 -0.9836
 5282TIP3   OH237260   0.470   0.685  11.724 -0.0847 -0.2011 -0.5691
 5282TIP3    H137261   0.463   0.595  11.756 -1.9808 -0.2777 -1.0905
 5282TIP3    H237262   0.394   0.730  11.761  1.0606  1.3330  0.0412
 5283TIP3   OH237263   4.737   6.191   5.433 -0.5915  0.0138  0.0502
 5283TIP3    H137264   4.754   6.105   5.397 -1.8094  0.4566 -1.7005
 5283TIP3    H237265   4.706   6.174   5.522  1.2457 -1.1848  0.5097
 5284TIP3   OH237266   3.469   5.492  12.102  0.7622 -0.4158  0.1741
 5284TIP3    H137267   3.460   5.492  12.197 -1.4189  0.0789  0.0160
 5284TIP3    H237268   3.380   5.481  12.069  1.4592 -0.5277 -1.8228
 5285TIP3   OH237269   6.228   0.557  15.929 -0.7722 -0.1178  0.3873
 5285TIP3    H137270   6.150   0.572  15.982 -0.8843  0.1514  0.1484
 5285TIP3    H237271   6.297   0.607  15.974 -1.3224  1.8906 -0.8592
 5286TIP3   OH237272   4.048   4.550  16.052  0.4906 -0.4026  0.2732
 5286TIP3    H137273   4.109   4.480  16.072 -0.7963 -1.5276  0.3979
 5286TIP3    H237274   4.033   4.543  15.957  1.3504  0.5545  0.0501
 5287TIP3   OH237275   6.079   1.886   3.853 -0.6945  0.2656  0.0388
 5287TIP3    H137276   6.107   1.906   3.942 -1.9923 -1.2666  0.8394
 5287TIP3    H237277   6.045   1.968   3.819 -0.4976  0.7873  1.0702
 5288TIP3   OH237278   5.896   1.633   4.122  0.4471  0.7002  0.6352
 5288TIP3    H137279   5.861   1.565   4.180 -1.4930  0.2350 -0.9253
 5288TIP3    H237280   5.832   1.704   4.127  1.7243  1.8519  1.1720
 5289TIP3   OH237281   1.970   3.568  12.478 -0.0326 -0.2988  0.3205
 5289TIP3    H137282   1.923   3.585  12.396 -0.2824  0.2437  0.5716
 5289TIP3    H237283   2.041   3.632  12.477  0.4149 -0.7927  0.1742
 5290TIP3   OH237284   5.704   0.583  15.808 -0.3359  0.1814  0.6257
 5290TIP3    H137285   5.671   0.583  15.898  0.2827 -0.4289  0.8708
 5290TIP3    H237286   5.689   0.494  15.777  0.0485  0.2071  0.3573
 5291TIP3   OH237287   0.895   3.953   1.600  0.4254  0.2440  0.5206
 5291TIP3    H137288   0.830   4.023   1.595 -0.1641 -0.2924  0.5774
 5291TIP3    H237289   0.971   3.989   1.554 -0.5218  0.2245 -1.1765
 5292TIP3   OH237290   0.401   2.451  11.273  0.0672  0.0333  0.9302
 5292TIP3    H137291   0.376   2.536  11.238 -0.4429 -0.4124  0.1700
 5292TIP3    H237292   0.319   2.402  11.278  0.4697 -0.7189  0.4800
 5293TIP3   OH237293   1.938   0.413  14.291 -0.0268 -0.4504  0.1040
 5293TIP3    H137294   1.995   0.336  14.294  1.0528  0.2323 -1.5136
 5293TIP3    H237295   1.875   0.394  14.222 -2.2232 -1.4351  2.2462
 5294TIP3   OH237296   0.200   0.211  16.966  0.2335  0.1363  0.1545
 5294TIP3    H137297   0.282   0.247  16.999 -1.1207  0.6788  3.2676
 5294TIP3    H237298   0.193   0.126  17.009 -2.0063  1.2131  2.0952
 5295TIP3   OH237299   2.361   2.407  15.006  0.1922 -0.3199 -0.3875
 5295TIP3    H137300   2.413   2.362  14.940  1.1446 -0.2193  0.2649
 5295TIP3    H237301   2.319   2.338  15.056  0.4242 -0.4423 -0.3588
 5296TIP3   OH237302   0.035   1.086   1.681  0.2017 -0.2218 -0.2576
 5296TIP3    H137303   0.071   1.144   1.613 -0.5732  0.2824 -0.2439
 5296TIP3    H237304   0.113   1.051   1.725  0.6920  0.4171 -0.5948
 5297TIP3   OH237305   2.376   3.913  10.698 -0.8036  0.1291 -0.2784
 5297TIP3    H137306   2.441   3.901  10.767 -2.4053  1.0792  1.4993
 5297TIP3    H237307   2.338   3.826  10.686 -0.0007 -0.1969 -0.5322
 5298TIP3   OH237308   5.228   4.991   2.412 -0.3248 -0.2272  0.9626
 5298TIP3    H137309   5.270   4.994   2.499 -1.7659 -0.6884  1.7064
 5298TIP3    H237310   5.196   5.079   2.397  0.1565 -0.0828  0.7785
 5299TIP3   OH237311   3.872   3.353  13.559 -0.0352  0.3214  0.1308
 5299TIP3    H137312   3.874   3.356  13.464 -1.2667 -0.1159  0.0736
 5299TIP3    H237313   3.792   3.304  13.580  0.3441  0.2007  1.3821
 5300TIP3   OH237314   3.698   1.896  14.291 -0.4231 -0.5150  0.2198
 5300TIP3    H137315   3.631   1.849  14.242 -0.9209  0.5540 -0.1709
 5300TIP3    H237316   3.686   1.870  14.382  0.0739 -2.0152 -0.1189
 5301TIP3   OH237317   5.390   5.996   4.194 -0.0297  0.2475 -0.1906
 5301TIP3    H137318   5.412   5.907   4.169  0.4961 -0.2858  1.9339
 5301TIP3    H237319   5.314   6.018   4.141 -1.7766 -2.4246  0.9984
 5302TIP3   OH237320   5.203   5.078  14.919  0.6988 -0.3535 -0.1374
 5302TIP3    H137321   5.151   5.155  14.938  1.1085 -0.2616  0.6582
 5302TIP3    H237322   5.175   5.013  14.983  2.8550  0.3045  1.5991
 5303TIP3   OH237323   2.898   1.771   0.517 -0.0917  0.1272 -0.1160
 5303TIP3    H137324   2.895   1.848   0.460  0.2234  1.0920  1.1169
 5303TIP3    H237325   2.808   1.737   0.515 -0.2268  0.5022 -0.7114
 5304TIP3   OH237326   6.641   1.250  13.446  0.1148 -0.8568 -0.5853
 5304TIP3    H137327   6.577   1.184  13.472 -2.3305  1.7201  0.3866
 5304TIP3    H237328   6.722   1.224  13.491 -1.0525 -2.5698  0.6394
 5305TIP3   OH237329   3.153   2.751  13.236  0.6046 -0.3196 -0.4047
 5305TIP3    H137330   3.192   2.836  13.218 -0.3422  0.1056 -0.5215
 5305TIP3    H237331   3.226   2.696  13.265  1.2762  0.4361 -0.6433
 5306TIP3   OH237332   5.606   0.024   0.284  0.0571  1.1691  0.2707
 5306TIP3    H137333   5.512   0.023   0.266  0.4569  1.0733 -2.0333
 5306TIP3    H237334   5.646   0.060   0.205  1.9745  1.2919  1.2288
 5307TIP3   OH237335   0.393   5.248  15.616  0.4057  0.3506 -0.0598
 5307TIP3    H137336   0.339   5.328  15.614  0.2052  0.1962 -1.4114
 5307TIP3    H237337   0.482   5.280  15.630  0.2648  0.7789 -0.1152
 5308TIP3   OH237338   3.989   1.162   0.936  0.4177  0.7264 -0.4654
 5308TIP3    H137339   3.979   1.087   0.994  1.2114  1.4173  0.5929
 5308TIP3    H237340   4.068   1.143   0.885  0.7302  0.9317 -0.0585
 5309TIP3   OH237341   1.014   4.242   4.584  0.2160 -0.0080  0.5304
 5309TIP3    H137342   0.952   4.209   4.648 -0.3435 -1.5591 -0.7305
 5309TIP3    H237343   0.968   4.237   4.500  1.9878 -1.2061 -0.4492
 5310TIP3   OH237344   0.095   3.571   1.491  0.1305 -0.4558  0.3465
 5310TIP3    H137345   0.101   3.550   1.584 -0.4807 -2.2368  0.0181
 5310TIP3    H237346   0.006   3.547   1.466 -0.2317  1.4436 -0.4060
 5311TIP3   OH237347   3.049   5.701  12.003  0.0637  0.5718 -0.7438
 5311TIP3    H137348   2.962   5.665  11.987 -0.9769  2.2322  0.7465
 5311TIP3    H237349   3.061   5.767  11.933 -0.0969  0.6944 -0.6561
 5312TIP3   OH237350   4.174   2.283  16.435 -0.1887  0.5412 -0.0301
 5312TIP3    H137351   4.130   2.347  16.491  0.9265  0.7594  0.6163
 5312TIP3    H237352   4.132   2.293  16.350 -1.0814  1.0461  0.4557
 5313TIP3   OH237353   5.359   0.662  14.602  0.9662  0.1933  0.5773
 5313TIP3    H137354   5.344   0.739  14.657  0.1080 -0.1278  0.7984
 5313TIP3    H237355   5.442   0.681  14.558  0.8762  1.1525  0.7879
 5314TIP3   OH237356   2.932   4.021   5.405  0.7442  0.1606  0.1457
 5314TIP3    H137357   2.962   3.989   5.490  1.6062 -1.8486 -0.8400
 5314TIP3    H237358   2.839   3.997   5.403  1.0434 -1.0556  0.0009
 5315TIP3   OH237359   6.233   2.025   2.618 -0.1990 -0.2462 -0.2996
 5315TIP3    H137360   6.237   2.082   2.695 -0.7573  0.4291 -0.7548
 5315TIP3    H237361   6.139   2.006   2.607  0.0581 -2.3260  0.5930
 5316TIP3   OH237362   3.730   5.162  12.959  0.0752  0.2960 -0.0696
 5316TIP3    H137363   3.737   5.157  12.863  0.0674 -0.0412 -0.0530
 5316TIP3    H237364   3.779   5.086  12.990 -0.2829  0.1679  0.1812
 5317TIP3   OH237365   4.550   3.282   3.951 -0.3000 -0.0320 -0.0128
 5317TIP3    H137366   4.593   3.210   3.997 -1.3249  0.7750  2.4023
 5317TIP3    H237367   4.499   3.240   3.882  0.9763 -1.3619 -0.1952
 5318TIP3   OH237368   0.837   5.057   5.269  0.2619 -0.2258 -0.1378
 5318TIP3    H137369   0.900   5.000   5.312  2.3592  1.5267 -0.6883
 5318TIP3    H237370   0.885   5.138   5.253 -2.0664  1.1130 -0.8885
 5319TIP3   OH237371   3.263   2.511   0.043 -0.1229 -0.0805 -0.3999
 5319TIP3    H137372   3.196   2.559   0.092  0.6859  0.4311  0.2290
 5319TIP3    H237373   3.341   2.566   0.048  1.0624 -1.7632  0.9536
 5320TIP3   OH237374   0.932   2.200   4.115 -0.2885  0.5505  0.2716
 5320TIP3    H137375   0.933   2.151   4.033  0.9917  3.4529 -1.5829
 5320TIP3    H237376   0.842   2.190   4.148 -0.1482 -2.7701 -0.0182
 5321TIP3   OH237377   1.490   2.720   1.119 -0.0403 -0.3864 -0.3634
 5321TIP3    H137378   1.548   2.772   1.175 -0.4629  0.4533 -0.7042
 5321TIP3    H237379   1.545   2.647   1.090  0.5229 -0.1967  0.2016
 5322TIP3   OH237380   3.884   3.435  12.869 -0.7422 -0.7268  0.4611
 5322TIP3    H137381   3.850   3.450  12.957 -1.1343 -2.4574  0.6569
 5322TIP3    H237382   3.840   3.500  12.815 -1.2701 -0.2868  1.3884
 5323TIP3   OH237383   0.800   5.437   4.317 -0.0218 -0.1618 -0.3290
 5323TIP3    H137384   0.770   5.367   4.374 -0.8429 -1.1389 -1.8815
 5323TIP3    H237385   0.885   5.463   4.353 -0.1474 -1.2773  0.8464
 5324TIP3   OH237386   0.932   1.748  16.487  0.6552  0.3677  0.2666
 5324TIP3    H137387   1.018   1.711  16.464  0.2356  0.2025 -1.1247
 5324TIP3    H237388   0.947   1.842  16.487  0.3616  0.4834 -2.2865
 5325TIP3   OH237389   4.890   1.418  16.672 -0.0930 -0.3235 -0.0558
 5325TIP3    H137390   4.852   1.480  16.733  0.7133 -1.3827  1.5995
 5325TIP3    H237391   4.814   1.380  16.626 -0.6004  1.6419 -0.9350
 5326TIP3   OH237392   1.889   6.703  16.726  0.0611  0.2233  0.4394
 5326TIP3    H137393   1.983   6.723  16.726  0.1693 -0.2826  0.3010
 5326TIP3    H237394   1.867   6.692  16.819  0.1697  0.1944  0.4616
 5327TIP3   OH237395   3.057   0.955  13.197 -0.3674 -0.1030  0.3685
 5327TIP3    H137396   3.140   0.907  13.196 -0.0770  0.3665  1.0816
 5327TIP3    H237397   2.996   0.899  13.149  0.7359  0.2365 -1.5609
 5328TIP3   OH237398   2.154   1.280  14.738 -0.1245  0.2369 -0.0846
 5328TIP3    H137399   2.183   1.296  14.648 -1.7719 -0.5541 -0.7948
 5328TIP3    H237400   2.155   1.185  14.747 -0.3961  0.2926  0.5920
 5329TIP3   OH237401   2.713   6.119  12.991 -0.0388 -0.4563 -0.3194
 5329TIP3    H137402   2.719   6.152  12.902  1.1017  0.6295  0.1374
 5329TIP3    H237403   2.703   6.197  13.046  2.6128 -0.7677  0.7711
 5330TIP3   OH237404   4.206   4.556  11.505 -0.0495 -0.0597  0.0586
 5330TIP3    H137405   4.185   4.503  11.427 -1.7063 -0.3738  0.6729
 5330TIP3    H237406   4.205   4.646  11.473  1.1594 -0.2852 -0.6627
 5331TIP3   OH237407   6.462   4.520  13.625 -0.7446  0.6095 -0.3370
 5331TIP3    H137408   6.463   4.555  13.714 -1.5836  1.2981 -0.5771
 5331TIP3    H237409   6.554   4.510  13.602 -0.5175  0.6325  0.5283
 5332TIP3   OH237410   2.288   6.576  11.972  0.7748  0.2398  0.5124
 5332TIP3    H137411   2.381   6.557  11.969  0.6325 -0.4923  0.5262
 5332TIP3    H237412   2.269   6.619  11.889  0.9918 -0.2647  0.1970
 5333TIP3   OH237413   1.922   1.484   1.757  0.3077 -0.6273  0.5920
 5333TIP3    H137414   1.835   1.523   1.764 -0.1042 -1.5736  0.9615
 5333TIP3    H237415   1.982   1.559   1.752 -0.5513  0.0354 -0.1387
 5334TIP3   OH237416   1.392   3.111  15.500  0.1337 -0.0510 -0.9397
 5334TIP3    H137417   1.359   3.029  15.536 -0.1490  0.0397 -0.9897
 5334TIP3    H237418   1.486   3.107  15.514  0.1793 -0.5975 -1.3746
 5335TIP3   OH237419   1.762   3.769  12.656 -0.6096  0.0861  0.1621
 5335TIP3    H137420   1.707   3.733  12.726 -1.3821  2.1783  0.6921
 5335TIP3    H237421   1.710   3.756  12.577 -1.3268  0.8889  0.4829
 5336TIP3   OH237422   3.240   3.053   0.609  0.3570 -0.5688  0.7427
 5336TIP3    H137423   3.231   3.050   0.514  0.3972  0.3188  0.7045
 5336TIP3    H237424   3.333   3.069   0.624  0.1888  0.3573  0.8930
 5337TIP3   OH237425   4.410   3.237  11.366 -0.2702 -0.5324  0.8129
 5337TIP3    H137426   4.382   3.328  11.353  1.2963  0.1428  1.7814
 5337TIP3    H237427   4.439   3.209  11.279  0.7766  0.4858  0.8018
 5338TIP3   OH237428   3.223   0.455   6.021 -0.8348 -0.3520  0.2379
 5338TIP3    H137429   3.161   0.489   5.957 -1.9458  0.7232  1.8186
 5338TIP3    H237430   3.241   0.529   6.079 -0.0067 -1.3263  1.2825
 5339TIP3   OH237431   1.077   0.001  13.980 -0.2271  0.2606 -0.1987
 5339TIP3    H137432   1.056   0.061  13.909  0.4596  0.7509  0.0025
 5339TIP3    H237433   1.133  -0.065  13.939 -0.4527  0.1163 -0.2770
 5340TIP3   OH237434   2.024   5.461   0.104 -0.3549  0.1564 -0.1507
 5340TIP3    H137435   2.026   5.378   0.152 -0.5411  0.6512  0.7547
 5340TIP3    H237436   2.105   5.505   0.130 -1.1299  1.0518  0.9097
 5341TIP3   OH237437   4.698   3.468  15.401 -0.2068 -0.2214 -0.0179
 5341TIP3    H137438   4.754   3.488  15.326 -1.9159 -0.6632 -1.4713
 5341TIP3    H237439   4.679   3.374  15.392 -2.5296  0.2517 -0.5638
 5342TIP3   OH237440   5.639   2.274  16.455 -0.1049  0.3206 -0.3355
 5342TIP3    H137441   5.626   2.362  16.421  1.1434  0.2670 -0.9925
 5342TIP3    H237442   5.724   2.247  16.422  0.3652 -0.4314  1.3559
 5343TIP3   OH237443   5.934   2.275  11.781 -0.0124 -0.1677 -0.2749
 5343TIP3    H137444   6.000   2.343  11.793  0.9155 -1.2945  1.4263
 5343TIP3    H237445   5.875   2.286  11.855 -0.4521 -0.5661 -0.5593
 5344TIP3   OH237446   0.585   6.484  12.884  1.2548 -0.1848 -0.1944
 5344TIP3    H137447   0.611   6.567  12.925 -0.8821 -0.1421  1.1907
 5344TIP3    H237448   0.609   6.495  12.792  0.8887  2.0548 -0.0883
 5345TIP3   OH237449   1.943   1.510  13.348 -0.7685  0.2097  0.2153
 5345TIP3    H137450   2.027   1.522  13.303 -1.0729  0.9603 -0.1705
 5345TIP3    H237451   1.897   1.446  13.294 -0.9685  0.7979 -0.3199
 5346TIP3   OH237452   2.559   4.616  16.007  0.4473  0.4316  0.1018
 5346TIP3    H137453   2.547   4.702  16.046 -0.8263  1.4823 -2.3768
 5346TIP3    H237454   2.483   4.604  15.950  2.0787 -0.9690 -1.9741
 5347TIP3   OH237455   4.799   3.081  10.426 -0.3162 -0.0982  0.8314
 5347TIP3    H137456   4.742   3.121  10.492 -0.0774  1.5316  0.1013
 5347TIP3    H237457   4.754   3.098  10.342  0.1697 -0.7119  0.4396
 5348TIP3   OH237458   0.298   5.057   2.344  0.1800  0.0459 -0.5983
 5348TIP3    H137459   0.365   5.007   2.391  0.4639  0.3050 -0.7200
 5348TIP3    H237460   0.215   5.019   2.372  0.3114  0.6249  0.6201
 5349TIP3   OH237461   3.097   5.822   3.364 -0.2506  0.4256  0.0190
 5349TIP3    H137462   3.018   5.853   3.321  0.2696  1.0079 -0.5412
 5349TIP3    H237463   3.068   5.750   3.420 -0.7314 -1.4515 -2.5022
 5350TIP3   OH237464   6.289   0.393   0.444  0.0749  0.1068  0.5032
 5350TIP3    H137465   6.359   0.397   0.378 -0.3177 -1.1004 -0.0034
 5350TIP3    H237466   6.306   0.470   0.500 -0.1124  1.7071 -1.5017
 5351TIP3   OH237467   1.986   6.121   1.384  0.4216 -0.3915 -0.8133
 5351TIP3    H137468   1.924   6.138   1.314  0.8857  1.1868 -0.8789
 5351TIP3    H237469   1.937   6.067   1.447 -0.8090  0.2994 -1.1505
 5352TIP3   OH237470   3.087   4.975  11.356  0.5197 -0.2258 -0.2875
 5352TIP3    H137471   3.134   4.925  11.423 -0.7894 -1.6122 -0.3584
 5352TIP3    H237472   3.125   5.063  11.362 -0.5002  0.1600  3.2910
 5353TIP3   OH237473   5.871   2.461  12.335 -0.5570 -0.6009  0.1262
 5353TIP3    H137474   5.962   2.449  12.310 -0.2687  0.7943  0.4363
 5353TIP3    H237475   5.843   2.375  12.367  1.8780 -0.1830  3.9937
 5354TIP3   OH237476   5.016   2.014  16.828  0.0548  0.5804  0.8838
 5354TIP3    H137477   4.975   1.992  16.744  2.2915  2.5625 -0.8579
 5354TIP3    H237478   4.969   2.092  16.858 -0.1606  0.3968  1.0273
 5355TIP3   OH237479   2.951   5.909   4.454 -0.2994 -0.5435  0.2743
 5355TIP3    H137480   2.957   5.850   4.528  0.4792 -0.4247  0.3079
 5355TIP3    H237481   2.880   5.873   4.400 -0.8835 -0.6117  1.0767
 5356TIP3   OH237482   4.542   2.388  15.523  0.0740  0.6533 -0.7033
 5356TIP3    H137483   4.483   2.443  15.574  0.5836 -0.5596  1.2998
 5356TIP3    H237484   4.510   2.396  15.433 -2.5238  0.8032  0.1487
 5357TIP3   OH237485   4.914   2.953  14.164 -0.3332  0.2173 -0.7683
 5357TIP3    H137486   4.836   2.909  14.197 -0.4863  1.2492  0.3076
 5357TIP3    H237487   4.949   2.894  14.097  0.2583 -2.2196  1.5548
 5358TIP3   OH237488   1.257   4.889  16.730  0.3653 -0.2926  0.0188
 5358TIP3    H137489   1.257   4.808  16.781  0.9515 -1.1014 -1.2030
 5358TIP3    H237490   1.279   4.957  16.793  1.2111 -1.2713  0.8238
 5359TIP3   OH237491   0.975   2.421   0.111  0.3393  0.1175  0.1627
 5359TIP3    H137492   1.028   2.475   0.170  0.2115 -0.6251  0.9744
 5359TIP3    H237493   0.890   2.416   0.154 -0.1595  0.6387 -0.7379
 5360TIP3   OH237494   3.514   2.633  12.465 -0.7069  0.4869 -0.1331
 5360TIP3    H137495   3.608   2.651  12.464 -0.4968 -0.5031  0.9704
 5360TIP3    H237496   3.483   2.669  12.548 -1.2141  0.3213 -0.2458
 5361TIP3   OH237497   5.952   2.462   3.346 -0.0668 -0.5195  0.1677
 5361TIP3    H137498   5.865   2.440   3.314 -0.3874 -1.1699  1.4626
 5361TIP3    H237499   6.007   2.389   3.317  0.1471  0.0522 -0.9437
 5362TIP3   OH237500   2.837   0.302  14.284 -0.4622  0.1071 -0.4443
 5362TIP3    H137501   2.907   0.355  14.322 -0.3873 -1.4409  1.7479
 5362TIP3    H237502   2.877   0.261  14.207  0.4974  0.6245 -0.2392
 5363TIP3   OH237503   4.832   4.673   0.099  0.0248 -0.2065 -0.2970
 5363TIP3    H137504   4.858   4.737   0.032  1.6185  0.1037  0.5637
 5363TIP3    H237505   4.748   4.705   0.131  0.9246  1.6913  0.3389
 5364TIP3   OH237506   3.249   3.141   4.346  0.1579  0.0112  0.5422
 5364TIP3    H137507   3.300   3.081   4.401  0.9966  1.1178  1.0077
 5364TIP3    H237508   3.161   3.139   4.383  0.5018  0.0684  1.3882
 5365TIP3   OH237509   6.452   0.153  17.083  0.1096  0.0015  0.2025
 5365TIP3    H137510   6.544   0.179  17.075 -0.4512  1.9441 -0.5022
 5365TIP3    H237511   6.411   0.224  17.132 -0.8500 -1.3234  1.3945
 5366TIP3   OH237512   6.691   0.917  12.226  0.3131 -0.1296  0.3220
 5366TIP3    H137513   6.723   0.966  12.302 -0.5843  2.0216 -0.6000
 5366TIP3    H237514   6.760   0.853  12.208  1.3280  0.4445  1.9102
 5367TIP3   OH237515   5.698   4.938   1.904  0.0554  0.2972 -0.6149
 5367TIP3    H137516   5.732   5.016   1.948  0.7008 -0.7382  0.8113
 5367TIP3    H237517   5.683   4.875   1.975 -1.0922 -0.6479 -1.6507
 5368TIP3   OH237518   2.660   0.056  13.620  0.3248  0.1276  0.5988
 5368TIP3    H137519   2.576   0.029  13.582  0.8551  0.4359 -0.8452
 5368TIP3    H237520   2.661   0.151  13.612  1.0646  0.0829  0.0301
 5369TIP3   OH237521   6.733   3.994   3.481  0.3639  0.6169 -0.0728
 5369TIP3    H137522   6.675   4.069   3.491  2.6949  2.6059 -0.4248
 5369TIP3    H237523   6.675   3.922   3.456 -1.8438  2.6286 -1.1920
 5370TIP3   OH237524   0.359   0.602  14.660  0.2976 -0.1857  0.2212
 5370TIP3    H137525   0.405   0.650  14.592  0.8406 -1.0232 -0.0190
 5370TIP3    H237526   0.383   0.646  14.741 -0.7560  1.1300 -0.1466
 5371TIP3   OH237527   0.920   3.947   1.140  0.9089 -0.2951  0.3139
 5371TIP3    H137528   1.009   3.956   1.173  0.7455  1.3571  0.3788
 5371TIP3    H237529   0.872   3.904   1.211  1.0632  1.2547  1.4185
 5372TIP3   OH237530   6.234   2.630  12.671 -0.2271  0.0113  0.4891
 5372TIP3    H137531   6.273   2.706  12.712 -1.2604  1.2066 -0.6257
 5372TIP3    H237532   6.181   2.666  12.599 -1.1322 -1.7135  0.2260
 5373TIP3   OH237533   5.233   1.367  15.009  0.3555  0.1367 -0.0794
 5373TIP3    H137534   5.238   1.294  15.071 -2.7167  0.1011  0.3179
 5373TIP3    H237535   5.207   1.327  14.926  0.6195  0.5844 -0.3843
 5374TIP3   OH237536   5.926   0.790  16.129 -0.5228  0.0865  0.3860
 5374TIP3    H137537   6.019   0.809  16.119 -0.2585 -0.4815  1.5778
 5374TIP3    H237538   5.924   0.706  16.176 -1.6106  0.6556  1.4150
 5375TIP3   OH237539   0.101   2.476  11.187  0.6421  0.9266  0.5571
 5375TIP3    H137540   0.064   2.541  11.127 -0.2123 -0.8368 -0.9065
 5375TIP3    H237541   0.041   2.402  11.183  1.6312 -0.0211  2.1130
 5376TIP3   OH237542   4.386   5.646  14.934  0.4232  0.3050  1.2264
 5376TIP3    H137543   4.443   5.576  14.902 -0.3112 -0.3783  1.3824
 5376TIP3    H237544   4.419   5.666  15.021  0.8944  0.4430  1.0179
 5377TIP3   OH237545   2.889   5.501   4.838 -0.5879 -0.1939  1.6262
 5377TIP3    H137546   2.979   5.533   4.838 -0.1677 -1.2925  3.4631
 5377TIP3    H237547   2.843   5.559   4.898 -1.8199  1.9767 -1.1385
 5378TIP3   OH237548   3.290   5.273   0.758  0.1711  0.5505  0.1993
 5378TIP3    H137549   3.214   5.309   0.803  0.3901  1.3901 -0.0794
 5378TIP3    H237550   3.261   5.261   0.667  0.0061 -0.2861  0.3535
 5379TIP3   OH237551   4.023   3.658  14.202  0.2835  0.1471 -0.1117
 5379TIP3    H137552   4.052   3.567  14.213 -0.8595 -0.6295 -2.6811
 5379TIP3    H237553   4.076   3.692  14.131 -1.2360  0.4999 -1.1319
 5380TIP3   OH237554   6.463   3.724   5.499  0.0638 -0.2217 -1.1522
 5380TIP3    H137555   6.446   3.695   5.410 -0.8277 -0.7185 -0.8334
 5380TIP3    H237556   6.385   3.776   5.522  1.2767  1.8336 -1.4417
 5381TIP3   OH237557   6.731   4.776  13.385 -0.3545  0.5194  0.0260
 5381TIP3    H137558   6.818   4.805  13.359 -1.3301  0.9331 -3.2204
 5381TIP3    H237559   6.673   4.812  13.318 -2.5643 -2.8982 -0.1252
 5382TIP3   OH237560   3.146   4.351  10.970 -0.1863 -0.3366  0.0252
 5382TIP3    H137561   3.135   4.306  11.054 -1.5108 -0.0260  0.0458
 5382TIP3    H237562   3.228   4.317  10.935 -0.0333 -1.0912  1.0645
 5383TIP3   OH237563   2.977   5.372  14.080  1.2325 -0.2065  0.0158
 5383TIP3    H137564   2.938   5.432  14.016 -0.6149 -1.2886  0.0311
 5383TIP3    H237565   2.968   5.417  14.164  1.0212  0.0220 -0.1268
 5384TIP3   OH237566   2.012   6.457  11.875  0.0714  0.1820  0.1359
 5384TIP3    H137567   2.025   6.366  11.847  2.0982  0.6681 -0.6827
 5384TIP3    H237568   2.096   6.483  11.912 -0.6701  1.5500  0.9520
 5385TIP3   OH237569   4.541   1.369  16.662  0.1394 -0.2443  0.1581
 5385TIP3    H137570   4.495   1.438  16.709 -0.4952 -0.3006 -0.3676
 5385TIP3    H237571   4.553   1.299  16.726  1.3846  0.5945  0.8877
 5386TIP3   OH237572   5.413   1.295   1.826  0.2837 -0.0152 -0.3602
 5386TIP3    H137573   5.348   1.279   1.895  0.4040  2.1458  0.3538
 5386TIP3    H237574   5.361   1.309   1.747  0.1300 -2.2390 -0.7068
 5387TIP3   OH237575   3.064   5.833   4.046  0.3842 -0.0973 -0.0501
 5387TIP3    H137576   3.091   5.922   4.022  0.7238 -0.3953 -0.8002
 5387TIP3    H237577   3.032   5.794   3.965  1.6435 -1.1616 -0.0710
 5388TIP3   OH237578   3.951   0.582   1.396  0.7444 -0.4200  0.2390
 5388TIP3    H137579   3.977   0.642   1.466  1.0767 -0.7131  0.3697
 5388TIP3    H237580   4.000   0.502   1.414 -0.5098 -1.1128  0.6882
 5389TIP3   OH237581   1.892   0.461   2.837  0.4896  0.7831 -0.0676
 5389TIP3    H137582   1.845   0.506   2.768  0.3958 -0.1811 -0.6532
 5389TIP3    H237583   1.913   0.375   2.800  0.5452  0.2914  1.0559
 5390TIP3   OH237584   1.804   1.058   2.714 -0.1258 -0.0147  0.5967
 5390TIP3    H137585   1.781   1.133   2.658  2.2583  0.4261  0.1096
 5390TIP3    H237586   1.785   0.982   2.660  0.4596  0.3498 -0.1410
 5391TIP3   OH237587   0.630   1.471  15.558  0.4258  0.4173  0.6817
 5391TIP3    H137588   0.708   1.490  15.506 -0.9209 -1.6537 -2.4012
 5391TIP3    H237589   0.635   1.377  15.576 -1.4271  0.1664  0.1274
 5392TIP3   OH237590   5.974   1.227  13.305 -0.3329 -0.4226 -0.7572
 5392TIP3    H137591   5.946   1.150  13.255  1.3130 -2.5879  1.3826
 5392TIP3    H237592   6.069   1.227  13.297 -0.0983 -0.2103  1.3630
 5393TIP3   OH237593   6.479   6.273  11.892 -0.1868  0.2899  0.0919
 5393TIP3    H137594   6.468   6.357  11.848 -2.1115  0.5865  0.9993
 5393TIP3    H237595   6.393   6.255  11.932  0.8533 -0.9217  1.9861
 5394TIP3   OH237596   4.934   3.827   5.727 -0.3137 -0.0341 -0.2354
 5394TIP3    H137597   4.934   3.745   5.777 -0.7054 -0.5429 -1.0448
 5394TIP3    H237598   4.844   3.859   5.734 -0.3208 -0.0071 -0.4379
 5395TIP3   OH237599   0.012   6.200   0.420 -0.2847  0.3814 -0.1988
 5395TIP3    H137600   0.035   6.258   0.492 -0.3844  0.7592 -0.4668
 5395TIP3    H237601  -0.067   6.239   0.382  1.1504  1.6123 -2.0651
 5396TIP3   OH237602   6.679   5.285  10.682  0.4048 -0.6920 -0.9266
 5396TIP3    H137603   6.614   5.240  10.628  0.6454 -0.6651 -1.2343
 5396TIP3    H237604   6.685   5.372  10.645  1.4323 -1.0305 -1.5912
 5397TIP3   OH237605   3.299   1.680  12.102  0.0756 -0.4572  0.5490
 5397TIP3    H137606   3.254   1.759  12.070  1.7833 -0.0135 -0.9061
 5397TIP3    H237607   3.282   1.614  12.034 -0.7566 -1.1722  1.4217
 5398TIP3   OH237608   2.559   5.769   3.498  0.0873 -0.2813 -0.6869
 5398TIP3    H137609   2.618   5.765   3.573 -0.6947 -0.9085 -0.0890
 5398TIP3    H237610   2.491   5.705   3.517 -1.5919  1.4087 -0.6743
 5399TIP3   OH237611   5.323   3.546  15.435 -0.0155 -0.0053  0.2778
 5399TIP3    H137612   5.273   3.471  15.467 -0.4566  0.5411  0.8824
 5399TIP3    H237613   5.266   3.586  15.368  0.1179 -0.0719  0.1248
 5400TIP3   OH237614   2.899   0.550  14.477 -0.1920  0.3167 -0.6982
 5400TIP3    H137615   2.839   0.623  14.491 -0.3155 -0.0595  0.9808
 5400TIP3    H237616   2.959   0.554  14.552  0.5525 -0.5785 -1.2298
 5401TIP3   OH237617   4.271   6.179   4.199  0.3176  0.6822 -0.3020
 5401TIP3    H137618   4.288   6.133   4.281  0.0960 -1.7782 -1.5238
 5401TIP3    H237619   4.357   6.209   4.170  0.4789  1.0567  0.5366
 5402TIP3   OH237620   5.719   2.537   0.595  0.4811  0.9871  0.3075
 5402TIP3    H137621   5.745   2.447   0.612 -1.3755  0.1780 -0.8785
 5402TIP3    H237622   5.784   2.569   0.532  1.0124  0.4216  0.5581
 5403TIP3   OH237623   2.299   3.811  14.461  0.5934 -0.1151 -0.3736
 5403TIP3    H137624   2.306   3.906  14.466  1.3982 -0.0337 -2.2077
 5403TIP3    H237625   2.252   3.795  14.379  0.9714 -1.3153 -0.3715
 5404TIP3   OH237626   3.053   2.214  13.850  0.2441  0.5040  0.3424
 5404TIP3    H137627   3.134   2.262  13.832  0.0615  0.3689 -0.9531
 5404TIP3    H237628   3.039   2.161  13.772 -0.2155 -0.7419  1.2464
 5405TIP3   OH237629   4.975   0.388   0.457  0.0353  0.1918  0.0303
 5405TIP3    H137630   5.038   0.338   0.406 -0.1545 -1.2469  1.1338
 5405TIP3    H237631   4.892   0.342   0.445  0.0138 -0.2609  1.6877
 5406TIP3   OH237632   3.178   3.379   4.787 -0.3857 -0.2552 -0.0419
 5406TIP3    H137633   3.098   3.405   4.832 -0.2170 -0.2778  0.2730
 5406TIP3    H237634   3.163   3.403   4.696 -1.1666 -1.1924 -0.1861
 5407TIP3   OH237635   4.106   3.364   0.470  0.0180  0.3858 -0.6833
 5407TIP3    H137636   4.123   3.271   0.461  0.6311  0.5265 -1.0830
 5407TIP3    H237637   4.153   3.390   0.549  0.4522  0.4886 -0.9698
 5408TIP3   OH237638   6.344   5.970  15.651 -0.1340 -0.1781 -0.2089
 5408TIP3    H137639   6.426   5.992  15.695 -0.4632  0.7738 -0.0538
 5408TIP3    H237640   6.303   5.905  15.708 -2.2082  3.4410  2.9122
 5409TIP3   OH237641   3.425   5.646   4.288  0.9773  0.3162  0.3026
 5409TIP3    H137642   3.412   5.622   4.196 -1.1315  1.5925  0.1986
 5409TIP3    H237643   3.393   5.571   4.337 -1.5081  1.0913 -0.0320
 5410TIP3   OH237644   0.843   2.946  13.980  0.2232  0.5831 -0.4812
 5410TIP3    H137645   0.752   2.929  13.955 -0.0682  0.8850  0.3534
 5410TIP3    H237646   0.837   2.995  14.062  1.1194 -2.0208  1.3023
 5411TIP3   OH237647   0.287   6.429   0.077  0.5638 -0.1542  0.2324
 5411TIP3    H137648   0.270   6.386  -0.006  1.2271 -2.5715  1.2666
 5411TIP3    H237649   0.293   6.358   0.141  2.4738  1.4072  1.9423
 5412TIP3   OH237650   1.806   0.237   4.412 -0.1051  0.7899 -0.1726
 5412TIP3    H137651   1.841   0.193   4.489 -2.1986 -1.9434 -0.6349
 5412TIP3    H237652   1.881   0.282   4.374  1.8629 -1.0528  1.3046
 5413TIP3   OH237653   2.922   3.954  17.133 -0.3638 -0.5205 -0.0613
 5413TIP3    H137654   2.957   4.010  17.202 -0.1250 -1.4343  0.5715
 5413TIP3    H237655   2.866   4.012  17.081  1.2226  0.7266 -0.4645
 5414TIP3   OH237656   1.840   3.320  12.487  0.5276  0.5521  0.6935
 5414TIP3    H137657   1.762   3.348  12.534  0.5882  0.4998  0.8250
 5414TIP3    H237658   1.894   3.399  12.479 -0.4328  1.0712 -1.1694
 5415TIP3   OH237659   5.709   2.868  17.152 -0.4874  0.1678  0.8545
 5415TIP3    H137660   5.687   2.839  17.064 -0.1044  0.2020  0.7484
 5415TIP3    H237661   5.690   2.792  17.207  1.4042 -0.6291  0.4657
 5416TIP3   OH237662   4.079   1.000  12.815  0.3106 -0.6838  0.5355
 5416TIP3    H137663   3.999   0.971  12.770  0.8936 -1.3087 -0.1418
 5416TIP3    H237664   4.086   0.941  12.890  0.9331 -1.6466 -0.2565
 5417TIP3   OH237665   1.507   5.124  14.905  0.1008  0.2688 -0.4345
 5417TIP3    H137666   1.601   5.126  14.886  0.3851  1.2812  0.9385
 5417TIP3    H237667   1.466   5.151  14.822  0.7888 -2.8209 -1.9363
 5418TIP3   OH237668   0.625   6.284   1.209  0.1079  0.3115  0.0437
 5418TIP3    H137669   0.702   6.289   1.266 -0.1764 -1.3246  0.6155
 5418TIP3    H237670   0.552   6.307   1.265  0.0017  0.2581 -0.0727
 5419TIP3   OH237671   2.909   1.177   6.062  0.1909  0.7877 -0.4528
 5419TIP3    H137672   2.842   1.225   6.014 -0.7049  1.3146  1.2504
 5419TIP3    H237673   2.912   1.091   6.020 -3.0817 -0.0172  0.6836
 5420TIP3   OH237674   3.990   1.482  13.063  0.0134  0.1388  0.1941
 5420TIP3    H137675   3.995   1.533  12.983  1.6791  0.9534  0.7740
 5420TIP3    H237676   4.030   1.538  13.130 -1.0597 -0.6352  1.5404
 5421TIP3   OH237677   5.653   3.581   3.243 -0.3895  0.5832  0.2127
 5421TIP3    H137678   5.632   3.642   3.315 -1.7134 -0.5398  0.8308
 5421TIP3    H237679   5.734   3.538   3.271 -1.5485 -0.7648  1.7182
 5422TIP3   OH237680   6.369   3.219   3.988  0.1162  0.3960 -0.5293
 5422TIP3    H137681   6.307   3.151   4.014 -0.6380  0.9038 -0.9752
 5422TIP3    H237682   6.315   3.287   3.949  0.9856  0.7242 -1.1838
 5423TIP3   OH237683   6.041   3.057   5.951 -0.4268 -0.3288  0.0849
 5423TIP3    H137684   5.981   3.131   5.957 -0.1075  0.0881 -1.4978
 5423TIP3    H237685   6.102   3.070   6.025 -2.2385 -0.7921  1.7424
 5424TIP3   OH237686   3.120   1.658   2.969  0.3960 -0.1223  0.1402
 5424TIP3    H137687   3.080   1.684   2.887  1.9160 -1.5407 -1.1218
 5424TIP3    H237688   3.067   1.584   2.999  0.6811 -0.5113 -0.3096
 5425TIP3   OH237689   1.374   6.548   5.563  0.4759  0.0964 -1.1989
 5425TIP3    H137690   1.383   6.551   5.468  2.2225 -1.0134 -1.1197
 5425TIP3    H237691   1.431   6.618   5.594  0.0194  0.3626 -0.9487
 5426TIP3   OH237692   3.356   1.623  16.159 -0.4293  0.1064  0.5723
 5426TIP3    H137693   3.265   1.650  16.174 -0.2952  0.5388  0.6217
 5426TIP3    H237694   3.356   1.588  16.070 -0.3774  1.3291  0.0668
 5427TIP3   OH237695   5.627   5.306   5.169  0.1309  0.3644  0.1615
 5427TIP3    H137696   5.560   5.249   5.209 -0.7330  2.0527  1.2354
 5427TIP3    H237697   5.692   5.245   5.135 -0.6561 -1.2748  1.4078
 5428TIP3   OH237698   5.574   3.826  14.132 -0.2966  0.2653 -0.3114
 5428TIP3    H137699   5.485   3.850  14.104 -0.5083  0.3720  0.4159
 5428TIP3    H237700   5.581   3.863  14.220 -0.5317 -2.0777  0.7731
 5429TIP3   OH237701   4.881   5.810   1.797 -0.3542 -0.1649 -0.1245
 5429TIP3    H137702   4.939   5.880   1.829  0.5703 -0.4118 -1.1915
 5429TIP3    H237703   4.807   5.811   1.857  0.4927  0.5469  0.9511
 5430TIP3   OH237704   4.520   2.410   4.935  0.8222 -0.6822 -0.3729
 5430TIP3    H137705   4.540   2.330   4.984 -0.3453 -1.2315 -0.7436
 5430TIP3    H237706   4.434   2.437   4.969  1.1028  0.2957 -0.4134
 5431TIP3   OH237707   1.114   2.604  11.154 -0.1836  0.0583 -0.2846
 5431TIP3    H137708   1.025   2.599  11.187 -0.3505  1.0995 -0.5478
 5431TIP3    H237709   1.163   2.648  11.222  0.2316 -0.8482  0.0238
 5432TIP3   OH237710   6.439   1.164  14.344  0.0602  0.8683 -0.5380
 5432TIP3    H137711   6.389   1.097  14.297  0.6110 -1.3196  1.7205
 5432TIP3    H237712   6.517   1.178  14.291 -0.0010 -0.4451 -1.0275
 5433TIP3   OH237713   3.829   3.709   2.382  0.2850 -0.0504  0.1566
 5433TIP3    H137714   3.803   3.618   2.400 -0.6849  0.1106 -0.3623
 5433TIP3    H237715   3.921   3.713   2.409  0.7260 -1.5177 -0.9741
 5434TIP3   OH237716   2.846   5.024   3.093  0.3662 -0.5080  0.8574
 5434TIP3    H137717   2.865   5.113   3.126 -0.1965 -0.4033  0.9134
 5434TIP3    H237718   2.891   5.020   3.009  2.1432 -0.9042  1.7735
 5435TIP3   OH237719   1.512   4.082  15.022  0.2538 -0.0160  0.1773
 5435TIP3    H137720   1.585   4.120  14.973 -0.8060  0.0724 -1.3897
 5435TIP3    H237721   1.539   3.992  15.040 -0.3038 -0.8775 -2.8064
 5436TIP3   OH237722   2.820   0.246   0.024 -0.7466  0.4535 -0.2223
 5436TIP3    H137723   2.812   0.301  -0.053 -1.1052  0.8448  0.0873
 5436TIP3    H237724   2.846   0.160  -0.009  0.1800  0.8987 -0.6808
 5437TIP3   OH237725   6.776   3.976  11.526  0.1162 -0.2793 -0.4691
 5437TIP3    H137726   6.714   4.025  11.580 -0.6555 -2.7339  1.0097
 5437TIP3    H237727   6.861   3.992  11.568 -0.2753 -1.0249  0.6383
 5438TIP3   OH237728   5.949   3.045   2.226  0.1536 -0.1499  0.2543
 5438TIP3    H137729   5.972   3.077   2.139 -0.0009  0.6823  0.5104
 5438TIP3    H237730   6.016   3.082   2.284  1.9938 -3.0152  0.1568
 5439TIP3   OH237731   6.276   0.983  15.860  0.2185  0.1912  1.0166
 5439TIP3    H137732   6.207   1.047  15.874 -0.3889 -0.3188  0.4091
 5439TIP3    H237733   6.236   0.915  15.806  1.4097  0.2621 -0.0038
 5440TIP3   OH237734   6.627   5.970  14.941 -0.3079  0.2515 -0.2363
 5440TIP3    H137735   6.677   5.965  15.023 -1.7881 -1.6673  0.6310
 5440TIP3    H237736   6.555   6.031  14.961  0.5311  1.4918 -0.8605
 5441TIP3   OH237737   3.808   2.794  12.776 -0.4904 -0.1590  0.3197
 5441TIP3    H137738   3.885   2.742  12.795 -0.2632 -0.7202 -1.9330
 5441TIP3    H237739   3.834   2.884  12.796  1.0911 -0.2182 -1.3307
 5442TIP3   OH237740   6.474   3.468  12.042  0.2891 -0.3332  0.4157
 5442TIP3    H137741   6.533   3.519  11.986 -0.8738  0.3123 -0.2488
 5442TIP3    H237742   6.457   3.388  11.993 -0.5936  0.1572 -0.0947
 5443TIP3   OH237743   5.682   6.616   2.842 -0.4013 -0.1579 -0.0901
 5443TIP3    H137744   5.737   6.687   2.875 -0.1308  0.2172 -1.2880
 5443TIP3    H237745   5.729   6.584   2.764  0.3990 -2.8490  1.3692
 5444TIP3   OH237746   2.751   1.767  11.567 -0.0012  0.2666  0.1330
 5444TIP3    H137747   2.723   1.828  11.636  0.1675 -0.1505  0.5760
 5444TIP3    H237748   2.841   1.746  11.590 -0.0692 -0.1738 -0.0069
 5445TIP3   OH237749   3.084   3.950  14.853  0.4768  0.4852  0.0580
 5445TIP3    H137750   3.035   3.926  14.775 -1.8707  0.3343  1.5029
 5445TIP3    H237751   3.084   3.871  14.907 -2.3942  1.8785  2.3580
 5446TIP3   OH237752   2.121   4.119   0.840 -0.5786 -0.1503 -0.7588
 5446TIP3    H137753   2.156   4.204   0.868 -0.7045 -0.5150  0.5878
 5446TIP3    H237754   2.026   4.129   0.846 -0.6216 -1.2588  2.4524
 5447TIP3   OH237755   3.981   5.942   2.964 -0.1053  0.1477 -0.0767
 5447TIP3    H137756   3.980   5.990   3.047 -0.2522  0.8670 -0.4872
 5447TIP3    H237757   4.050   5.877   2.975  0.1336  0.4867  0.4701
 5448TIP3   OH237758   3.080   2.516  15.600  0.3738  0.2370  0.5628
 5448TIP3    H137759   2.997   2.504  15.647  0.2503 -2.1012 -0.1377
 5448TIP3    H237760   3.147   2.486  15.663  0.4899  0.0541  0.3521
 5449TIP3   OH237761   1.600   2.051   1.937 -0.7777  0.0089 -0.7139
 5449TIP3    H137762   1.537   2.117   1.967  0.0514 -1.2080  4.7641
 5449TIP3    H237763   1.557   1.968   1.954  0.6177 -0.8381 -1.2067
 5450TIP3   OH237764   3.341   2.961   5.256  0.3349  0.5610 -0.1628
 5450TIP3    H137765   3.401   2.938   5.327  0.1909  0.5209 -0.0525
 5450TIP3    H237766   3.292   3.036   5.289 -0.0632  0.2464 -0.0317
 5451TIP3   OH237767   4.283   3.447   4.448  0.2399  0.0136  0.0711
 5451TIP3    H137768   4.343   3.379   4.418  0.4368  0.9755 -1.8573
 5451TIP3    H237769   4.223   3.401   4.508  2.8059 -0.9834  2.0776
 5452TIP3   OH237770   2.556   6.212   1.526  0.4515 -0.4319 -0.2544
 5452TIP3    H137771   2.486   6.271   1.556  1.1244  1.0696 -1.4958
 5452TIP3    H237772   2.587   6.170   1.606 -2.2156 -1.5910  0.2628
 5453TIP3   OH237773   2.128   3.122   3.215  0.4559 -0.2689  0.3482
 5453TIP3    H137774   2.220   3.121   3.190  0.1622 -0.5115 -0.7885
 5453TIP3    H237775   2.103   3.030   3.220 -0.3417 -0.2393 -1.8808
 5454TIP3   OH237776   2.315   5.313   0.226 -0.4492 -0.2373  0.2040
 5454TIP3    H137777   2.309   5.229   0.180 -2.7321 -0.8832  1.5061
 5454TIP3    H237778   2.239   5.314   0.284 -0.0166  2.3872  0.8621
 5455TIP3   OH237779   5.605   4.038  11.164 -0.0770  0.0297  0.2126
 5455TIP3    H137780   5.569   4.115  11.209 -1.2467 -0.6859  0.5237
 5455TIP3    H237781   5.533   3.975  11.162  0.4190 -0.5177 -1.3573
 5456TIP3   OH237782   5.507   4.128  14.116  0.3608  0.4320  0.2212
 5456TIP3    H137783   5.599   4.109  14.101  0.3810 -0.3079  1.1625
 5456TIP3    H237784   5.507   4.202  14.177  0.2909  2.0386 -1.6254
 5457TIP3   OH237785   1.918   2.564   5.533 -0.3149  0.1374  0.1031
 5457TIP3    H137786   1.943   2.647   5.573 -0.2061  0.3762 -0.4481
 5457TIP3    H237787   1.976   2.555   5.457 -0.1024 -0.6014  0.3403
 5458TIP3   OH237788   6.117   6.643  15.760 -0.5558  0.8918  0.1242
 5458TIP3    H137789   6.027   6.676  15.768 -0.9188 -0.3080  1.5755
 5458TIP3    H237790   6.125   6.616  15.669 -2.1110 -0.1330  0.2624
 5459TIP3   OH237791   4.461   4.546  11.660  0.0724  0.0279  0.2221
 5459TIP3    H137792   4.469   4.537  11.755 -0.2524 -1.2141  0.1561
 5459TIP3    H237793   4.404   4.473  11.634 -0.0688  0.5158 -0.8908
 5460TIP3   OH237794   5.430   4.518   3.184 -0.1021 -0.5949 -0.2713
 5460TIP3    H137795   5.499   4.575   3.216 -0.4258 -0.6917  0.6244
 5460TIP3    H237796   5.363   4.577   3.150  0.6813 -0.5122 -1.7482
 5461TIP3   OH237797   2.015   5.710  15.467  0.0918 -0.2227  0.2285
 5461TIP3    H137798   2.024   5.643  15.535 -0.8048  0.3291  0.9116
 5461TIP3    H237799   2.025   5.793  15.514  1.6747  0.1513 -0.6770
 5462TIP3   OH237800   4.921   1.844   1.249  0.0250  0.5819 -1.0244
 5462TIP3    H137801   4.983   1.811   1.315 -0.9904 -0.4549 -0.5465
 5462TIP3    H237802   4.906   1.770   1.191  0.1759  1.2043 -1.8693
 5463TIP3   OH237803   4.640   1.439   1.359  0.2525 -0.4838  0.0904
 5463TIP3    H137804   4.566   1.379   1.346 -0.4846  0.6564 -1.2211
 5463TIP3    H237805   4.628   1.473   1.447 -0.3130 -0.9535  0.2035
 5464TIP3   OH237806   2.565   5.904   3.993  0.7684 -0.1291 -0.3441
 5464TIP3    H137807   2.477   5.932   4.018  0.8582 -0.2847  0.1383
 5464TIP3    H237808   2.588   5.961   3.919 -0.7315 -1.7259 -2.1356
 5465TIP3   OH237809   0.189   2.645  13.607  0.1004  0.4440 -0.1576
 5465TIP3    H137810   0.284   2.634  13.609  0.0911  0.4298  0.2660
 5465TIP3    H237811   0.156   2.576  13.665 -0.2773 -0.6874 -1.6503
 5466TIP3   OH237812   4.871   1.393  17.082  0.5417  0.7370  0.7291
 5466TIP3    H137813   4.940   1.374  17.019  0.1260  0.5479  0.3234
 5466TIP3    H237814   4.915   1.443  17.151  1.6779 -1.5590  1.7987
 5467TIP3   OH237815   3.676   3.471  15.455 -0.4394 -0.0597  0.1441
 5467TIP3    H137816   3.760   3.508  15.483 -0.7647  1.3935 -0.7173
 5467TIP3    H237817   3.700   3.402  15.394  0.1430  0.7492 -0.5726
 5468TIP3   OH237818   1.875   4.252  13.050 -0.2282 -0.1129  0.6209
 5468TIP3    H137819   1.915   4.316  12.991  0.0094 -0.8550 -0.0412
 5468TIP3    H237820   1.943   4.186  13.063 -0.9007 -0.8707  0.2956
 5469TIP3   OH237821   3.879   2.653  16.761 -0.0922 -0.8221 -0.2506
 5469TIP3    H137822   3.940   2.583  16.784  0.9087 -0.7148 -2.3466
 5469TIP3    H237823   3.902   2.726  16.818  0.7792 -1.2629 -0.0274
 5470TIP3   OH237824   6.560   0.057  14.095  0.7941 -0.3999  0.6951
 5470TIP3    H137825   6.501   0.064  14.020  0.2025  0.5962  1.2154
 5470TIP3    H237826   6.647   0.070  14.059  0.5798 -0.6262  0.0836
 5471TIP3   OH237827   2.489   5.248   1.999 -0.1332  0.0409  0.5705
 5471TIP3    H137828   2.395   5.254   2.013 -0.4314 -2.0844 -0.2040
 5471TIP3    H237829   2.520   5.191   2.070  0.1699 -1.1831 -0.5136
 5472TIP3   OH237830   5.412   5.549  12.654 -0.1413  0.0326  0.2870
 5472TIP3    H137831   5.495   5.593  12.666 -0.7134  0.5974  2.8033
 5472TIP3    H237832   5.435   5.460  12.627  1.2021  0.5287 -0.2464
 5473TIP3   OH237833   6.054   6.583  11.331  0.3970 -0.4943  0.8047
 5473TIP3    H137834   5.967   6.604  11.298  1.5613  2.7968 -0.5402
 5473TIP3    H237835   6.049   6.602  11.425 -0.6979 -1.8732  1.0609
 5474TIP3   OH237836   5.658   5.235  14.580 -0.2192 -0.4296 -0.1079
 5474TIP3    H137837   5.741   5.262  14.619  0.3836 -1.8845 -0.3317
 5474TIP3    H237838   5.651   5.142  14.600 -1.5304 -0.4529 -0.5857
 5475TIP3   OH237839   3.311   5.949  15.996  0.0518  0.3263 -0.1690
 5475TIP3    H137840   3.383   6.009  16.014 -1.5309  1.8518  1.5935
 5475TIP3    H237841   3.238   5.983  16.049 -1.4804 -2.0889 -0.5767
 5476TIP3   OH237842   6.416   0.760  12.819  0.1504 -0.5921 -0.3266
 5476TIP3    H137843   6.321   0.772  12.823  0.0375 -1.5198  0.1240
 5476TIP3    H237844   6.450   0.811  12.892  0.2197  1.4585 -1.7009
 5477TIP3   OH237845   6.545   0.978   2.160  0.4590  0.2336 -0.7726
 5477TIP3    H137846   6.543   1.065   2.201  0.4327 -0.2465  0.2906
 5477TIP3    H237847   6.638   0.959   2.150  0.5532 -0.5606  1.1566
 5478TIP3   OH237848   1.890   6.484  11.644  0.2822 -0.3546 -0.1094
 5478TIP3    H137849   1.811   6.438  11.672 -0.0568 -0.2633 -0.8729
 5478TIP3    H237850   1.944   6.490  11.722 -0.7860  0.2317  0.6142
 5479TIP3   OH237851   0.392   0.300  11.566  0.1908  0.0544 -0.4275
 5479TIP3    H137852   0.320   0.340  11.516  0.4482 -1.2675 -1.9243
 5479TIP3    H237853   0.390   0.208  11.542  2.0576 -0.1194 -0.0846
 5480TIP3   OH237854   4.968   6.514   6.090 -0.3491 -0.3682  0.1508
 5480TIP3    H137855   5.035   6.470   6.038 -1.2150 -0.1000 -1.2323
 5480TIP3    H237856   4.953   6.456   6.165  0.2755 -1.2101 -0.3718
 5481TIP3   OH237857   5.338   2.554   4.851 -0.0563 -0.2155  0.6011
 5481TIP3    H137858   5.418   2.582   4.807  0.2841 -1.5096  0.3605
 5481TIP3    H237859   5.306   2.633   4.896 -0.2876  1.0926 -1.7186
 5482TIP3   OH237860   0.532   0.418   4.027  0.0522  0.3844  0.3369
 5482TIP3    H137861   0.531   0.326   4.053  1.1212 -0.4889 -2.3483
 5482TIP3    H237862   0.624   0.440   4.020 -0.1728  0.9172 -1.2833
 5483TIP3   OH237863   5.712   2.665  13.745 -0.0845  0.2720  0.6084
 5483TIP3    H137864   5.797   2.698  13.775  1.9795 -2.9551 -1.0267
 5483TIP3    H237865   5.689   2.598  13.809 -0.8611  0.3718  0.4378
 5484TIP3   OH237866   4.909   3.562   5.544 -1.0322  0.1530 -0.4573
 5484TIP3    H137867   4.841   3.509   5.503 -1.0973  1.0701 -1.5941
 5484TIP3    H237868   4.898   3.546   5.638 -0.6951 -2.2303 -0.7640
 5485TIP3   OH237869   5.372   5.613  15.027 -0.1912  0.2971  0.3799
 5485TIP3    H137870   5.323   5.678  15.078 -0.0678 -0.3310  1.3306
 5485TIP3    H237871   5.380   5.652  14.940  0.2249  1.7531  1.0224
 5486TIP3   OH237872   3.666   3.326   4.580 -0.3465 -0.3356  0.3852
 5486TIP3    H137873   3.619   3.291   4.504  1.4133 -1.0483 -0.4391
 5486TIP3    H237874   3.722   3.254   4.608  0.5095  0.5791  1.0866
 5487TIP3   OH237875   6.127   0.440   0.155  0.0862  0.3336  0.3451
 5487TIP3    H137876   6.106   0.461   0.246 -1.0099 -0.9886  0.4260
 5487TIP3    H237877   6.068   0.368   0.132  0.0085  0.9473 -1.5686
 5488TIP3   OH237878   5.928   4.748  15.317 -0.0248 -0.0143  0.3046
 5488TIP3    H137879   5.872   4.685  15.363  0.7102 -0.7300  0.2333
 5488TIP3    H237880   5.976   4.793  15.387 -2.0041  1.9516  0.5201
 5489TIP3   OH237881   0.460   4.862  13.630  0.2950  0.0072  0.5626
 5489TIP3    H137882   0.553   4.848  13.646  0.6078  0.1077 -1.0835
 5489TIP3    H237883   0.455   4.950  13.593 -0.3686 -0.2681 -0.0166
 5490TIP3   OH237884   2.996   6.169   4.814  0.3090 -0.5268  0.4814
 5490TIP3    H137885   3.050   6.103   4.770  0.0164 -0.8914  0.6693
 5490TIP3    H237886   3.050   6.198   4.888  0.9118  0.2783 -0.2560
 5491TIP3   OH237887   2.511   3.662  13.116  0.1642  0.8209 -0.1259
 5491TIP3    H137888   2.579   3.699  13.060  2.6828 -2.1691  0.7049
 5491TIP3    H237889   2.534   3.690  13.204 -0.7901  1.2547  0.0037
 5492TIP3   OH237890   4.851   2.890   3.727 -0.1051 -0.2496 -0.6460
 5492TIP3    H137891   4.884   2.976   3.755  0.3493 -0.4505 -0.5637
 5492TIP3    H237892   4.815   2.905   3.639 -0.9495  0.2442 -0.2338
 5493TIP3   OH237893   1.401   1.081   1.740 -0.1863  0.4412  0.4565
 5493TIP3    H137894   1.415   0.990   1.764 -1.4822  0.2244  0.4617
 5493TIP3    H237895   1.487   1.122   1.749  0.6100 -0.9688 -0.4229
 5494TIP3   OH237896   5.190   3.629  11.529  0.0672  0.5900  0.3619
 5494TIP3    H137897   5.103   3.646  11.495  0.0260 -1.0719 -0.4937
 5494TIP3    H237898   5.176   3.575  11.607  0.3014  0.7278  0.4998
 5495TIP3   OH237899   3.033   5.647   1.125 -0.3738  0.4679  0.0127
 5495TIP3    H137900   3.043   5.642   1.220 -0.3789 -3.1579 -0.0464
 5495TIP3    H237901   3.089   5.721   1.099  0.5164  0.8590  2.6940
 5496TIP3   OH237902   0.945   6.243   4.307 -0.9040  0.2591 -0.2772
 5496TIP3    H137903   0.957   6.260   4.213 -0.2096 -0.1478 -0.2698
 5496TIP3    H237904   0.928   6.149   4.312 -0.3675  0.1757  0.0484
 5497TIP3   OH237905   6.614   4.605  11.441  0.1696 -0.2512  0.1752
 5497TIP3    H137906   6.678   4.645  11.500  0.9160 -0.9309 -0.1504
 5497TIP3    H237907   6.662   4.592  11.360 -0.1759 -1.4115  0.1429
 5498TIP3   OH237908   2.695   0.225   4.425 -0.3964 -0.1717 -0.4344
 5498TIP3    H137909   2.627   0.283   4.458 -2.3735 -2.2542 -0.5640
 5498TIP3    H237910   2.652   0.140   4.419  2.1277 -1.4939 -0.9914
 5499TIP3   OH237911   3.377   4.097   3.763 -0.9054 -0.1718  0.9267
 5499TIP3    H137912   3.284   4.107   3.744 -0.5011 -0.6957 -1.7570
 5499TIP3    H237913   3.421   4.155   3.700  0.6123 -0.8580  1.2955
 5500TIP3   OH237914   3.983   0.973  13.184 -0.1614 -0.6737 -0.1022
 5500TIP3    H137915   3.965   1.059  13.146  1.1371  0.3984  1.5493
 5500TIP3    H237916   4.030   0.926  13.115 -1.1466 -0.1956 -1.1353
 5501TIP3   OH237917   6.740   0.089   1.453 -0.1020  0.4570 -0.3389
 5501TIP3    H137918   6.661   0.042   1.428 -1.4226  0.6236  3.0051
 5501TIP3    H237919   6.713   0.180   1.461  0.6609  0.6692 -0.0294
 5502TIP3   OH237920   4.473   1.437   2.820  0.3058  0.0203 -0.1672
 5502TIP3    H137921   4.548   1.383   2.796  0.3598 -0.3822  0.8583
 5502TIP3    H237922   4.511   1.519   2.853  0.2646  0.1349 -0.3997
 5503TIP3   OH237923   0.790   2.288   4.944 -0.0679  0.3828  0.2393
 5503TIP3    H137924   0.716   2.286   4.883 -0.8037  2.0513  0.9975
 5503TIP3    H237925   0.762   2.233   5.017 -0.1491  0.2354  0.0982
 5504TIP3   OH237926   3.187   0.740   2.832 -0.2613  0.2606  0.6962
 5504TIP3    H137927   3.243   0.796   2.886  0.9398 -0.6724  0.4533
 5504TIP3    H237928   3.247   0.683   2.785 -1.4484 -1.9462  1.6752
 5505TIP3   OH237929   0.780   2.451  12.809  0.6161 -0.3674  0.2954
 5505TIP3    H137930   0.767   2.359  12.785  1.3872 -0.2187 -0.7697
 5505TIP3    H237931   0.844   2.483  12.745 -2.2479  1.8886 -1.6904
 5506TIP3   OH237932   0.550   2.877  13.149 -0.1620 -0.2113  0.1600
 5506TIP3    H137933   0.478   2.848  13.205  0.2552 -0.0012  0.8094
 5506TIP3    H237934   0.544   2.821  13.071 -0.7864 -0.4558  0.3817
 5507TIP3   OH237935   6.174   4.777  11.915  0.1361  0.1873 -0.1495
 5507TIP3    H137936   6.127   4.709  11.964 -0.8032  0.1456 -1.0864
 5507TIP3    H237937   6.107   4.842  11.895  0.5966  0.3968 -1.0393
 5508TIP3   OH237938   0.291   5.256  13.869  0.2582 -0.2361 -0.2244
 5508TIP3    H137939   0.225   5.194  13.839 -0.0295 -0.1862  0.3009
 5508TIP3    H237940   0.292   5.247  13.964  0.1507  0.6216 -0.1312
 5509TIP3   OH237941   6.287   5.006  11.466  0.9024 -0.2920  0.3924
 5509TIP3    H137942   6.237   4.975  11.392  1.0623  0.6449 -0.1214
 5509TIP3    H237943   6.322   4.927  11.507  0.0755 -0.8616  0.0009
 5510TIP3   OH237944   2.304   0.446   0.795 -0.3917 -0.0043  0.1796
 5510TIP3    H137945   2.320   0.509   0.866  1.4597 -0.4953  0.2397
 5510TIP3    H237946   2.235   0.487   0.742 -1.3576  0.6637  1.8755
 5511TIP3   OH237947   4.016   2.402   5.189  0.0272 -0.1109 -0.4416
 5511TIP3    H137948   4.053   2.323   5.147 -0.6287  0.5836 -2.4602
 5511TIP3    H237949   4.091   2.459   5.202  0.3286 -0.5697 -0.1203
 5512TIP3   OH237950   1.716   5.621   1.473  0.0518 -0.1225  0.2989
 5512TIP3    H137951   1.665   5.687   1.521 -0.0648  0.5940 -0.7848
 5512TIP3    H237952   1.789   5.600   1.531 -0.0856  0.7275  0.7875
 5513TIP3   OH237953   3.290   1.594  15.662  0.1563  0.3898  0.2605
 5513TIP3    H137954   3.197   1.618  15.657  0.4767  2.1085  1.5288
 5513TIP3    H237955   3.299   1.551  15.747  0.8472  1.9846  1.0259
 5514TIP3   OH237956   4.976   1.134   2.454 -0.1959 -0.4243 -0.0641
 5514TIP3    H137957   4.947   1.194   2.385  0.5931 -1.7985 -1.6835
 5514TIP3    H237958   5.049   1.086   2.414  0.1727 -1.3983  1.6831
 5515TIP3   OH237959   1.291   5.291  15.286  0.6205  0.0635  0.2955
 5515TIP3    H137960   1.330   5.318  15.203 -0.6402  0.3133 -0.2388
 5515TIP3    H237961   1.260   5.372  15.326  1.6769  0.0033  1.2705
 5516TIP3   OH237962   6.506   0.280   3.663 -0.3217 -0.2113 -0.1779
 5516TIP3    H137963   6.536   0.213   3.726  0.1290  0.4017  0.2673
 5516TIP3    H237964   6.451   0.338   3.715 -1.6754 -0.8828 -0.8225
 5517TIP3   OH237965   1.353   6.642   6.335 -0.0302  0.1346  0.0639
 5517TIP3    H137966   1.416   6.698   6.291 -1.9750  0.6597 -2.2392
 5517TIP3    H237967   1.371   6.654   6.429  1.1930  2.6949 -0.4320
 5518TIP3   OH237968   0.759   1.058   5.332  0.1386 -0.5345  0.1141
 5518TIP3    H137969   0.724   1.091   5.415  0.7570 -0.1113  0.2205
 5518TIP3    H237970   0.764   0.963   5.344 -0.3001 -0.5297  0.3528
 5519TIP3   OH237971   2.668   3.934   5.365 -0.2505 -0.2082 -0.6468
 5519TIP3    H137972   2.584   3.959   5.328 -0.8846 -0.8727  0.2819
 5519TIP3    H237973   2.646   3.876   5.439  1.0044 -0.2063 -0.2345
 5520TIP3   OH237974   6.184   6.605  12.011  0.3653 -0.2121 -0.6681
 5520TIP3    H137975   6.142   6.520  12.021  1.5233 -0.5828  2.1009
 5520TIP3    H237976   6.276   6.590  12.033  0.2565  2.0099  1.8859
 5521TIP3   OH237977   1.047   5.731   6.154  0.0021 -0.2033 -0.2095
 5521TIP3    H137978   1.048   5.723   6.059  0.5835 -1.3812 -0.1138
 5521TIP3    H237979   1.100   5.810   6.171 -0.1162  0.0265 -0.8523
 5522TIP3   OH237980   2.467   1.673   0.953  0.0527  0.1968  0.1562
 5522TIP3    H137981   2.534   1.729   0.992 -0.0441 -0.3016  1.0467
 5522TIP3    H237982   2.457   1.707   0.864  0.8674  0.8193  0.2902
 5523TIP3   OH237983   6.231   5.591   1.047  0.3837  0.0235  0.1687
 5523TIP3    H137984   6.277   5.590   1.132  1.7138 -1.4876 -0.5227
 5523TIP3    H237985   6.219   5.684   1.028  1.4393  0.4212  1.2968
 5524TIP3   OH237986   1.687   4.143  13.417  0.1232 -0.3339 -0.4286
 5524TIP3    H137987   1.757   4.133  13.353 -0.1955  0.5837 -0.9481
 5524TIP3    H237988   1.612   4.098  13.377 -0.7218  2.1014 -1.8063
 5525TIP3   OH237989   4.855   5.041   1.767  0.1076  0.1423  0.1217
 5525TIP3    H137990   4.890   5.044   1.856  0.2585 -0.2461  0.0773
 5525TIP3    H237991   4.767   5.003   1.778  0.5703 -1.0198 -0.0198
 5526TIP3   OH237992   4.913   4.615   2.994 -0.0628 -0.5024 -0.5874
 5526TIP3    H137993   4.901   4.704   3.028  1.5928 -0.8607  1.1112
 5526TIP3    H237994   4.829   4.573   3.008 -0.6304  0.5517 -0.6893
 5527TIP3   OH237995   3.048   3.469  12.385 -0.0580  0.4815  0.6256
 5527TIP3    H137996   3.067   3.470  12.291 -0.0454  1.9794  0.6211
 5527TIP3    H237997   2.957   3.495  12.392 -0.7796 -1.8677  0.9422
 5528TIP3   OH237998   0.861   4.263   1.687 -0.0872  0.1116  0.0579
 5528TIP3    H137999   0.857   4.355   1.661  0.6178  0.4415  1.0259
 5528TIP3    H238000   0.952   4.237   1.669 -0.6217 -0.8048 -1.4616
 5529TIP3   OH238001   2.400   5.852   3.061  0.4855  0.0820 -0.2348
 5529TIP3    H138002   2.362   5.774   3.021  2.2844 -2.0320  1.8152
 5529TIP3    H238003   2.477   5.872   3.007  0.2280  0.2020 -0.5560
 5530TIP3   OH238004   4.863   1.055   4.793  0.3216  0.0910  0.2341
 5530TIP3    H138005   4.838   1.138   4.753  0.4656 -0.4173 -0.9402
 5530TIP3    H238006   4.853   1.070   4.887 -0.4097  1.1839 -0.0023
 5531TIP3   OH238007   1.422   4.594   5.443  0.5154  0.3228 -0.4563
 5531TIP3    H138008   1.345   4.648   5.425  1.5950  1.4402 -2.1002
 5531TIP3    H238009   1.412   4.518   5.386  0.9863  0.8922 -1.3427
 5532TIP3   OH238010   1.175   5.367   4.129  0.1483  0.0275  0.1710
 5532TIP3    H138011   1.257   5.346   4.084  0.3329 -0.2939  0.6558
 5532TIP3    H238012   1.192   5.347   4.221 -0.4044  0.1640  0.3041
 5533TIP3   OH238013   4.528   1.228   0.673 -0.1799  0.0246 -0.2380
 5533TIP3    H138014   4.532   1.324   0.676 -2.7710  0.2151 -0.4333
 5533TIP3    H238015   4.557   1.201   0.760  0.0909  1.0307  0.0011
 5534TIP3   OH238016   6.062   0.797   1.054  0.0153  0.0382 -0.1993
 5534TIP3    H138017   6.058   0.890   1.078  0.6622  0.4145 -1.4644
 5534TIP3    H238018   6.142   0.765   1.096  0.3191  0.3136 -0.5556
 5535TIP3   OH238019   2.363   1.498   5.175  0.0414 -0.3476 -0.3478
 5535TIP3    H138020   2.302   1.431   5.206  1.1102 -1.2640 -0.1701
 5535TIP3    H238021   2.379   1.553   5.251  0.5858 -1.0051  0.0273
 5536TIP3   OH238022   3.187   5.061   5.442  0.0339  0.5045  0.3332
 5536TIP3    H138023   3.143   5.072   5.358 -2.0829  0.2201  1.3327
 5536TIP3    H238024   3.259   5.124   5.440  0.5399 -0.0670 -1.9857
 5537TIP3   OH238025   0.863   4.709   2.418 -0.2210  0.6319  0.2101
 5537TIP3    H138026   0.898   4.757   2.342 -0.6118  0.4884 -0.0636
 5537TIP3    H238027   0.867   4.617   2.392  1.1332  0.4382  0.9801
 5538TIP3   OH238028   4.417   4.715   3.427 -0.5573 -0.0672  0.6264
 5538TIP3    H138029   4.324   4.737   3.435 -1.6544 -2.9850 -2.0639
 5538TIP3    H238030   4.435   4.720   3.333  1.2625 -2.0884  0.7914
 5539TIP3   OH238031   0.734   0.388   5.093  0.6324  1.0181  0.0314
 5539TIP3    H138032   0.711   0.478   5.115 -1.8192  0.9857 -1.8692
 5539TIP3    H238033   0.811   0.395   5.037  1.2183  1.7874  0.9048
 5540TIP3   OH238034   1.679   3.097   1.600  1.0933  0.2945  0.7528
 5540TIP3    H138035   1.668   3.150   1.522  2.2220  0.4407  0.6795
 5540TIP3    H238036   1.603   3.118   1.655  0.3835  0.3124 -0.2180
 5541TIP3   OH238037   3.428   1.194  16.708  0.1880  0.7572  0.0889
 5541TIP3    H138038   3.413   1.145  16.789  1.6193  1.0626  0.5676
 5541TIP3    H238039   3.433   1.285  16.735  0.5265  0.8750 -0.3502
 5542TIP3   OH238040   2.127   2.863   0.045 -0.2551  0.1410  0.1583
 5542TIP3    H138041   2.213   2.860   0.002 -0.9600 -0.5984 -1.2862
 5542TIP3    H238042   2.088   2.945   0.015 -0.5871 -0.1851 -0.3286
 5543TIP3   OH238043   6.542   6.570   5.782 -0.7461  0.5317 -0.2968
 5543TIP3    H138044   6.631   6.556   5.748 -0.7865 -0.0182 -0.1853
 5543TIP3    H238045   6.495   6.611   5.710 -0.6087  0.1154 -0.6255
 5544TIP3   OH238046   4.625   3.250   5.922 -0.0514  0.3854  0.0183
 5544TIP3    H138047   4.713   3.248   5.959 -0.6673 -0.8318  1.5270
 5544TIP3    H238048   4.570   3.207   5.988 -1.6534  0.4444 -1.2121
 5545TIP3   OH238049   0.065   6.399   4.269 -0.0219 -0.1151 -0.4726
 5545TIP3    H138050   0.108   6.317   4.247 -0.4783 -0.9123  1.4461
 5545TIP3    H238051   0.117   6.436   4.340 -1.3271 -0.0814  0.4949
 5546TIP3   OH238052   3.495   4.965  13.147 -0.1969 -0.1274  0.0262
 5546TIP3    H138053   3.589   4.980  13.138 -0.3582 -0.0366 -2.0541
 5546TIP3    H238054   3.489   4.885  13.199  1.1826 -1.7108 -2.0532
 5547TIP3   OH238055   0.239   5.799  15.921 -0.1390  0.4070  0.6643
 5547TIP3    H138056   0.228   5.894  15.919  0.1481  0.4325 -0.7211
 5547TIP3    H238057   0.266   5.779  16.010 -0.1697  1.6340  0.9548
 5548TIP3   OH238058   4.502   2.442   5.366  0.0248  0.2553 -0.1727
 5548TIP3    H138059   4.463   2.362   5.400 -2.0161  0.9779 -0.6386
 5548TIP3    H238060   4.587   2.416   5.332  0.1636 -1.3463  1.2771
 5549TIP3   OH238061   6.604   2.268   2.154  0.5343 -0.5487  0.1948
 5549TIP3    H138062   6.573   2.232   2.071 -0.2585 -0.6604  0.5306
 5549TIP3    H238063   6.554   2.348   2.166 -1.2376 -1.7976  1.7741
 5550TIP3   OH238064   1.445   3.536   4.362  0.3428  0.0646  0.4293
 5550TIP3    H138065   1.534   3.541   4.327 -0.5186  0.3933 -1.8792
 5550TIP3    H238066   1.428   3.625   4.395  0.4277  0.3471 -0.2751
 5551TIP3   OH238067   2.593   3.535  15.751  0.3188 -0.2160  0.6642
 5551TIP3    H138068   2.627   3.587  15.678 -1.3934  0.1739  0.1081
 5551TIP3    H238069   2.635   3.450  15.740  0.7949  0.1183 -0.2486
 5552TIP3   OH238070   4.416   0.502   3.255  0.0192 -0.0264  0.0037
 5552TIP3    H138071   4.370   0.569   3.306 -0.1727  0.2676 -0.5480
 5552TIP3    H238072   4.389   0.419   3.295 -0.8738  0.1497 -0.1997
 5553TIP3   OH238073   3.219   4.171  17.155  0.5692 -0.5953  0.4067
 5553TIP3    H138074   3.200   4.170  17.062  0.1105 -2.0256  0.4976
 5553TIP3    H238075   3.313   4.192  17.160  0.2947  0.9363 -0.2831
 5554TIP3   OH238076   5.299   6.360  14.481  0.3751 -0.0914 -0.3005
 5554TIP3    H138077   5.276   6.386  14.570 -1.1521 -1.5397 -0.2101
 5554TIP3    H238078   5.392   6.378  14.474  0.9568 -1.5651  2.2147
 5555TIP3   OH238079   3.168   4.700   1.681  0.4706  0.2646  0.1037
 5555TIP3    H138080   3.175   4.682   1.587 -1.3872 -0.5422  0.0807
 5555TIP3    H238081   3.258   4.698   1.712  1.0211 -0.7821 -1.4247
 5556TIP3   OH238082   2.852   3.329   0.489  0.0528  0.6291  0.1973
 5556TIP3    H138083   2.899   3.302   0.411  3.2581  3.3902  0.9568
 5556TIP3    H238084   2.894   3.280   0.560 -0.7040  0.5045  0.5765
 5557TIP3   OH238085   4.034   0.860  15.399 -0.5563 -0.4595 -0.4368
 5557TIP3    H138086   4.017   0.933  15.459  0.4079 -1.1860  0.7569
 5557TIP3    H238087   4.042   0.784  15.455  0.4661 -1.1585 -1.4889
 5558TIP3   OH238088   4.509   4.555   4.516  0.2593 -0.0459  0.3919
 5558TIP3    H138089   4.565   4.608   4.459 -0.0627  0.3907  0.4715
 5558TIP3    H238090   4.478   4.484   4.460 -1.5669  1.3996 -0.5682
 5559TIP3   OH238091   4.056   5.630  12.738  0.3312 -0.4039  0.2827
 5559TIP3    H138092   4.011   5.627  12.822 -0.5909  1.3167 -0.1149
 5559TIP3    H238093   4.038   5.717  12.703  1.6116 -0.6770 -1.2089
 5560TIP3   OH238094   0.964   5.268  13.724  0.3927  0.7172 -0.0124
 5560TIP3    H138095   0.992   5.180  13.696 -0.2342  1.4483 -3.3814
 5560TIP3    H238096   0.940   5.257  13.816 -2.2795 -3.3105 -0.9262
 5561TIP3   OH238097   4.254   0.211   3.964  0.1249 -0.0627 -0.5074
 5561TIP3    H138098   4.234   0.302   3.939  1.3145  1.1062  2.3669
 5561TIP3    H238099   4.185   0.188   4.026  0.6402 -0.6103 -0.1375
 5562TIP3   OH238100   0.906   5.372  13.251  0.1853 -0.2271  0.0465
 5562TIP3    H138101   0.863   5.289  13.273  0.0945  0.0871  1.1239
 5562TIP3    H238102   0.919   5.368  13.156 -3.7778  0.3886 -0.6899
 5563TIP3   OH238103   4.726   4.250  15.191 -0.1497  0.0928  0.9659
 5563TIP3    H138104   4.774   4.333  15.201  1.9071 -0.9522  0.2054
 5563TIP3    H238105   4.722   4.235  15.097  0.6175 -1.2808  1.1334
 5564TIP3   OH238106   2.454   6.563   6.346  0.4618 -0.1999 -0.2478
 5564TIP3    H138107   2.495   6.603   6.269 -0.7784  0.9065 -0.3597
 5564TIP3    H238108   2.386   6.507   6.310 -0.0325  0.2144  0.0296
 5565TIP3   OH238109   3.013   0.247   3.755 -0.3816  0.0817  0.1054
 5565TIP3    H138110   3.088   0.221   3.807 -0.8430  0.9337  1.2314
 5565TIP3    H238111   3.049   0.306   3.688  0.0956 -0.3710 -0.0373
 5566TIP3   OH238112   5.753   4.059   4.108 -0.0149 -0.6120  0.6398
 5566TIP3    H138113   5.744   4.146   4.069  1.9370 -0.5572  0.2181
 5566TIP3    H238114   5.665   4.023   4.106 -0.5793  0.7327 -0.6769
 5567TIP3   OH238115   5.680   5.608  15.488 -0.7128  0.2929 -0.7100
 5567TIP3    H138116   5.612   5.610  15.556 -0.8952 -1.7525 -0.7652
 5567TIP3    H238117   5.677   5.519  15.454 -0.0726  1.0265 -2.8652
 5568TIP3   OH238118   1.815   1.173  15.299 -0.6627  0.1206  0.2229
 5568TIP3    H138119   1.878   1.226  15.251 -0.4613 -0.8532 -0.6181
 5568TIP3    H238120   1.850   1.084  15.295 -2.1502 -0.4693 -0.3899
 5569TIP3   OH238121   2.085   6.180  11.858  0.0822  0.2950 -0.2563
 5569TIP3    H138122   1.999   6.138  11.868  0.1354  0.3438  0.5358
 5569TIP3    H238123   2.142   6.131  11.918  1.1444 -1.1372 -2.3263
 5570TIP3   OH238124   0.778   2.613   2.718  0.0056  0.1886 -0.2691
 5570TIP3    H138125   0.818   2.601   2.632  1.6169 -1.3800  0.6132
 5570TIP3    H238126   0.687   2.588   2.705 -0.1923  1.5549 -1.8468
 5571TIP3   OH238127   0.689   1.943  12.133  0.0111 -0.3910 -0.1079
 5571TIP3    H138128   0.642   1.860  12.121  0.1930 -0.5917  0.5855
 5571TIP3    H238129   0.651   1.981  12.211  0.1554  0.0328 -0.2408
 5572TIP3   OH238130   4.498   4.641   4.869 -0.3481 -0.6251 -0.0435
 5572TIP3    H138131   4.424   4.622   4.810  0.6029 -1.9720 -0.8696
 5572TIP3    H238132   4.458   4.680   4.946 -1.6669  1.0647 -1.4947
 5573TIP3   OH238133   2.706   3.086   0.077  0.0959 -0.4496 -0.1599
 5573TIP3    H138134   2.719   3.042   0.162 -2.1122  0.6863  0.8316
 5573TIP3    H238135   2.777   3.149   0.072  2.1562 -2.6485 -0.7043
 5574TIP3   OH238136   5.170   4.967  16.647 -0.0859  0.0913 -0.0204
 5574TIP3    H138137   5.115   4.994  16.720  0.1150  0.5522 -0.0285
 5574TIP3    H238138   5.181   5.047  16.595 -0.2855 -0.2445 -0.5952
 5575TIP3   OH238139   5.821   1.602  12.185 -0.0005 -0.8393 -0.3818
 5575TIP3    H138140   5.800   1.600  12.279 -0.6027 -1.3136 -0.5204
 5575TIP3    H238141   5.736   1.598  12.142  0.2051  0.5213 -0.9508
 5576TIP3   OH238142   5.343   2.317   4.289  0.3998  0.3026 -0.5238
 5576TIP3    H138143   5.312   2.294   4.377  1.8365 -1.1469 -0.3620
 5576TIP3    H238144   5.398   2.395   4.304 -0.4558  0.8888 -0.3538
 5577TIP3   OH238145   0.081   4.168   1.933 -0.3933  0.0062  0.9499
 5577TIP3    H138146   0.020   4.202   1.999 -0.6332 -2.0806  1.8942
 5577TIP3    H238147   0.166   4.204   1.957 -1.0555  2.3708  0.0444
 5578TIP3   OH238148   1.667   3.576   2.218 -0.0134  0.3098  0.3996
 5578TIP3    H138149   1.702   3.492   2.249 -0.7383 -0.9215 -1.8354
 5578TIP3    H238150   1.744   3.633   2.213  1.4497 -1.6463 -2.2511
 5579TIP3   OH238151   6.143   2.689   3.036 -0.2884  0.0209 -0.4869
 5579TIP3    H138152   6.056   2.661   3.064 -0.8429  0.2665 -1.8903
 5579TIP3    H238153   6.136   2.784   3.028  0.6071  0.2361  0.9748
 5580TIP3   OH238154   4.402   2.383   2.056 -0.1146  0.0376  0.5112
 5580TIP3    H138155   4.390   2.315   2.123 -0.8620 -0.4159 -0.0575
 5580TIP3    H238156   4.461   2.342   1.992  3.1522  1.5360  2.2986
 5581TIP3   OH238157   4.260   0.846   0.423  0.5334  0.4597  0.4406
 5581TIP3    H138158   4.337   0.893   0.454 -0.1320  1.9828 -0.0913
 5581TIP3    H238159   4.187   0.905   0.443 -0.2563  0.0324 -1.0372
 5582TIP3   OH238160   2.275   6.566   1.066 -0.4400 -0.2218 -0.0704
 5582TIP3    H138161   2.188   6.537   1.092 -0.6936  1.0216  0.5627
 5582TIP3    H238162   2.315   6.489   1.026 -1.4655 -1.0982  0.5294
 5583TIP3   OH238163   6.706   3.443  10.660  0.5264 -0.3895 -0.1349
 5583TIP3    H138164   6.735   3.533  10.647  2.0429 -1.0390 -1.4387
 5583TIP3    H238165   6.786   3.392  10.669 -0.2768 -1.7955 -0.6422
 5584TIP3   OH238166   0.473   2.243   5.581  0.2766  0.3819  0.3440
 5584TIP3    H138167   0.556   2.195   5.577 -0.8922 -1.6424 -1.1922
 5584TIP3    H238168   0.446   2.235   5.673 -0.3680 -2.9173 -0.0176
 5585TIP3   OH238169   0.025   2.566  14.788 -0.3530 -0.2208  0.2749
 5585TIP3    H138170   0.100   2.568  14.848 -0.5375 -0.5218  0.5220
 5585TIP3    H238171  -0.035   2.503  14.828 -0.8432  0.1971  0.1989
 5586TIP3   OH238172   5.368   0.162   4.960 -0.0397 -0.1881  0.1999
 5586TIP3    H138173   5.299   0.160   4.894  0.9052  0.5017 -0.8371
 5586TIP3    H238174   5.390   0.255   4.969  0.7484 -0.4035  0.5244
 5587TIP3   OH238175   0.039   2.956   0.364  0.2612  0.5356 -0.6223
 5587TIP3    H138176   0.082   3.010   0.430 -1.0631  1.8396 -0.7662
 5587TIP3    H238177  -0.020   2.899   0.414  1.6143 -0.7822 -0.4750
 5588TIP3   OH238178   0.775   4.358   4.946 -0.2287 -0.2926  0.3219
 5588TIP3    H138179   0.840   4.306   4.993 -0.1633 -0.3553  0.1646
 5588TIP3    H238180   0.711   4.294   4.915  1.2548 -0.7231 -2.2497
 5589TIP3   OH238181   0.203   1.785  13.635 -0.5036 -0.3253  0.2275
 5589TIP3    H138182   0.250   1.867  13.622 -2.1658  0.7609  0.7122
 5589TIP3    H238183   0.130   1.788  13.573 -0.7406 -1.3191  0.4263
 5590TIP3   OH238184   2.215   5.960  12.450 -0.4680 -0.7726 -0.3106
 5590TIP3    H138185   2.277   5.954  12.378 -1.5247  0.6375 -1.4020
 5590TIP3    H238186   2.227   6.048  12.485 -0.0385 -1.4010  1.2172
 5591TIP3   OH238187   3.651   3.705  16.555 -0.1271  0.2988 -0.2782
 5591TIP3    H138188   3.711   3.763  16.507 -0.1190  1.0051  0.5608
 5591TIP3    H238189   3.564   3.738  16.534 -0.1114  0.8106  0.4242
 5592TIP3   OH238190   5.923   0.503  13.277  0.3059  0.0031  0.1792
 5592TIP3    H138191   5.878   0.512  13.361  1.0453 -0.1942  0.6000
 5592TIP3    H238192   5.948   0.411  13.272 -0.9903 -0.3214 -0.9177
 5593TIP3   OH238193   3.126   2.247  11.934 -0.3629  0.1818  0.0162
 5593TIP3    H138194   3.210   2.293  11.923  0.6627 -1.8395 -1.0704
 5593TIP3    H238195   3.095   2.275  12.020  0.0602  3.0607 -0.6688
 5594TIP3   OH238196   4.284   6.025   1.635 -0.3481 -0.3445  0.1105
 5594TIP3    H138197   4.308   6.036   1.727 -0.0866 -0.8712  0.1082
 5594TIP3    H238198   4.362   6.050   1.587 -1.0806  1.8030 -0.0609
 5595TIP3   OH238199   1.635   6.376   0.944 -0.2210 -0.1253  0.0558
 5595TIP3    H138200   1.557   6.397   0.996  0.0385  1.0498 -0.0062
 5595TIP3    H238201   1.605   6.312   0.880 -1.2377  0.6197 -0.2332
 5596TIP3   OH238202   4.329   6.496  14.370 -0.2756 -0.0529 -0.3811
 5596TIP3    H138203   4.297   6.542  14.293 -3.1139 -1.2046 -0.0260
 5596TIP3    H238204   4.268   6.521  14.440 -1.6756 -3.6970 -0.0606
 5597TIP3   OH238205   0.905   5.473   3.133 -0.2329 -0.2393  0.5048
 5597TIP3    H138206   0.826   5.421   3.149 -0.7006 -0.1949 -1.4036
 5597TIP3    H238207   0.973   5.428   3.183 -0.9766 -1.7001  0.2667
 5598TIP3   OH238208   0.022   3.441   0.834 -0.4463  0.0998 -0.3971
 5598TIP3    H138209  -0.020   3.504   0.893  0.3819  1.5057 -1.2630
 5598TIP3    H238210   0.087   3.492   0.786 -1.2649 -0.9158 -2.7388
 5599TIP3   OH238211   4.127   0.944  14.887  0.0109 -0.5054 -0.4148
 5599TIP3    H138212   4.137   0.889  14.964 -3.1697  0.6524  0.9942
 5599TIP3    H238213   4.059   0.901  14.835  0.4973 -0.0754 -1.4461
 5600TIP3   OH238214   4.938   4.798   1.058 -0.1378  0.7704 -0.3968
 5600TIP3    H138215   4.875   4.842   1.116  0.0466  0.3505  0.1328
 5600TIP3    H238216   4.885   4.766   0.985 -0.4630  0.8284 -0.1895
 5601TIP3   OH238217   4.281   2.024  14.242 -0.2608  0.6836  0.2644
 5601TIP3    H138218   4.238   1.942  14.220  1.8297 -0.7857  1.2523
 5601TIP3    H238219   4.290   2.070  14.158 -0.1069 -0.8057 -0.5706
 5602TIP3   OH238220   3.067   1.036   1.070 -0.0634 -0.1206 -0.0013
 5602TIP3    H138221   3.014   0.966   1.031 -0.5275 -0.2518  0.8559
 5602TIP3    H238222   3.044   1.035   1.163  0.2819  0.8625  0.1023
 5603TIP3   OH238223   2.524   6.236   4.580 -0.1349 -0.0289 -0.1160
 5603TIP3    H138224   2.573   6.258   4.501  1.7489 -1.4931  0.5780
 5603TIP3    H238225   2.591   6.215   4.645 -1.6684 -0.8533  1.2766
 5604TIP3   OH238226   3.363   0.640  14.527  0.0501  0.8707  0.5242
 5604TIP3    H138227   3.393   0.564  14.476  0.3665  0.3923  1.4136
 5604TIP3    H238228   3.283   0.611  14.569 -0.2442  1.2891  0.2576
 5605TIP3   OH238229   5.648   4.667  14.950  0.0254  0.0057 -0.1890
 5605TIP3    H138230   5.700   4.720  15.010 -1.2754  2.0484 -0.7717
 5605TIP3    H238231   5.691   4.676  14.865  2.2592 -3.4254  0.3885
 5606TIP3   OH238232   3.422   2.275   5.871 -0.0355 -0.6983  0.2613
 5606TIP3    H138233   3.340   2.317   5.898  0.5572  0.4322  0.3922
 5606TIP3    H238234   3.432   2.201   5.931 -1.5326 -1.5633 -0.5166
 5607TIP3   OH238235   4.524   0.666   4.326 -0.0709  0.2371  0.1983
 5607TIP3    H138236   4.480   0.729   4.269  0.1421  1.8898  1.7493
 5607TIP3    H238237   4.614   0.662   4.294  0.3338  1.9844  0.9973
 5608TIP3   OH238238   5.760   0.199   1.317 -0.2567  0.1912  0.9909
 5608TIP3    H138239   5.743   0.253   1.240  1.1094 -0.3584  0.2625
 5608TIP3    H238240   5.677   0.198   1.365 -1.2611  0.2386 -0.6640
 5609TIP3   OH238241   1.883   2.949  16.989  0.0566  0.0184  0.4769
 5609TIP3    H138242   1.936   3.004  17.047  2.8124  0.9584 -2.6727
 5609TIP3    H238243   1.879   2.864  17.035  2.7193  0.4747  1.7689
 5610TIP3   OH238244   4.691   0.738   2.423  0.0131 -0.3873  0.3518
 5610TIP3    H138245   4.709   0.655   2.378 -0.6659 -0.2755 -0.1421
 5610TIP3    H238246   4.762   0.747   2.487  0.1324 -1.3118  0.3570
 5611TIP3   OH238247   4.978   5.384  13.577 -0.1007 -0.1748  1.1361
 5611TIP3    H138248   5.001   5.304  13.531 -1.3514 -0.0597  0.2337
 5611TIP3    H238249   5.057   5.409  13.625  0.0123 -2.4868  2.2658
 5612TIP3   OH238250   1.480   0.422  15.485  0.5297 -0.1757 -0.3732
 5612TIP3    H138251   1.455   0.360  15.553  2.6583  0.4165  1.0488
 5612TIP3    H238252   1.481   0.371  15.405 -0.9397 -1.1579  0.1787
 5613TIP3   OH238253   0.741   3.633   4.999 -0.4420 -0.0898 -0.2987
 5613TIP3    H138254   0.647   3.627   5.012 -0.6808  0.7054 -1.4675
 5613TIP3    H238255   0.779   3.578   5.068 -1.6278  1.9738  2.1802
 5614TIP3   OH238256   0.836   1.481   2.336 -0.7614  0.4844  0.3526
 5614TIP3    H138257   0.799   1.564   2.306 -1.0239  0.5364  0.8010
 5614TIP3    H238258   0.761   1.421   2.338 -0.4483  0.0417 -0.6315
 5615TIP3   OH238259   1.807   6.436   1.333  0.0152  0.4663  0.1966
 5615TIP3    H138260   1.821   6.351   1.292 -0.6021 -0.4022  1.6994
 5615TIP3    H238261   1.712   6.446   1.336  0.0794  1.1131  0.2344
 5616TIP3   OH238262   6.037   5.116   1.692  0.1996 -0.1797  0.3964
 5616TIP3    H138263   6.080   5.181   1.636  1.2349  0.9964  2.4118
 5616TIP3    H238264   6.108   5.082   1.747 -0.4094 -2.7249 -0.2646
 5617TIP3   OH238265   4.174   0.470   5.365  1.1781  0.0004  0.4325
 5617TIP3    H138266   4.208   0.383   5.345 -0.4290 -0.3249 -1.0962
 5617TIP3    H238267   4.231   0.503   5.435  2.0939 -2.0712  0.7136
 5618TIP3   OH238268   6.024   3.079  14.004  0.1776 -0.1003  0.0368
 5618TIP3    H138269   5.962   3.018  13.966 -0.5196 -0.9948  2.4009
 5618TIP3    H238270   5.974   3.160  14.016 -0.6684 -0.8525  2.0362
 5619TIP3   OH238271   2.591   1.122  15.301 -0.0875 -0.4639  0.5388
 5619TIP3    H138272   2.593   1.217  15.316  0.5343 -0.7631  2.7823
 5619TIP3    H238273   2.615   1.085  15.386  0.4881 -2.6257 -0.5206
 5620TIP3   OH238274   0.888   4.649   6.354 -0.1039  0.4413 -0.4232
 5620TIP3    H138275   0.908   4.685   6.267  2.2890 -0.5540 -0.3720
 5620TIP3    H238276   0.957   4.684   6.410  0.6978 -1.9708  0.2073
 5621TIP3   OH238277   6.419   2.621  15.006  0.5294  0.1584  0.6781
 5621TIP3    H138278   6.356   2.646  15.074 -0.3541 -0.2046  0.0110
 5621TIP3    H238279   6.452   2.536  15.035 -0.7580 -0.5847  0.0755
 5622TIP3   OH238280   0.097   5.638  10.678 -0.4569  0.2261 -0.0179
 5622TIP3    H138281   0.131   5.627  10.767 -2.0670 -1.0182  0.4852
 5622TIP3    H238282   0.167   5.684  10.632  0.5349  0.6718  1.8084
 5623TIP3   OH238283   3.296   4.975   3.640 -0.2222 -0.6369 -0.2487
 5623TIP3    H138284   3.346   4.929   3.572 -1.1866 -0.4320 -1.1330
 5623TIP3    H238285   3.306   4.922   3.718  2.5754  0.1536  0.0278
 5624TIP3   OH238286   2.200   0.877   4.533 -0.5772 -0.3881 -0.2596
 5624TIP3    H138287   2.201   0.973   4.539 -0.6425 -0.4750  3.0982
 5624TIP3    H238288   2.290   0.853   4.512 -0.3512  0.3871 -0.2106
 5625TIP3   OH238289   3.102   0.234   4.117  0.2693  0.2573  0.3183
 5625TIP3    H138290   3.112   0.212   4.024  2.3065 -0.5843  0.6781
 5625TIP3    H238291   3.126   0.153   4.163  1.0072  1.1724  1.5953
 5626TIP3   OH238292   1.698   4.224  10.819 -0.4869 -0.2080 -0.6940
 5626TIP3    H138293   1.605   4.244  10.824 -0.0137  1.9385  2.0598
 5626TIP3    H238294   1.738   4.304  10.784  0.3971 -0.8968 -1.3065
 5627TIP3   OH238295   6.023   4.559   1.040  0.2967 -0.2517  0.0618
 5627TIP3    H138296   6.024   4.489   1.106 -2.5147  0.2261  0.7441
 5627TIP3    H238297   6.055   4.517   0.960  0.9705 -1.6600  1.0177
 5628TIP3   OH238298   4.064   4.999   2.740  0.4416  0.2928  0.3419
 5628TIP3    H138299   4.086   4.926   2.798 -1.4449 -0.9702 -0.4511
 5628TIP3    H238300   4.141   5.056   2.745  1.2160 -0.7957  2.4203
 5629TIP3   OH238301   0.438   0.891  13.373 -0.1117 -0.0459 -0.1278
 5629TIP3    H138302   0.419   0.801  13.346  2.2175 -0.8128  0.6122
 5629TIP3    H238303   0.490   0.927  13.301 -1.5922  0.9974 -0.7351
 5630TIP3   OH238304   0.955   4.867  15.525 -0.2118 -0.5525  0.3314
 5630TIP3    H138305   0.947   4.815  15.605 -1.0172 -1.1010 -0.0867
 5630TIP3    H238306   0.871   4.855  15.481 -1.7205  3.6175  1.6865
 5631TIP3   OH238307   4.614   6.738   0.780  0.0118 -0.1391 -0.4592
 5631TIP3    H138308   4.659   6.670   0.728  1.6024  0.8242 -0.4075
 5631TIP3    H238309   4.641   6.720   0.870 -0.1528  0.1349 -0.3562
 5632TIP3   OH238310   4.545   2.998  13.607 -0.1571  0.5106  0.6707
 5632TIP3    H138311   4.514   2.985  13.518 -0.3871  2.6681  0.3693
 5632TIP3    H238312   4.564   2.910  13.639 -2.0495 -0.4994 -0.7652
 5633TIP3   OH238313   0.742   6.707  12.991 -0.2828  0.3691  0.2991
 5633TIP3    H138314   0.778   6.775  12.934 -0.1500  1.5322  1.7184
 5633TIP3    H238315   0.741   6.746  13.078 -0.2233 -1.4486  1.1716
 5634TIP3   OH238316   0.634   5.673   1.799 -0.2071 -0.5015  0.6282
 5634TIP3    H138317   0.647   5.584   1.764  0.1403  0.2540 -1.2945
 5634TIP3    H238318   0.540   5.679   1.814 -0.3682 -0.9024 -0.1345
 5635TIP3   OH238319   1.354   0.707  13.857 -0.1228 -0.0544  0.0212
 5635TIP3    H138320   1.375   0.642  13.790  1.0435 -0.3137  0.6172
 5635TIP3    H238321   1.284   0.760  13.818 -0.4229 -1.0666 -0.8438
 5636TIP3   OH238322   3.185   2.443   2.112  0.1093 -0.5441  0.0926
 5636TIP3    H138323   3.103   2.490   2.127  0.2480 -0.2003 -0.2153
 5636TIP3    H238324   3.163   2.351   2.126 -0.4915 -0.5208 -0.6702
 5637TIP3   OH238325   6.785   0.359  10.649 -0.0960  0.0175  0.6170
 5637TIP3    H138326   6.860   0.411  10.679  0.0219 -0.3540  0.9861
 5637TIP3    H238327   6.734   0.342  10.728 -2.6112  3.3456 -0.0873
 5638TIP3   OH238328   6.257   4.018  16.485 -0.6631 -0.8077  0.1057
 5638TIP3    H138329   6.343   4.029  16.527 -0.8891  0.0047  0.3838
 5638TIP3    H238330   6.194   4.036  16.555 -1.0596 -0.9001 -0.2240
 5639TIP3   OH238331   5.133   0.843   3.376  0.9562 -0.1870 -0.6119
 5639TIP3    H138332   5.194   0.884   3.436  0.4063  0.9124 -0.7818
 5639TIP3    H238333   5.118   0.755   3.412 -0.6872  1.0132  1.8773
 5640TIP3   OH238334   2.733   5.075  16.613 -0.7294  0.3043  0.0683
 5640TIP3    H138335   2.669   5.013  16.649 -1.1543  1.1872  0.8966
 5640TIP3    H238336   2.684   5.123  16.546 -0.9078  0.8874  0.6074
 5641TIP3   OH238337   1.446   0.733  15.252 -0.2136 -0.3064 -0.0543
 5641TIP3    H138338   1.418   0.643  15.239  1.3618 -0.7697 -0.4691
 5641TIP3    H238339   1.466   0.739  15.345 -1.6279  0.0280  0.2428
 5642TIP3   OH238340   1.276   5.056  15.140 -0.2365  0.1603  0.6198
 5642TIP3    H138341   1.243   5.070  15.051  1.7388 -0.2750 -0.2354
 5642TIP3    H238342   1.266   5.140  15.184 -0.3305  0.6550 -0.3374
 5643TIP3   OH238343   1.198   3.453   5.919 -0.6370  0.4413 -0.0493
 5643TIP3    H138344   1.201   3.548   5.908 -1.5059  0.1923 -3.7129
 5643TIP3    H238345   1.290   3.425   5.913 -0.3704  0.9824  1.1247
 5644TIP3   OH238346   5.761   1.524   2.747 -0.6069 -0.1248  0.4361
 5644TIP3    H138347   5.767   1.614   2.716  0.3647 -0.6867 -1.0925
 5644TIP3    H238348   5.681   1.522   2.799 -1.5711  1.2093 -0.9232
 5645TIP3   OH238349   0.400   6.764   6.005  0.0654  0.1152 -0.3522
 5645TIP3    H138350   0.412   6.778   6.099  1.0078  0.1499 -0.4741
 5645TIP3    H238351   0.325   6.820   5.983 -0.4079 -0.1776  0.4387
 5646TIP3   OH238352   4.922   3.605  17.186 -0.6527 -0.3172 -0.3319
 5646TIP3    H138353   4.978   3.624  17.261  0.7458 -2.2482 -0.7974
 5646TIP3    H238354   4.917   3.687  17.137 -1.9608  1.1166  2.0390
 5647TIP3   OH238355   0.697   1.008  13.805 -0.3853  0.3730 -0.0056
 5647TIP3    H138356   0.706   0.994  13.711  1.7981 -1.6332  0.4280
 5647TIP3    H238357   0.740   1.092  13.821  0.2238  0.2001 -0.6777
 5648TIP3   OH238358   5.976   2.807   2.749  0.1744 -0.3928  0.6570
 5648TIP3    H138359   6.054   2.861   2.761 -0.3740  0.9507 -1.2499
 5648TIP3    H238360   5.907   2.854   2.797  0.1203 -0.4913  0.6752
 5649TIP3   OH238361   6.680   5.649   0.760 -0.3388 -0.7438 -0.1408
 5649TIP3    H138362   6.761   5.692   0.730 -0.6730 -0.1505 -0.2062
 5649TIP3    H238363   6.666   5.578   0.698  0.9148 -1.7694  0.6939
 5650TIP3   OH238364   2.189   3.543  15.612  0.3035 -0.2256 -0.3970
 5650TIP3    H138365   2.141   3.556  15.530 -0.1317  1.4071  0.0815
 5650TIP3    H238366   2.228   3.628  15.631  1.4451 -0.9108  0.4586
 5651TIP3   OH238367   2.981   5.349   4.311 -0.3219 -0.2455 -0.1477
 5651TIP3    H138368   2.976   5.434   4.266 -0.4633  0.2681  0.8064
 5651TIP3    H238369   2.949   5.367   4.400  2.4508 -0.6007  1.0285
 5652TIP3   OH238370   1.262   0.487  14.002 -0.2275 -0.4356 -0.4963
 5652TIP3    H138371   1.330   0.424  13.979  0.3541 -0.1182  0.3041
 5652TIP3    H238372   1.289   0.568  13.961  0.6368  0.0464  0.9403
 5653TIP3   OH238373   5.781   6.690  16.794  0.3910  0.2971 -0.2955
 5653TIP3    H138374   5.725   6.613  16.806 -0.2124  0.7974  0.1300
 5653TIP3    H238375   5.727   6.764  16.821  0.3565  1.0756 -2.3255
 5654TIP3   OH238376   3.970   0.612  11.215  0.2877  0.5984  0.5504
 5654TIP3    H138377   3.997   0.647  11.300 -0.0627 -0.9237  1.3241
 5654TIP3    H238378   4.032   0.541  11.198  0.6048  1.1490 -0.6788
 5655TIP3   OH238379   4.667   6.009  12.418 -0.3429 -0.2125  0.0001
 5655TIP3    H138380   4.710   6.040  12.338 -2.1430 -1.5950 -1.5800
 5655TIP3    H238381   4.717   5.932  12.443 -0.0425 -0.0358 -0.0459
 5656TIP3   OH238382   3.863   0.783  12.428  0.2345 -0.6037 -0.3666
 5656TIP3    H138383   3.840   0.837  12.353  0.4125  2.2530  1.4482
 5656TIP3    H238384   3.914   0.711  12.392 -0.7473 -0.0442 -3.0651
 5657TIP3   OH238385   2.231   5.349   5.996 -0.0699  0.0321  0.0738
 5657TIP3    H138386   2.201   5.306   5.917 -2.1439  0.3692  0.6172
 5657TIP3    H238387   2.162   5.411   6.018  1.6617  1.8566  0.7063
 5658TIP3   OH238388   5.453   1.770  15.615 -0.0052  0.8301 -0.5675
 5658TIP3    H138389   5.362   1.744  15.600  0.6303 -1.9407 -0.1308
 5658TIP3    H238390   5.503   1.688  15.612  2.2812  2.0581  0.8090
 5659TIP3   OH238391   3.208   0.423  13.825  0.0309  0.1872 -0.2047
 5659TIP3    H138392   3.207   0.459  13.914 -2.0633  0.1007 -0.1468
 5659TIP3    H238393   3.289   0.372  13.821  1.2027  1.8229  0.9466
 5660TIP3   OH238394   5.007   3.848   3.498  0.3496 -0.0769  0.0932
 5660TIP3    H138395   5.027   3.894   3.417 -2.0584 -1.1414 -1.1794
 5660TIP3    H238396   5.023   3.756   3.478 -0.0276 -0.3285  0.9074
 5661TIP3   OH238397   3.323   1.119   1.256 -0.4881 -0.0642  0.0891
 5661TIP3    H138398   3.392   1.139   1.193 -1.0911 -3.1907 -1.7506
 5661TIP3    H238399   3.241   1.139   1.211 -0.9926 -3.6402 -0.8712
 5662TIP3   OH238400   5.654   0.980   6.056 -0.1856 -0.1877  0.6662
 5662TIP3    H138401   5.578   0.978   5.998  0.0900 -1.6718  0.3132
 5662TIP3    H238402   5.618   0.971   6.144 -0.5117  0.6845  0.6300
 5663TIP3   OH238403   2.656   4.928   2.083  0.1680 -0.6133  0.2631
 5663TIP3    H138404   2.658   4.834   2.063  0.1583 -0.8232  1.1695
 5663TIP3    H238405   2.565   4.953   2.068 -0.4110 -1.3032  2.2455
 5664TIP3   OH238406   3.739   0.365  12.128  0.3953 -0.9222  0.1475
 5664TIP3    H138407   3.752   0.280  12.087 -3.2792 -1.6325  0.0704
 5664TIP3    H238408   3.688   0.346  12.207 -2.7885  1.2653 -1.1725
 5665TIP3   OH238409   5.692   6.177  13.612  0.0272  0.3047  0.4464
 5665TIP3    H138410   5.688   6.268  13.583 -0.0838  0.5139  1.1058
 5665TIP3    H238411   5.602   6.147  13.611  0.1714 -0.2005 -0.9662
 5666TIP3   OH238412   2.840   2.949   4.487  0.5494 -0.0886 -0.6046
 5666TIP3    H138413   2.763   3.006   4.487  0.7421  0.4330  2.9844
 5666TIP3    H238414   2.914   3.009   4.487  1.0110 -0.5724 -3.0855
 5667TIP3   OH238415   0.798   3.212   3.314  0.4422  0.2891 -0.1748
 5667TIP3    H138416   0.781   3.304   3.335 -0.8363  0.1827 -0.7002
 5667TIP3    H238417   0.735   3.163   3.367  0.6356 -0.2551 -0.4440
 5668TIP3   OH238418   2.587   4.415   2.779  0.4387 -0.4549 -0.5797
 5668TIP3    H138419   2.568   4.487   2.719  0.5771  0.4482  0.4325
 5668TIP3    H238420   2.645   4.453   2.845 -0.1041 -1.2853  0.4109
 5669TIP3   OH238421   6.661   6.127   4.710  0.0137 -0.6497  0.7293
 5669TIP3    H138422   6.720   6.152   4.638  1.6147 -2.8175  1.1769
 5669TIP3    H238423   6.719   6.091   4.777 -1.6096 -0.2789  2.4230
 5670TIP3   OH238424   1.410   2.838   5.036 -0.1762  0.1560 -0.0995
 5670TIP3    H138425   1.398   2.764   5.096  0.0433 -1.9243 -2.4482
 5670TIP3    H238426   1.324   2.880   5.033 -1.3896 -2.1839 -1.2916
 5671TIP3   OH238427   1.544   6.607   2.700  0.0511 -0.0898 -0.4378
 5671TIP3    H138428   1.595   6.687   2.693  2.3775 -1.4666 -0.2962
 5671TIP3    H238429   1.538   6.589   2.794 -1.3940  0.4348 -0.4041
 5672TIP3   OH238430   3.116   1.110  15.685  0.2178 -0.4969 -0.6679
 5672TIP3    H138431   3.200   1.075  15.715  1.5447  1.3417 -2.0282
 5672TIP3    H238432   3.092   1.054  15.611  0.2204 -1.0082 -0.2929
 5673TIP3   OH238433   3.052   0.571   2.527 -0.1520 -0.4744 -0.4101
 5673TIP3    H138434   2.984   0.596   2.464  0.6836  0.3259 -1.0163
 5673TIP3    H238435   3.134   0.582   2.480  0.3888 -1.9160  0.1600
 5674TIP3   OH238436   5.227   2.114   0.965  0.1515  0.2696 -0.7128
 5674TIP3    H138437   5.261   2.186   1.018 -1.4381  0.7154 -0.2218
 5674TIP3    H238438   5.220   2.149   0.877  1.5340 -0.0424 -0.9678
 5675TIP3   OH238439   6.671   1.919   2.131 -0.3546 -0.2470 -0.1639
 5675TIP3    H138440   6.644   1.840   2.084 -1.9885  0.8554 -1.2068
 5675TIP3    H238441   6.589   1.957   2.163  0.2380  1.7048 -0.8219
 5676TIP3   OH238442   2.094   5.593   0.423  0.1095  0.0618 -0.0071
 5676TIP3    H138443   2.184   5.566   0.441  0.9863  0.1648 -3.5284
 5676TIP3    H238444   2.041   5.517   0.447  1.1089 -0.0632  1.9666
 5677TIP3   OH238445   6.256   3.522   3.631  0.6500  0.2700 -0.3953
 5677TIP3    H138446   6.168   3.551   3.607 -0.5460 -1.9848  1.0151
 5677TIP3    H238447   6.246   3.482   3.717  3.0076 -0.3838 -0.3582
 5678TIP3   OH238448   3.175   5.599  16.483 -0.3810  0.2364 -0.1313
 5678TIP3    H138449   3.237   5.526  16.491  1.1057  1.6102  1.9730
 5678TIP3    H238450   3.124   5.579  16.405  0.4753 -2.6523 -0.0560
 5679TIP3   OH238451   3.107   0.820  14.052  0.1542  0.6148 -0.3113
 5679TIP3    H138452   3.198   0.846  14.038  0.5976 -1.0201 -0.7630
 5679TIP3    H238453   3.058   0.863  13.982  0.6996  0.9382 -0.5013
 5680TIP3   OH238454   3.771   5.512   5.621 -0.3875 -0.6195 -0.5004
 5680TIP3    H138455   3.782   5.514   5.526  0.8248  0.6434 -0.3570
 5680TIP3    H238456   3.808   5.428   5.647  1.7381  0.1202 -0.9064
 5681TIP3   OH238457   0.615   3.081  12.834 -0.0544  0.2765  0.3534
 5681TIP3    H138458   0.698   3.120  12.806 -0.6962  2.8125  1.6663
 5681TIP3    H238459   0.593   3.128  12.915 -2.3800 -0.8727  0.4578
 5682TIP3   OH238460   3.755   0.435  11.290  0.4985 -0.7677 -0.0812
 5682TIP3    H138461   3.724   0.390  11.211  1.6154  0.6418 -1.3943
 5682TIP3    H238462   3.840   0.471  11.264 -0.0707  1.5534  1.0796
 5683TIP3   OH238463   2.658   1.909   2.661 -0.5004  0.3040 -0.1477
 5683TIP3    H138464   2.588   1.843   2.656 -0.1788  0.0264 -1.7903
 5683TIP3    H238465   2.612   1.992   2.672 -1.0785  0.0806 -0.7950
 5684TIP3   OH238466   5.428   1.864  17.088 -0.0802 -0.7583  0.0683
 5684TIP3    H138467   5.388   1.821  17.012  0.0418 -0.1539 -0.3452
 5684TIP3    H238468   5.354   1.883  17.145 -0.4527  0.5908 -0.8135
 5685TIP3   OH238469   0.525   3.363   3.619 -0.2025 -0.3712  0.0943
 5685TIP3    H138470   0.450   3.386   3.563 -0.4690 -0.9360  0.2133
 5685TIP3    H238471   0.601   3.369   3.561 -0.5041 -1.2279 -0.4106
 5686TIP3   OH238472   1.485   0.785   2.900 -0.8169 -0.7343 -0.2197
 5686TIP3    H138473   1.573   0.823   2.900 -0.8895 -0.5381 -1.2623
 5686TIP3    H238474   1.454   0.795   2.809 -2.2583  0.0253  0.3107
 5687TIP3   OH238475   1.663   2.393  13.834  0.2057 -0.6335 -0.4046
 5687TIP3    H138476   1.598   2.344  13.785  0.5704 -0.7655 -0.7621
 5687TIP3    H238477   1.746   2.350  13.813  0.2431 -1.4171  1.2181
 5688TIP3   OH238478   0.565   6.647   6.542 -0.2838  0.2545  0.0946
 5688TIP3    H138479   0.561   6.603   6.627  1.8963  0.9817  0.6453
 5688TIP3    H238480   0.496   6.606   6.490  0.9563 -3.1022  0.8573
 5689TIP3   OH238481   5.350   4.421  12.460  0.3685  0.3151 -0.0751
 5689TIP3    H138482   5.293   4.351  12.428  1.2621 -0.3522 -0.2523
 5689TIP3    H238483   5.318   4.499  12.416 -1.0086  0.1411  0.5514
 5690TIP3   OH238484   0.302   2.264  14.503 -0.1279  0.2838 -0.0624
 5690TIP3    H138485   0.271   2.260  14.412  0.0307  0.0111 -0.1059
 5690TIP3    H238486   0.355   2.344  14.506  0.1278  0.1264 -0.2940
 5691TIP3   OH238487   2.547   5.301  15.616  0.8557  0.1069 -0.2703
 5691TIP3    H138488   2.568   5.394  15.616 -0.8609  0.5305 -0.7978
 5691TIP3    H238489   2.571   5.270  15.529 -0.4787  0.5693 -0.8394
 5692TIP3   OH238490   0.283   4.058  17.098  0.0920  0.5332  0.1933
 5692TIP3    H138491   0.349   4.088  17.035  0.0552 -0.1467 -0.1792
 5692TIP3    H238492   0.328   4.062  17.183  1.4380 -2.1373 -0.3027
 5693TIP3   OH238493   4.844   4.957  12.333  0.0863 -0.3203 -0.3546
 5693TIP3    H138494   4.894   5.014  12.391  2.1322  0.8747 -3.0653
 5693TIP3    H238495   4.899   4.948  12.255 -2.8775 -1.0027 -2.5527
 5694TIP3   OH238496   6.285   2.643  15.249 -0.2517 -0.2245 -0.0255
 5694TIP3    H138497   6.236   2.594  15.316 -0.4617  1.8456  1.4519
 5694TIP3    H238498   6.345   2.699  15.300 -0.1692  1.1794 -1.5796
 5695TIP3   OH238499   6.582   2.928  14.388  0.1171  0.4210 -0.3179
 5695TIP3    H138500   6.606   2.858  14.448 -3.8222  0.5444  1.7057
 5695TIP3    H238501   6.517   2.888  14.329  0.0889  1.6079 -1.1399
 5696TIP3   OH238502   3.100   3.510   6.520 -0.1875  0.2013  0.1925
 5696TIP3    H138503   3.068   3.420   6.522 -2.3346  0.9328  1.2035
 5696TIP3    H238504   3.191   3.502   6.490 -0.2174 -2.3121  0.5449
 5697TIP3   OH238505   2.516   6.028   2.365  0.4173 -0.3649  1.2770
 5697TIP3    H138506   2.523   6.097   2.432 -0.8309 -1.0755  2.1841
 5697TIP3    H238507   2.576   5.960   2.395  0.0573 -0.5683  1.5511
 5698TIP3   OH238508   4.212   0.434  14.141  0.0030  0.3340  0.3762
 5698TIP3    H138509   4.294   0.420  14.188 -0.3236  1.2999  1.2768
 5698TIP3    H238510   4.144   0.422  14.207 -0.3832  3.6508  0.7396
 5699TIP3   OH238511   5.284   2.648  12.447 -0.2274 -0.6070  0.2663
 5699TIP3    H138512   5.288   2.593  12.525 -1.4434 -2.8033 -1.0909
 5699TIP3    H238513   5.365   2.629  12.400 -1.1478 -2.2766 -0.7629
 5700TIP3   OH238514   4.711   4.345  11.013  0.1299 -0.2822  0.4632
 5700TIP3    H138515   4.757   4.279  11.066  2.2732  0.8257  0.0902
 5700TIP3    H238516   4.717   4.311  10.923  0.4011 -0.0577  0.3942
 5701TIP3   OH238517   1.905   2.354   3.413 -0.0057  0.2416 -0.1079
 5701TIP3    H138518   1.953   2.287   3.364  0.7971  0.4947  0.3171
 5701TIP3    H238519   1.898   2.320   3.502  0.5434  0.7791  0.1491
 5702TIP3   OH238520   0.219   3.349  11.999  0.6050  0.0557 -0.0359
 5702TIP3    H138521   0.289   3.415  11.995  0.5593  0.0923 -0.2700
 5702TIP3    H238522   0.249   3.278  11.942  0.5563 -0.0301  0.0445
 5703TIP3   OH238523   0.583   3.924  14.699 -0.1363 -0.5905 -0.0905
 5703TIP3    H138524   0.492   3.905  14.720 -0.4244 -0.0052 -0.7631
 5703TIP3    H238525   0.579   3.982  14.623  0.8098 -0.9887 -0.4640
 5704TIP3   OH238526   2.916   5.573  14.308  0.3469  0.4657 -0.1395
 5704TIP3    H138527   2.968   5.643  14.267 -0.6330  0.2143 -1.9036
 5704TIP3    H238528   2.964   5.552  14.388  1.5929  1.9678 -0.4368
 5705TIP3   OH238529   4.529   5.305  15.065 -0.0524 -0.3896  0.4934
 5705TIP3    H138530   4.596   5.356  15.110 -0.9592  0.9161  0.4215
 5705TIP3    H238531   4.563   5.292  14.977 -0.9160  2.5139 -0.3747
 5706TIP3   OH238532   2.543   4.029   3.875 -0.2222  0.1385  0.6384
 5706TIP3    H138533   2.479   3.965   3.905 -0.8633 -0.0366 -1.0374
 5706TIP3    H238534   2.563   4.004   3.785  1.4572  0.7937  0.7936
 5707TIP3   OH238535   6.020   5.945  17.132 -0.2459  0.0183 -0.4634
 5707TIP3    H138536   5.987   5.882  17.196 -1.1927  1.3744  0.4636
 5707TIP3    H238537   5.998   5.907  17.047  0.5287 -1.5601  0.0108
 5708TIP3   OH238538   0.726   6.499   1.817 -0.1343  0.1950  0.1107
 5708TIP3    H138539   0.807   6.550   1.812 -0.3046  0.3984 -0.8152
 5708TIP3    H238540   0.682   6.531   1.896  1.7937 -1.6239  2.0777
 5709TIP3   OH238541   5.175   4.567  15.415  0.2041 -0.2175 -0.5219
 5709TIP3    H138542   5.213   4.643  15.459 -0.1372 -0.7266  0.6782
 5709TIP3    H238543   5.108   4.604  15.357  0.1663  0.4063 -0.0867
 5710TIP3   OH238544   5.186   2.576   4.147  0.9737  0.2297 -0.5125
 5710TIP3    H138545   5.100   2.609   4.119  1.9984  1.6079 -2.2083
 5710TIP3    H238546   5.206   2.506   4.086  0.6672 -0.7562  0.4837
 5711TIP3   OH238547   4.491   2.133   3.188 -0.0655 -0.6321  0.4562
 5711TIP3    H138548   4.490   2.081   3.269  0.3419 -0.8838  0.3053
 5711TIP3    H238549   4.518   2.070   3.121 -1.3075 -0.6556 -0.0431
 5712TIP3   OH238550   2.360   3.472  14.269 -0.4863  0.2760 -0.1811
 5712TIP3    H138551   2.322   3.440  14.351 -1.2050 -2.4789 -1.4717
 5712TIP3    H238552   2.325   3.560  14.259 -0.2586  0.7664  2.4856
 5713TIP3   OH238553   1.039   2.961   5.819 -0.0276  0.3045  0.5317
 5713TIP3    H138554   1.127   2.957   5.782  0.5260 -0.6998  1.8703
 5713TIP3    H238555   1.050   3.010   5.901 -1.0461  1.6307 -0.0856
 5714TIP3   OH238556   0.609   1.721  15.767  0.3632  0.3991 -0.3263
 5714TIP3    H138557   0.687   1.775  15.753  0.3831 -0.0513 -2.4377
 5714TIP3    H238558   0.635   1.634  15.735 -0.8790  0.1508 -0.7119
 5715TIP3   OH238559   5.776   5.070   5.466  0.0264 -0.5232 -0.1770
 5715TIP3    H138560   5.785   5.053   5.372 -2.3300  0.3957 -0.6287
 5715TIP3    H238561   5.772   5.165   5.473 -0.2455 -0.6024  0.8109
 5716TIP3   OH238562   2.151   4.064  17.092  0.9014  0.0981 -0.0518
 5716TIP3    H138563   2.192   3.980  17.112  0.3029 -0.0641  0.5136
 5716TIP3    H238564   2.222   4.117  17.055  2.0274  0.3288  2.2631
 5717TIP3   OH238565   1.136   0.840   1.177  0.5976  0.1906 -0.0757
 5717TIP3    H138566   1.219   0.848   1.129  0.2522 -0.5497 -0.8073
 5717TIP3    H238567   1.081   0.785   1.122 -0.8122  1.5893 -0.1490
 5718TIP3   OH238568   3.545   1.665   0.307  0.0117 -0.1396 -0.6318
 5718TIP3    H138569   3.490   1.708   0.372  0.5994 -0.2112 -0.0845
 5718TIP3    H238570   3.602   1.607   0.357  1.9639  1.3920 -0.9782
 5719TIP3   OH238571   6.493   6.747  12.217 -0.0169 -0.1590 -0.0410
 5719TIP3    H138572   6.466   6.670  12.268 -1.4083 -0.6967 -1.5005
 5719TIP3    H238573   6.529   6.711  12.136 -0.7173  0.7073 -0.7547
 5720TIP3   OH238574   1.047   3.480  15.192 -0.2002 -0.4614 -0.4139
 5720TIP3    H138575   1.083   3.565  15.170 -1.4852 -0.2962 -2.0799
 5720TIP3    H238576   1.098   3.418  15.140  0.4655 -0.7005  0.4886
 5721TIP3   OH238577   0.905   5.897  12.732  1.1005  0.2525  0.2227
 5721TIP3    H138578   0.938   5.979  12.770 -0.3232 -0.3409  2.9680
 5721TIP3    H238579   0.958   5.829  12.771 -0.2607 -0.3684  1.0683
 5722TIP3   OH238580   1.609   3.551  14.536 -0.2548 -0.2371 -0.3340
 5722TIP3    H138581   1.557   3.526  14.612 -0.6484 -0.4506 -0.6724
 5722TIP3    H238582   1.554   3.612  14.487  0.0933  0.0909 -0.3223
 5723TIP3   OH238583   2.972   2.589  15.951  0.3404 -0.0696  0.5214
 5723TIP3    H138584   2.922   2.597  16.032  1.5201 -1.9814  1.5240
 5723TIP3    H238585   2.978   2.678  15.917 -0.7151  0.6921  2.2088
 5724TIP3   OH238586   4.944   4.484   2.260 -0.2549 -0.1530 -0.1452
 5724TIP3    H138587   4.975   4.570   2.230 -0.2344 -0.4014 -0.8452
 5724TIP3    H238588   4.896   4.504   2.340  1.8150  0.2158  1.0742
 5725TIP3   OH238589   0.819   6.360  15.295 -0.3711  0.1419  0.2530
 5725TIP3    H138590   0.910   6.383  15.314 -0.5043  0.6395  0.2926
 5725TIP3    H238591   0.768   6.420  15.348 -0.7246 -0.5673  0.7418
 5726TIP3   OH238592   6.072   5.840  13.970  0.3314 -0.5594 -0.3185
 5726TIP3    H138593   6.162   5.867  13.950  0.2829 -0.9890 -1.1731
 5726TIP3    H238594   6.042   5.902  14.036  0.4454  1.0820 -1.7320
 5727TIP3   OH238595   2.716   5.470  12.800 -0.6330  0.0913  0.1836
 5727TIP3    H138596   2.747   5.534  12.736  0.0701 -0.2586  0.1664
 5727TIP3    H238597   2.699   5.522  12.879  1.4041  0.1106  0.6575
 5728TIP3   OH238598   5.515   3.960  11.806  0.3377 -0.5371  0.2796
 5728TIP3    H138599   5.519   4.009  11.724  1.4489 -1.4678 -0.2485
 5728TIP3    H238600   5.555   4.019  11.871  1.4677 -0.6221 -0.3044
 5729TIP3   OH238601   3.283   6.750  14.599 -0.1006 -0.8421  0.1381
 5729TIP3    H138602   3.342   6.799  14.655 -1.0072 -0.1543  0.5129
 5729TIP3    H238603   3.284   6.661  14.635 -0.5006 -0.4656  1.1185
 5730TIP3   OH238604   6.604   4.383   1.559 -0.2720  0.4308  0.4341
 5730TIP3    H138605   6.611   4.390   1.464  1.0537  1.6983  0.5966
 5730TIP3    H238606   6.594   4.289   1.575 -1.4440  0.2740 -0.9780
 5731TIP3   OH238607   0.250   2.919   2.254 -0.1857 -0.1932 -0.1612
 5731TIP3    H138608   0.206   2.834   2.261 -0.7289  0.0687 -0.2809
 5731TIP3    H238609   0.235   2.946   2.164  0.4381 -0.2076 -0.2699
 5732TIP3   OH238610   3.203   4.148   5.693  0.0235  0.7296 -0.1850
 5732TIP3    H138611   3.131   4.102   5.649 -0.2679  2.6906 -1.9566
 5732TIP3    H238612   3.278   4.090   5.682 -0.4025  0.4413 -2.0103
 5733TIP3   OH238613   5.896   1.750  15.454 -0.3078 -0.2498 -0.8243
 5733TIP3    H138614   5.920   1.667  15.412  2.0237 -0.3659  0.5582
 5733TIP3    H238615   5.834   1.726  15.523 -0.7429 -0.6393 -1.3462
 5734TIP3   OH238616   2.868   5.374  12.542  0.3661  0.7171  0.2852
 5734TIP3    H138617   2.857   5.468  12.557 -0.8702  0.7039 -0.4038
 5734TIP3    H238618   2.936   5.347  12.604  1.3613  2.2236 -0.1268
 5735TIP3   OH238619   0.843   2.635  14.202  0.1172  0.3415 -0.5378
 5735TIP3    H138620   0.851   2.719  14.247 -1.2826 -0.4483  1.3357
 5735TIP3    H238621   0.929   2.619  14.164  1.0736  1.5449  1.0299
 5736TIP3   OH238622   0.753   4.824  13.148  0.0265 -0.3794 -0.2778
 5736TIP3    H138623   0.726   4.846  13.237  0.3003 -0.5113 -0.1626
 5736TIP3    H238624   0.785   4.906  13.111  0.7706 -0.5173  0.0533
 5737TIP3   OH238625   0.999   5.835   0.015 -0.1136 -0.3274 -0.0221
 5737TIP3    H138626   1.000   5.752  -0.033 -0.9421 -0.1445 -0.3767
 5737TIP3    H238627   1.073   5.885  -0.020 -0.4352 -0.3772 -0.7859
 5738TIP3   OH238628   1.807   1.106  16.311  0.5653  0.1472 -0.0914
 5738TIP3    H138629   1.850   1.188  16.334 -2.8145  2.6648 -1.8151
 5738TIP3    H238630   1.728   1.104  16.365  0.9964 -2.5665  0.5994
 5739TIP3   OH238631   2.403   5.549   6.772  0.1952 -0.2560  0.1596
 5739TIP3    H138632   2.398   5.633   6.818 -0.5662 -0.7905  1.0883
 5739TIP3    H238633   2.471   5.563   6.705 -0.3830  1.2908 -0.1530
 5740TIP3   OH238634   5.651   6.641  11.394  0.0900 -0.0374 -0.6839
 5740TIP3    H138635   5.611   6.712  11.344 -0.6898 -0.8745 -1.2648
 5740TIP3    H238636   5.682   6.683  11.474 -2.2034  0.5837 -0.0704
 5741TIP3   OH238637   5.222   0.959   1.331 -0.3935  0.0805  0.0261
 5741TIP3    H138638   5.255   0.871   1.350  0.6434  0.0648 -1.6137
 5741TIP3    H238639   5.128   0.949   1.322 -0.1626 -1.1367 -1.3660
 5742TIP3   OH238640   0.452   2.639  15.308  0.1338  0.0886 -0.4388
 5742TIP3    H138641   0.394   2.714  15.322  0.7000  0.6955 -1.2847
 5742TIP3    H238642   0.538   2.678  15.291  0.5797 -0.7748 -0.2010
 5743TIP3   OH238643   1.313   5.583   3.843  0.2344  0.4808  0.4431
 5743TIP3    H138644   1.283   5.651   3.903 -2.0842  1.1406 -1.3433
 5743TIP3    H238645   1.360   5.631   3.775  0.4051  0.0481  0.2540
 5744TIP3   OH238646   2.892   4.970  10.343  0.2648  0.1107  0.1329
 5744TIP3    H138647   2.859   4.883  10.322 -0.2688  0.4244 -0.3511
 5744TIP3    H238648   2.819   5.029  10.322  0.7087  0.6922  0.2100
 5745TIP3   OH238649   6.143   0.082   4.502 -0.1420 -0.2147 -0.3726
 5745TIP3    H138650   6.067   0.076   4.444 -1.3528  0.1643  1.1193
 5745TIP3    H238651   6.106   0.097   4.589  1.6742  0.6370  0.3007
 5746TIP3   OH238652   3.093   6.636  15.594  0.0599  0.0514 -0.2732
 5746TIP3    H138653   3.103   6.594  15.680  0.0890 -1.6412 -1.0645
 5746TIP3    H238654   3.055   6.722  15.613 -1.9989 -1.1097  1.2976
 5747TIP3   OH238655   6.500   1.486   0.011  0.4748 -0.4613  0.4716
 5747TIP3    H138656   6.501   1.394   0.036 -1.6349 -0.6941 -0.1502
 5747TIP3    H238657   6.448   1.529   0.078 -1.0411 -0.2647 -0.7639
 5748TIP3   OH238658   3.219   4.548  16.454  0.7623 -0.8489  0.6305
 5748TIP3    H138659   3.243   4.605  16.528 -0.4418  0.8467 -0.2191
 5748TIP3    H238660   3.157   4.486  16.491  0.5844 -0.3607  1.1807
 5749TIP3   OH238661   5.978   5.693  15.222 -0.3635  0.2186  0.3478
 5749TIP3    H138662   5.934   5.761  15.171 -1.2608 -0.3141  0.3799
 5749TIP3    H238663   5.979   5.727  15.312  1.0002  1.0510  0.0336
 5750TIP3   OH238664   0.778   0.488  14.799 -0.0991 -0.0488  0.4830
 5750TIP3    H138665   0.849   0.479  14.864  0.1963 -0.3511  0.1217
 5750TIP3    H238666   0.801   0.427  14.730 -0.8597 -0.3416  0.4793
 5751TIP3   OH238667   2.218   2.006  12.077 -0.1461  0.3974  0.1373
 5751TIP3    H138668   2.308   2.028  12.099 -0.7673  1.8594  1.3927
 5751TIP3    H238669   2.222   1.976  11.986  1.8736 -1.5893  0.8027
 5752TIP3   OH238670   1.280   0.763  12.964  0.2984  0.2276  0.2972
 5752TIP3    H138671   1.294   0.855  12.986 -1.3253  0.5161  0.2188
 5752TIP3    H238672   1.200   0.762  12.912 -0.6851 -1.3935  1.7172
 5753TIP3   OH238673   5.778   1.770  15.742  0.1513 -0.4353  0.0005
 5753TIP3    H138674   5.834   1.847  15.750 -0.2314  0.2116 -2.5282
 5753TIP3    H238675   5.689   1.806  15.741  0.0060 -0.6543 -2.4713
 5754TIP3   OH238676   0.992   2.771  14.547 -0.4616  0.4651 -0.2358
 5754TIP3    H138677   1.033   2.857  14.545 -1.0083  0.7761  1.0553
 5754TIP3    H238678   1.064   2.710  14.528 -0.0706  1.1905 -1.1660
 5755TIP3   OH238679   0.338   5.641   4.782 -0.1794 -0.0731  0.2669
 5755TIP3    H138680   0.420   5.655   4.829  0.0330  3.4400 -0.8471
 5755TIP3    H238681   0.361   5.578   4.713  1.4152  0.3054  0.3977
 5756TIP3   OH238682   0.935   5.866   3.385  0.3994 -0.1066  0.0456
 5756TIP3    H138683   1.010   5.832   3.434  1.8036 -0.4117 -2.1683
 5756TIP3    H238684   0.886   5.788   3.358  1.2888 -0.1888 -1.4658
 5757TIP3   OH238685   4.169   3.825  16.814 -0.0198  0.5626 -0.0749
 5757TIP3    H138686   4.108   3.895  16.790  1.1039  1.0829 -1.5241
 5757TIP3    H238687   4.222   3.811  16.736  0.0315 -1.6732  0.2852
 5758TIP3   OH238688   1.676   6.025   0.996  0.4004 -0.1744 -0.1003
 5758TIP3    H138689   1.650   6.071   0.916  0.1970 -1.2967 -0.7014
 5758TIP3    H238690   1.594   5.992   1.033  0.5296  0.0404  0.3825
 5759TIP3   OH238691   6.134   0.758  12.828 -0.4259  0.1639 -0.1188
 5759TIP3    H138692   6.085   0.737  12.908 -0.2028 -0.3943 -0.1227
 5759TIP3    H238693   6.072   0.806  12.774  0.0334  2.4683  1.2587
 5760TIP3   OH238694   3.023   6.489  15.263 -0.0637  0.3485  0.7039
 5760TIP3    H138695   3.016   6.513  15.171  0.2802  0.1897  0.6352
 5760TIP3    H238696   3.071   6.561  15.303 -0.5237  0.5912  0.8333
 5761TIP3   OH238697   5.692   6.011   4.541 -0.2522  0.2023 -0.2359
 5761TIP3    H138698   5.734   6.051   4.617  0.0288  0.4981 -0.5450
 5761TIP3    H238699   5.619   5.961   4.578  0.2395 -0.1495  0.2903
 5762TIP3   OH238700   1.426   0.799  16.669  0.7449 -0.1675 -0.2763
 5762TIP3    H138701   1.494   0.854  16.708  0.8178  1.0105 -1.9383
 5762TIP3    H238702   1.351   0.809  16.727  1.2225  0.5085  0.2446
 5763TIP3   OH238703   0.357   5.930   1.611 -0.4907  0.1152  0.2908
 5763TIP3    H138704   0.334   5.893   1.525  0.0026 -0.8784  0.5753
 5763TIP3    H238705   0.424   5.996   1.591  0.5094 -0.9534  0.0101
 5764TIP3   OH238706   6.421   4.926  13.739 -0.0724  0.3684 -0.0350
 5764TIP3    H138707   6.388   4.913  13.828  1.4593 -1.1804  0.3449
 5764TIP3    H238708   6.343   4.917  13.684 -0.6773 -1.0917  0.9880
 5765TIP3   OH238709   4.622   4.594  11.097  0.7063  0.0597  0.1706
 5765TIP3    H138710   4.668   4.526  11.048  2.2094  0.6885  0.6473
 5765TIP3    H238711   4.658   4.676  11.065 -0.3936  0.6027  0.2836
 5766TIP3   OH238712   0.609   5.288   3.488 -0.4919 -0.1163  0.2570
 5766TIP3    H138713   0.536   5.343   3.516  0.5494  1.7690 -0.4740
 5766TIP3    H238714   0.645   5.253   3.569 -1.8877 -0.6670  0.6575
 5767TIP3   OH238715   3.815   4.443  16.139 -0.4308  0.2896  0.4220
 5767TIP3    H138716   3.803   4.348  16.134  0.5285  0.2058 -0.6421
 5767TIP3    H238717   3.909   4.456  16.121 -0.8620  1.5451 -1.1263
 5768TIP3   OH238718   5.958   1.616   1.559  0.6703  0.3923 -0.0107
 5768TIP3    H138719   5.993   1.620   1.470  0.4721  1.2804 -0.0579
 5768TIP3    H238720   5.970   1.524   1.586 -0.7247 -0.2727 -1.5380
 5769TIP3   OH238721   6.680   5.288  16.532  0.1007  0.1760  0.0011
 5769TIP3    H138722   6.722   5.206  16.558  0.7327  0.1868 -0.9048
 5769TIP3    H238723   6.586   5.273  16.542 -0.1482 -2.0643 -3.7302
 5770TIP3   OH238724   2.724   6.493  14.668  0.1310  0.6165  0.6398
 5770TIP3    H138725   2.797   6.464  14.613 -2.2824 -2.9980 -1.0870
 5770TIP3    H238726   2.746   6.461  14.755  0.9482  0.1817  0.2813
 5771TIP3   OH238727   3.725   4.144   0.936 -0.6447 -0.2559  0.1800
 5771TIP3    H138728   3.691   4.215   0.882 -0.2574  0.0993  0.3953
 5771TIP3    H238729   3.787   4.098   0.879 -1.2367 -0.7182 -0.1124
 5772TIP3   OH238730   3.464   6.169  16.248  0.5417  0.2431  0.7979
 5772TIP3    H138731   3.492   6.082  16.278 -0.8558 -1.0038 -1.3169
 5772TIP3    H238732   3.546   6.219  16.243  1.6136 -1.4557  0.4607
 5773TIP3   OH238733   1.608   5.772   2.467  0.5486 -0.0151  0.0460
 5773TIP3    H138734   1.653   5.855   2.452  1.0647 -0.3744 -0.4349
 5773TIP3    H238735   1.657   5.708   2.415 -1.0027 -0.2767 -1.1689
 5774TIP3   OH238736   0.654   6.462  13.870 -0.5395  0.3898  0.5389
 5774TIP3    H138737   0.715   6.406  13.822 -0.1341  1.4526 -0.2428
 5774TIP3    H238738   0.692   6.470  13.957 -1.2309 -1.4853  1.0651
 5775TIP3   OH238739   5.520   1.893   6.058 -0.9266 -0.5699 -0.2757
 5775TIP3    H138740   5.578   1.960   6.093 -1.1853 -0.4408 -0.0863
 5775TIP3    H238741   5.555   1.810   6.090 -2.4146 -0.3326  2.1997
 5776TIP3   OH238742   3.740   1.274  14.178  0.0242 -0.0871  0.4169
 5776TIP3    H138743   3.673   1.254  14.244  0.4072 -0.1217  0.8063
 5776TIP3    H238744   3.820   1.288  14.230  0.4021 -0.4387 -0.0657
 5777TIP3   OH238745   5.529   6.034   3.599 -0.2268 -0.4093 -0.6688
 5777TIP3    H138746   5.480   5.963   3.557 -0.4557  0.8552 -2.6349
 5777TIP3    H238747   5.616   6.031   3.558  0.2321 -0.4257  0.2732
 5778TIP3   OH238748   0.028   4.069   0.990  0.4930 -0.3668 -0.3531
 5778TIP3    H138749  -0.003   3.979   0.978  1.6339 -0.9659  0.9842
 5778TIP3    H238750   0.096   4.080   0.924  0.2168 -0.4106 -0.6477
 5779TIP3   OH238751   1.153   2.884   2.798 -0.4502  0.7030  0.4577
 5779TIP3    H138752   1.209   2.863   2.873  0.2235 -1.8578 -0.6603
 5779TIP3    H238753   1.203   2.855   2.722 -2.6258 -0.2846 -0.6820
 5780TIP3   OH238754   4.456   0.460  12.978  0.0351 -0.5985  0.5012
 5780TIP3    H138755   4.399   0.532  13.004 -1.0366 -1.0447 -0.5122
 5780TIP3    H238756   4.396   0.389  12.954  1.0138 -1.1595 -0.4007
 5781TIP3   OH238757   5.197   3.099   4.719  0.3460  0.0837 -0.0643
 5781TIP3    H138758   5.288   3.078   4.700 -0.5496 -2.0013 -2.7313
 5781TIP3    H238759   5.150   3.080   4.637 -2.4175  1.6987  0.9930
 5782TIP3   OH238760   2.056   0.952   1.730 -0.1422  0.4835 -0.3966
 5782TIP3    H138761   2.017   0.950   1.817  0.0063  0.0034 -0.3328
 5782TIP3    H238762   2.097   1.038   1.724  1.3190 -0.0698  0.6924
 5783TIP3   OH238763   0.348   5.488   3.283 -0.0474  0.3851  0.3405
 5783TIP3    H138764   0.287   5.556   3.252 -0.1189  0.4571  0.6410
 5783TIP3    H238765   0.351   5.425   3.211 -0.5781  0.3133  0.3791
 5784TIP3   OH238766   4.177   1.265  12.050  0.1461 -0.2433  0.0904
 5784TIP3    H138767   4.175   1.263  12.146 -0.0796 -2.6398  0.1035
 5784TIP3    H238768   4.134   1.184  12.024  0.2434  0.3491 -2.0567
 5785TIP3   OH238769   1.649   5.660  14.644 -0.0363 -0.0466  0.1207
 5785TIP3    H138770   1.674   5.622  14.560 -1.4371 -0.0257 -0.3342
 5785TIP3    H238771   1.593   5.594  14.685  0.1604  0.1874  0.7900
 5786TIP3   OH238772   1.392   4.994   4.131 -0.3596 -0.0191  0.4009
 5786TIP3    H138773   1.322   4.932   4.155 -0.3094  0.0144  0.6354
 5786TIP3    H238774   1.449   4.995   4.207  0.4786 -0.8452 -0.1935
 5787TIP3   OH238775   2.237   1.672  13.972  0.0849  0.0977  0.0542
 5787TIP3    H138776   2.185   1.615  14.029  1.3611 -2.2184 -0.9264
 5787TIP3    H238777   2.276   1.736  14.031 -1.4010 -0.0252  1.2347
 5788TIP3   OH238778   0.605   0.323   0.488 -0.9591 -0.3080 -0.4361
 5788TIP3    H138779   0.615   0.353   0.578  0.5248 -2.7255  0.2861
 5788TIP3    H238780   0.549   0.246   0.494 -1.5895  0.0218 -1.7368
 5789TIP3   OH238781   3.166   6.572  14.009 -0.1434  0.0252 -0.0470
 5789TIP3    H138782   3.232   6.594  13.943 -0.0038  1.0934  0.4239
 5789TIP3    H238783   3.083   6.597  13.968 -0.0539  0.7201  0.1792
 5790TIP3   OH238784   2.369   2.182   4.085 -0.5876  0.2287  0.1137
 5790TIP3    H138785   2.420   2.107   4.053 -1.1907  0.1566 -0.7151
 5790TIP3    H238786   2.431   2.254   4.088 -0.0197 -0.2758  0.8283
 5791TIP3   OH238787   0.980   4.683  13.151  0.3318  0.1560 -0.0460
 5791TIP3    H138788   0.897   4.731  13.157 -0.2358 -0.8077 -0.0457
 5791TIP3    H238789   1.011   4.700  13.061 -0.4724 -0.4467 -0.4468
 5792TIP3   OH238790   2.685   1.090   5.050  0.2842  0.3631  0.5729
 5792TIP3    H138791   2.645   1.005   5.031 -1.1602  0.9588  0.8829
 5792TIP3    H238792   2.777   1.069   5.067  0.1314 -1.0352 -0.1642
 5793TIP3   OH238793   0.033   1.064   2.063  0.0403 -0.0933  0.6803
 5793TIP3    H138794   0.070   1.136   2.115  0.6837  0.2481 -0.2219
 5793TIP3    H238795   0.082   0.987   2.090  0.1508  0.0241  0.8179
 5794TIP3   OH238796   1.298   6.031  16.630 -0.2215 -0.0094 -0.1240
 5794TIP3    H138797   1.355   6.094  16.584 -0.2516 -0.2340 -0.4694
 5794TIP3    H238798   1.329   5.945  16.601 -2.4511 -0.1375 -2.4779
 5795TIP3   OH238799   1.731   3.873  14.849 -0.3617  0.3176  0.0324
 5795TIP3    H138800   1.712   3.870  14.755  0.4906  0.8735 -0.1666
 5795TIP3    H238801   1.772   3.958  14.863  0.1111 -0.0225  0.7980
 5796TIP3   OH238802   2.163   2.278  13.541  0.0048 -0.1928  0.4740
 5796TIP3    H138803   2.190   2.202  13.594 -1.7652 -0.3791  1.1707
 5796TIP3    H238804   2.193   2.353  13.592  0.5767 -0.3930  0.4490
 5797TIP3   OH238805   0.767   3.844   5.727  0.2299 -0.3846 -0.4207
 5797TIP3    H138806   0.777   3.897   5.648  0.7784  0.6174  0.2956
 5797TIP3    H238807   0.843   3.868   5.781 -1.0033  0.2358  1.1128
 5798TIP3   OH238808   3.468   1.183   2.012  0.5173 -0.2201  0.2438
 5798TIP3    H138809   3.467   1.244   1.938 -2.0959  0.0181  0.4115
 5798TIP3    H238810   3.561   1.174   2.033  1.1208  2.5303 -0.7516
 5799TIP3   OH238811   4.212   4.167  12.496 -0.0640  0.0861 -0.5920
 5799TIP3    H138812   4.125   4.166  12.457  0.1796 -1.5957 -1.1717
 5799TIP3    H238813   4.234   4.260  12.503 -2.1825  0.5813  0.2543
 5800TIP3   OH238814   0.765   2.433   2.492  0.3576 -0.1948  0.6600
 5800TIP3    H138815   0.805   2.496   2.432  0.5531 -0.6033  0.3568
 5800TIP3    H238816   0.831   2.364   2.503 -0.2240 -0.8350  0.2189
 5801TIP3   OH238817   1.521   3.397  13.906 -0.0362 -0.0907  0.1682
 5801TIP3    H138818   1.514   3.448  13.826 -0.1766 -1.0834 -0.4652
 5801TIP3    H238819   1.552   3.460  13.972  1.9913  0.3145 -1.0962
 5802TIP3   OH238820   2.058   5.871  13.240  0.3515 -0.0086 -0.5566
 5802TIP3    H138821   2.102   5.900  13.320  2.0222  0.0664 -1.4451
 5802TIP3    H238822   2.056   5.949  13.184  0.5971 -0.4259 -1.1598
 5803TIP3   OH238823   6.375   5.274   4.070 -0.1123  0.5260  0.1673
 5803TIP3    H138824   6.436   5.213   4.110  0.1256  0.1930 -0.6667
 5803TIP3    H238825   6.430   5.338   4.026 -0.3303 -0.0425 -0.9872
 5804TIP3   OH238826   2.907   1.490   2.244  0.3715 -0.5391 -0.2836
 5804TIP3    H138827   2.979   1.517   2.301  1.7966 -0.8429 -1.8714
 5804TIP3    H238828   2.904   1.395   2.252 -1.6714 -0.3622  1.8300
 5805TIP3   OH238829   4.527   0.823  16.439 -0.1867 -0.2814 -0.7039
 5805TIP3    H138830   4.543   0.917  16.447 -1.5927 -0.0521 -0.4928
 5805TIP3    H238831   4.449   0.807  16.492 -0.2618 -1.4777 -1.1600
 5806TIP3   OH238832   2.702   1.335  16.268 -0.2085  0.1182 -0.2099
 5806TIP3    H138833   2.746   1.251  16.260 -0.9594 -0.1996 -1.2586
 5806TIP3    H238834   2.719   1.363  16.358  0.8394 -0.7003 -0.1418
 5807TIP3   OH238835   3.848   4.999  12.741  0.2406  0.0107 -0.1553
 5807TIP3    H138836   3.912   5.056  12.698  1.8121 -0.6373  1.1994
 5807TIP3    H238837   3.887   4.912  12.739 -1.4919 -0.8000 -0.9613
 5808TIP3   OH238838   2.514   4.670   1.411  0.2991  0.0034  0.5568
 5808TIP3    H138839   2.444   4.625   1.458 -0.6468  0.7318 -0.1108
 5808TIP3    H238840   2.473   4.748   1.375  1.6779  0.9256  0.8853
 5809TIP3   OH238841   4.459   5.649  15.217 -0.0869  0.2955 -0.5222
 5809TIP3    H138842   4.512   5.573  15.240 -2.8278 -1.9924 -1.1747
 5809TIP3    H238843   4.409   5.669  15.296 -1.6896 -0.7116 -1.2289
 5810TIP3   OH238844   3.513   2.658  14.132  0.3924 -0.1720  0.3940
 5810TIP3    H138845   3.566   2.580  14.120  0.6053  0.1277 -0.6669
 5810TIP3    H238846   3.503   2.665  14.227  0.2407 -1.5568  0.4960
 5811TIP3   OH238847   1.771   1.952   0.492  0.0404 -0.2323  0.6422
 5811TIP3    H138848   1.716   1.962   0.569  0.6323 -0.6108  1.1215
 5811TIP3    H238849   1.857   1.981   0.520  0.2848 -0.4731  0.1562
 5812TIP3   OH238850   1.681   6.517   4.914  0.2478  0.4648 -0.4332
 5812TIP3    H138851   1.629   6.449   4.872  1.6430 -1.6559  0.9816
 5812TIP3    H238852   1.771   6.485   4.907  0.9535  2.1433  0.3857
 5813TIP3   OH238853   5.309   2.329   4.983 -0.3800  0.4286 -0.3105
 5813TIP3    H138854   5.399   2.298   4.987 -0.1078  1.3500  1.1966
 5813TIP3    H238855   5.313   2.411   4.934 -0.6016 -0.1230 -1.2874
 5814TIP3   OH238856   0.755   1.728  12.746 -0.1942 -0.6798 -0.4448
 5814TIP3    H138857   0.707   1.708  12.826  0.7833 -0.5433  0.1953
 5814TIP3    H238858   0.802   1.648  12.725  0.6737 -0.2912 -0.0569
 5815TIP3   OH238859   4.177   3.132  12.818  0.2179  0.2730 -0.3854
 5815TIP3    H138860   4.178   3.042  12.851  1.5321  0.5182  0.2896
 5815TIP3    H238861   4.198   3.124  12.725 -0.2638 -0.1589 -0.4618
 5816TIP3   OH238862   0.622   4.330   4.136  0.7892 -0.1577  0.1624
 5816TIP3    H138863   0.691   4.390   4.165 -0.3530  0.9318  0.7597
 5816TIP3    H238864   0.565   4.322   4.212 -0.4948  0.1010 -0.7494
 5817TIP3   OH238865   1.868   1.069  16.048  0.3237 -0.4972  0.6619
 5817TIP3    H138866   1.870   1.060  16.144  1.7722 -0.5337  0.6530
 5817TIP3    H238867   1.799   1.133  16.032 -0.7594 -1.3654  1.6450
 5818TIP3   OH238868   4.870   1.742  14.405  0.1960 -0.0896  0.1716
 5818TIP3    H138869   4.895   1.684  14.478  1.3432 -2.2249 -1.7825
 5818TIP3    H238870   4.947   1.798  14.393  1.0039 -1.3542 -0.8436
 5819TIP3   OH238871   1.673   5.055  12.017  0.1119  0.3532  0.0750
 5819TIP3    H138872   1.752   5.066  12.069  0.2960  0.3748 -0.2088
 5819TIP3    H238873   1.619   4.994  12.068  2.3403 -3.7740 -1.9177
 5820TIP3   OH238874   2.449   4.655   2.248 -0.1704 -0.7044 -0.8129
 5820TIP3    H138875   2.519   4.659   2.183  1.4131  1.0560  0.8746
 5820TIP3    H238876   2.464   4.572   2.294  1.4989  0.1270  0.2094
 5821TIP3   OH238877   2.002   2.482  12.552 -0.1849 -0.6474  0.1444
 5821TIP3    H138878   1.958   2.401  12.526 -1.3934  0.0511 -0.0133
 5821TIP3    H238879   2.091   2.454  12.575  0.0068 -1.7470 -1.7308
 5822TIP3   OH238880   4.570   0.008   2.751 -0.1247 -0.2403 -0.2517
 5822TIP3    H138881   4.500   0.068   2.727  0.7453  0.7568 -0.3268
 5822TIP3    H238882   4.642   0.064   2.779  0.6107 -1.2514 -0.0698
 5823TIP3   OH238883   6.127   0.539  14.533  0.1810  0.4562 -0.2279
 5823TIP3    H138884   6.194   0.539  14.601 -0.2982 -0.1918  0.2663
 5823TIP3    H238885   6.060   0.479  14.566  0.1268 -0.1961 -1.4546
 5824TIP3   OH238886   4.556   2.948  14.088 -0.1683 -0.0370 -0.1742
 5824TIP3    H138887   4.505   3.001  14.027 -0.1318 -1.2565 -1.3313
 5824TIP3    H238888   4.550   2.859  14.052  1.1396 -0.5316  0.7702
 5825TIP3   OH238889   2.799   6.238  16.781  0.2385  1.0571  0.0340
 5825TIP3    H138890   2.857   6.304  16.820  0.9491  0.1679  0.5298
 5825TIP3    H238891   2.849   6.157  16.785 -0.9766  0.2863  0.3248
 5826TIP3   OH238892   1.974   5.216  16.224  0.1352  0.1093  0.2743
 5826TIP3    H138893   1.892   5.177  16.254 -0.5231  0.1826 -1.3262
 5826TIP3    H238894   1.952   5.306  16.203  0.9621  0.5216  1.0879
 5827TIP3   OH238895   5.959   4.653  13.193 -0.4058 -0.3844  0.2840
 5827TIP3    H138896   5.943   4.566  13.157 -0.1769 -0.2131 -0.2475
 5827TIP3    H238897   6.050   4.651  13.222  0.8529  0.7876 -3.1289
 5828TIP3   OH238898   2.411   1.488   2.548  0.2303  0.4846  0.0117
 5828TIP3    H138899   2.316   1.490   2.536  0.3128  1.1765 -0.5769
 5828TIP3    H238900   2.444   1.448   2.467  0.2122 -3.7508  1.8587
 5829TIP3   OH238901   1.090   0.173   6.034 -0.7083 -0.5307 -0.4002
 5829TIP3    H138902   1.153   0.204   6.099 -1.3920  0.1297 -0.0301
 5829TIP3    H238903   1.117   0.083   6.015 -0.5252 -0.7557  0.8278
 5830TIP3   OH238904   6.157   3.559  11.827 -0.1017  0.6496 -0.5604
 5830TIP3    H138905   6.228   3.507  11.789 -1.0643 -0.8603 -0.3658
 5830TIP3    H238906   6.183   3.650  11.812  3.0581  0.2746  1.5944
 5831TIP3   OH238907   0.870   1.487   6.074 -0.6369 -0.9667 -0.3160
 5831TIP3    H138908   0.850   1.545   6.000 -0.5117 -0.7335 -0.1698
 5831TIP3    H238909   0.965   1.477   6.071 -0.6467 -1.0679 -0.2674
 5832TIP3   OH238910   1.975   2.724  11.387  0.5600  0.0889 -0.2137
 5832TIP3    H138911   1.980   2.629  11.398 -0.4507  0.0610  0.1536
 5832TIP3    H238912   1.890   2.748  11.424  0.7015  1.1111 -0.5075
 5833TIP3   OH238913   0.600   1.875  16.263  0.3010  0.0480 -0.6259
 5833TIP3    H138914   0.606   1.960  16.219  0.1248 -0.2205 -1.1742
 5833TIP3    H238915   0.650   1.816  16.207  3.1224  0.3772  1.2948
 5834TIP3   OH238916   0.793   5.308   5.010 -0.4951  0.6490 -0.2575
 5834TIP3    H138917   0.782   5.391   5.057 -0.3648  0.0182  0.9135
 5834TIP3    H238918   0.856   5.259   5.063 -0.2343 -0.0306 -1.1733
 5835TIP3   OH238919   1.195   5.813  16.384 -0.0828 -0.2358  0.4267
 5835TIP3    H138920   1.282   5.813  16.424 -0.6599  0.4679  1.7357
 5835TIP3    H238921   1.182   5.903  16.354 -0.2796 -0.3860  0.0521
 5836TIP3   OH238922   2.109   4.586   0.329  0.3923 -0.2831 -0.0476
 5836TIP3    H138923   2.169   4.512   0.323  2.1624  1.0682  0.3548
 5836TIP3    H238924   2.139   4.635   0.406  0.4155  1.8231 -1.3188
 5837TIP3   OH238925   5.219   3.898  12.939 -0.1842  0.0794 -0.0793
 5837TIP3    H138926   5.238   3.814  12.980 -2.5473  0.4123  1.8993
 5837TIP3    H238927   5.281   3.959  12.979 -1.2011  0.0291  1.6309
 5838TIP3   OH238928   1.622   5.115   3.055 -0.0020 -0.1642 -0.0581
 5838TIP3    H138929   1.594   5.024   3.066  1.5465 -0.6817 -0.1531
 5838TIP3    H238930   1.681   5.130   3.129  1.4065  0.0656 -1.1931
 5839TIP3   OH238931   6.028   0.553   1.982  0.4863  0.2545 -0.1330
 5839TIP3    H138932   6.106   0.521   1.937 -0.1309  0.5461 -1.4679
 5839TIP3    H238933   5.956   0.533   1.922 -0.4793  0.0045  1.0600
 5840TIP3   OH238934   2.639   5.774   0.195  0.0828 -0.6823  0.6415
 5840TIP3    H138935   2.723   5.809   0.225 -0.9035  2.7560 -0.1732
 5840TIP3    H238936   2.643   5.781   0.100 -1.3951  0.3326  0.6249
 5841TIP3   OH238937   4.251   3.477  13.816  0.3551  0.2534  0.4797
 5841TIP3    H138938   4.208   3.396  13.842 -1.4950  1.8671  2.8621
 5841TIP3    H238939   4.188   3.520  13.758  0.6452  0.6964  0.4854
 5842TIP3   OH238940   5.573   6.453  14.381 -0.0936  0.5742  0.3402
 5842TIP3    H138941   5.594   6.457  14.288 -0.3090  0.0283  0.2643
 5842TIP3    H238942   5.535   6.539  14.400  0.9491  1.0815  0.1793
 5843TIP3   OH238943   0.931   3.291  16.126 -0.2903  0.4978 -0.0973
 5843TIP3    H138944   0.991   3.226  16.163 -0.3737  0.1080 -0.6187
 5843TIP3    H238945   0.985   3.369  16.113 -0.3661  0.7854  1.2262
 5844TIP3   OH238946   0.006   4.053   0.266 -0.5340 -0.0110  0.0130
 5844TIP3    H138947   0.045   4.001   0.196 -0.6508 -2.0943  1.4147
 5844TIP3    H238948  -0.066   3.999   0.299  0.2169  0.3918  2.4860
 5845TIP3   OH238949   2.085   4.611   3.400  0.6260 -0.5564 -0.1307
 5845TIP3    H138950   2.057   4.643   3.486 -0.8043  0.7559 -1.0561
 5845TIP3    H238951   2.181   4.607   3.407  0.6119  0.6246  1.1434
 5846TIP3   OH238952   5.525   1.440  14.991  0.5382  0.5755 -0.2422
 5846TIP3    H138953   5.537   1.349  14.963 -1.7615  0.0741  0.1866
 5846TIP3    H238954   5.434   1.444  15.022  0.6935  2.9384  0.1108
 5847TIP3   OH238955   3.275   5.274  12.194  0.1691 -0.4474 -0.2429
 5847TIP3    H138956   3.347   5.316  12.241  1.0647 -1.5536 -0.5557
 5847TIP3    H238957   3.247   5.338  12.130  1.5282 -0.3165 -0.7437
 5848TIP3   OH238958   5.426   2.869  12.562 -0.0005 -0.0904  0.4249
 5848TIP3    H138959   5.407   2.956  12.528 -1.1690 -0.4062  0.2284
 5848TIP3    H238960   5.375   2.810  12.506 -0.5405 -0.7573  1.5825
 5849TIP3   OH238961   4.834   2.439   0.302 -0.2123  0.2722 -0.3698
 5849TIP3    H138962   4.903   2.374   0.313  0.3437  0.9270  0.0175
 5849TIP3    H238963   4.875   2.510   0.253 -0.1275  1.3907  1.2438
 5850TIP3   OH238964   0.994   5.798   0.295  0.0746  0.6938 -0.3583
 5850TIP3    H138965   1.075   5.748   0.292  1.0201  2.1374  0.2415
 5850TIP3    H238966   0.984   5.833   0.206 -0.7819 -0.7826 -0.8838
 5851TIP3   OH238967   4.435   5.481   0.413  0.6649  0.0918  1.0685
 5851TIP3    H138968   4.496   5.462   0.341  1.2023  0.8175  1.3146
 5851TIP3    H238969   4.435   5.577   0.418  0.0524  0.0680  1.5461
 5852TIP3   OH238970   1.996   1.566   0.027 -0.0469  0.0452 -0.0255
 5852TIP3    H138971   1.983   1.617   0.107  1.0113 -1.2491  1.0232
 5852TIP3    H238972   1.921   1.507   0.023  0.5877 -0.8369  0.7881
 5853TIP3   OH238973   6.579   6.716   0.592  0.1423  0.0562 -0.0189
 5853TIP3    H138974   6.574   6.811   0.597  2.6296  0.2056  2.2462
 5853TIP3    H238975   6.564   6.686   0.682 -0.5757 -1.7319 -0.6698
 5854TIP3   OH238976   1.112   2.274  11.316  0.1720  0.3053  0.2530
 5854TIP3    H138977   1.169   2.322  11.257 -0.4591  0.1352 -0.5095
 5854TIP3    H238978   1.035   2.253  11.263  0.8607 -2.4756  0.2308
 5855TIP3   OH238979   1.220   4.978   5.182 -0.3692  0.1947 -0.3953
 5855TIP3    H138980   1.268   4.899   5.160 -0.0152  0.6666 -1.3775
 5855TIP3    H238981   1.245   4.998   5.272  0.4940 -0.1237 -0.5579
 5856TIP3   OH238982   5.334   4.215   5.158  0.1043  0.2363  0.4764
 5856TIP3    H138983   5.289   4.297   5.139 -1.2002 -0.7503 -0.9294
 5856TIP3    H238984   5.427   4.235   5.147 -0.1897  1.5071  0.1724
 5857TIP3   OH238985   1.732   1.547  12.359  0.3815  0.1223  0.4258
 5857TIP3    H138986   1.792   1.472  12.361  0.6006  0.2535 -0.6382
 5857TIP3    H238987   1.789   1.623  12.366  0.4415  0.2772 -1.3505
 5858TIP3   OH238988   5.590   1.145   3.763 -0.5368  0.2180  0.5833
 5858TIP3    H138989   5.519   1.149   3.699  0.9947 -0.7304 -1.3149
 5858TIP3    H238990   5.618   1.236   3.773 -0.8137  0.3919 -0.1228
 5859TIP3   OH238991   4.494   6.752  11.148  0.1802 -0.0712  0.0059
 5859TIP3    H138992   4.463   6.666  11.120 -0.2579  0.3417 -0.8057
 5859TIP3    H238993   4.569   6.771  11.091  0.6335 -0.1615  0.5673
 5860TIP3   OH238994   1.062   3.219   3.544  0.9350 -0.3845 -0.2529
 5860TIP3    H138995   1.094   3.139   3.503 -0.5208 -1.5418  0.7744
 5860TIP3    H238996   1.025   3.191   3.627 -1.9471  0.9342 -0.9565
 5861TIP3   OH238997   6.262   6.099   3.268  0.2967  0.0465  0.2457
 5861TIP3    H138998   6.179   6.113   3.313  0.2034 -0.0538  0.1073
 5861TIP3    H238999   6.328   6.138   3.325  0.0650  0.9106 -0.0547
 5862TIP3   OH239000   3.949   3.127   1.278  0.3686 -0.1381 -0.1469
 5862TIP3    H139001   3.874   3.077   1.311  1.1825 -0.8425  0.6845
 5862TIP3    H239002   3.978   3.179   1.353  0.8792 -0.0724 -0.3842
 5863TIP3   OH239003   4.363   4.508  13.291 -0.4198  0.4331  0.2195
 5863TIP3    H139004   4.328   4.478  13.207  1.2083  0.2073 -0.4141
 5863TIP3    H239005   4.383   4.427  13.338 -0.7456  0.5571  0.5727
 5864TIP3   OH239006   0.590   3.589   0.984  0.1736 -0.0217  0.2820
 5864TIP3    H139007   0.644   3.511   0.972  0.4993  0.4182 -1.5437
 5864TIP3    H239008   0.642   3.660   0.945 -1.0843  0.6700 -0.1980
 5865TIP3   OH239009   4.234   4.826   2.374 -0.3669  0.6426 -0.3450
 5865TIP3    H139010   4.256   4.873   2.454  3.0173  1.9326 -1.8484
 5865TIP3    H239011   4.287   4.747   2.377 -0.2324  0.6841 -1.2439
 5866TIP3   OH239012   4.506   4.743  14.505 -0.7506  0.5255 -0.7969
 5866TIP3    H139013   4.592   4.724  14.469 -1.0235 -1.4952 -0.5453
 5866TIP3    H239014   4.518   4.820  14.560  1.3120 -0.6847  0.5793
 5867TIP3   OH239015   1.100   5.228  12.772 -0.1888  0.2256 -0.1146
 5867TIP3    H139016   1.076   5.317  12.748  0.1125  0.4048  0.2305
 5867TIP3    H239017   1.196   5.229  12.775 -0.2082  0.1587  0.8676
 5868TIP3   OH239018   3.106   1.077   1.671 -0.0538 -0.2866  0.3686
 5868TIP3    H139019   3.021   1.113   1.644  0.2534  0.3895  0.2847
 5868TIP3    H239020   3.167   1.111   1.606  0.1580 -1.4825 -0.0920
 5869TIP3   OH239021   0.126   0.639  14.529 -0.1625 -0.1888  0.0480
 5869TIP3    H139022   0.050   0.598  14.570  0.1928  0.8116  1.7952
 5869TIP3    H239023   0.199   0.617  14.587  0.1188  2.4430  0.7976
 5870TIP3   OH239024   3.893   1.823  13.945 -0.4666  0.0463  0.0081
 5870TIP3    H139025   3.833   1.896  13.960  0.3554  0.7092  0.1001
 5870TIP3    H239026   3.853   1.773  13.874 -1.4076  0.1646  0.4377
 5871TIP3   OH239027   4.680   6.602   4.541 -0.6538  0.2702 -0.1298
 5871TIP3    H139028   4.637   6.516   4.534 -0.2813  0.0250  0.5320
 5871TIP3    H239029   4.725   6.600   4.625  0.4191  0.6330 -0.6659
 5872TIP3   OH239030   6.703   3.887  14.703 -0.1813  0.0253  0.4240
 5872TIP3    H139031   6.633   3.845  14.653 -1.2066  0.8735  1.0941
 5872TIP3    H239032   6.784   3.863  14.658 -1.0176  0.1640 -1.1925
 5873TIP3   OH239033   6.333   0.188   3.891  0.2366  0.1368 -0.3252
 5873TIP3    H139034   6.264   0.141   3.844 -0.1030 -0.6090  0.8865
 5873TIP3    H239035   6.411   0.134   3.880  0.2142  0.0842 -0.2230
 5874TIP3   OH239036   4.992   4.714  14.871 -0.1607  0.3331 -0.0151
 5874TIP3    H139037   5.068   4.747  14.918 -2.0069  1.7202  2.2419
 5874TIP3    H239038   4.963   4.788  14.818  0.2817 -0.3337 -1.2177
 5875TIP3   OH239039   0.778   4.171   0.221 -1.0269  0.4668 -0.2532
 5875TIP3    H139040   0.773   4.207   0.310 -0.9772  0.2962 -0.1804
 5875TIP3    H239041   0.725   4.230   0.168  2.1374  2.9993 -0.9178
 5876TIP3   OH239042   3.014   0.626  17.194  0.3293  0.2813 -0.5005
 5876TIP3    H139043   2.921   0.605  17.199 -0.0150  1.9173  0.7814
 5876TIP3    H239044   3.051   0.559  17.136 -1.3713 -1.2222  0.0845
 5877TIP3   OH239045   6.507   3.131  16.741  0.0252  0.3691 -0.3969
 5877TIP3    H139046   6.449   3.190  16.693 -1.4934 -0.8024 -0.0590
 5877TIP3    H239047   6.495   3.154  16.833  1.2775  1.1257 -0.3911
 5878TIP3   OH239048   5.075   3.407  14.598 -0.1839  0.2461 -0.0471
 5878TIP3    H139049   4.983   3.391  14.578  0.4622 -2.1556 -1.5516
 5878TIP3    H239050   5.083   3.389  14.691 -1.0710 -0.5124 -0.1065
 5879TIP3   OH239051   1.778   5.611  15.981 -0.2353  0.3201 -0.0625
 5879TIP3    H139052   1.705   5.589  15.924  0.1234  0.8092 -0.7214
 5879TIP3    H239053   1.752   5.578  16.068 -0.9719 -0.0284 -0.4104
 5880TIP3   OH239054   2.358   3.296   5.985 -0.2141 -0.9250 -0.3957
 5880TIP3    H139055   2.337   3.260   6.072 -1.4362 -2.7843 -1.3991
 5880TIP3    H239056   2.389   3.385   6.004 -1.1740 -0.9825  1.8947
 5881TIP3   OH239057   6.101   5.831  12.669  0.3024 -0.3661 -0.0023
 5881TIP3    H139058   6.071   5.742  12.655  0.1211 -0.1392 -1.1376
 5881TIP3    H239059   6.044   5.885  12.614  1.9833  0.1838 -1.3187
 5882TIP3   OH239060   0.186   2.980  12.661 -0.0475 -0.3769  0.1127
 5882TIP3    H139061   0.136   2.986  12.742  2.6707 -0.5007  1.9237
 5882TIP3    H239062   0.151   2.902  12.617 -1.6164 -0.2734  1.0883
 5883TIP3   OH239063   5.011   4.528  15.096 -0.0960 -0.1253  0.0059
 5883TIP3    H139064   5.104   4.529  15.119  0.1729 -2.0162 -0.7667
 5883TIP3    H239065   5.004   4.587  15.021  0.1199  1.4152  1.1634
 5884TIP3   OH239066   6.010   5.420  14.992  0.1031  0.2999 -0.0847
 5884TIP3    H139067   5.964   5.502  14.971  0.7102  0.2741 -1.6777
 5884TIP3    H239068   6.064   5.442  15.067  0.6439  1.5354 -0.7972
 5885TIP3   OH239069   4.317   3.599   2.928 -0.1051  0.1060 -0.6222
 5885TIP3    H139070   4.240   3.630   2.881  0.0267 -0.6379 -1.3501
 5885TIP3    H239071   4.328   3.661   3.000 -1.5376  0.0606 -0.3377
 5886TIP3   OH239072   3.520   3.791   2.567  0.2636 -0.3542  0.0046
 5886TIP3    H139073   3.522   3.829   2.479 -0.3988 -1.0998 -0.3434
 5886TIP3    H239074   3.562   3.705   2.557 -0.7204 -0.8674  0.1892
 5887TIP3   OH239075   3.378   1.693   6.270  0.1890  0.4403 -0.0942
 5887TIP3    H139076   3.307   1.705   6.333  0.9586  2.7773  0.4293
 5887TIP3    H239077   3.336   1.698   6.185 -0.6783 -1.4282  0.1748
 5888TIP3   OH239078   3.678   4.224   1.609 -0.3430  0.4485  0.9671
 5888TIP3    H139079   3.585   4.248   1.604 -0.4013  0.1206  0.1679
 5888TIP3    H239080   3.702   4.239   1.700 -0.6357  2.4862  0.7591
 5889TIP3   OH239081   1.664   5.796   0.568 -0.0006  0.1494 -0.7334
 5889TIP3    H139082   1.664   5.711   0.612 -1.5758  0.8504  0.7485
 5889TIP3    H239083   1.600   5.848   0.616 -1.4712  1.1840 -3.5572
 5890TIP3   OH239084   4.520   6.513   1.720  0.0862 -0.2747  0.5039
 5890TIP3    H139085   4.585   6.575   1.752  1.2175 -1.2078  0.1018
 5890TIP3    H239086   4.449   6.517   1.784  0.7623  0.4094  1.2316
 5891TIP3   OH239087   3.939   4.706  12.836 -0.2650  0.5827  0.0969
 5891TIP3    H139088   4.024   4.734  12.870 -0.1037 -0.7746  0.8943
 5891TIP3    H239089   3.949   4.710  12.740  1.3158 -1.1270  0.1143
 5892TIP3   OH239090   4.492   4.010  10.924  0.4145 -0.1150  0.1328
 5892TIP3    H139091   4.456   3.937  10.873 -1.9883  1.4018 -0.4883
 5892TIP3    H239092   4.587   3.995  10.922  0.0429 -3.1085 -0.0784
 5893TIP3   OH239093   6.733   6.468  15.390 -0.1956 -0.0678  0.6738
 5893TIP3    H139094   6.674   6.543  15.395  0.0734  0.1085  1.2178
 5893TIP3    H239095   6.679   6.393  15.415 -0.0037  0.1949  1.9283
 5894TIP3   OH239096   2.625   4.208  11.350 -0.5707 -0.5562  0.4512
 5894TIP3    H139097   2.536   4.172  11.354 -1.0235  0.1567 -1.9983
 5894TIP3    H239098   2.612   4.303  11.344  0.4336 -0.3472  1.2241
 5895TIP3   OH239099   2.401   4.122   0.394 -0.2498 -0.7365 -0.1950
 5895TIP3    H139100   2.329   4.108   0.455 -1.0244 -2.9379 -1.5176
 5895TIP3    H239101   2.480   4.099   0.444 -0.7862 -1.5953  0.2830
 5896TIP3   OH239102   5.023   0.878  12.692 -0.0904  0.4152 -0.2870
 5896TIP3    H139103   5.064   0.796  12.719  2.3797  1.4159 -0.7556
 5896TIP3    H239104   5.040   0.938  12.764 -1.3727  0.7140 -0.2059
 5897TIP3   OH239105   2.494   1.111   4.512  0.0665 -0.3457 -0.2546
 5897TIP3    H139106   2.401   1.122   4.531 -0.2121  2.0780 -2.3551
 5897TIP3    H239107   2.539   1.136   4.593 -1.0930  0.9764  0.0148
 5898TIP3   OH239108   3.046   5.962  15.684 -0.1496 -0.0712  0.2823
 5898TIP3    H139109   3.003   6.029  15.737  0.8922  0.2768  0.7190
 5898TIP3    H239110   3.045   5.996  15.595  0.3471  0.5189  0.4976
 5899TIP3   OH239111   0.424   1.130   4.110 -0.1402 -0.2973  0.5010
 5899TIP3    H139112   0.501   1.179   4.083 -1.8371  1.9772 -0.5902
 5899TIP3    H239113   0.433   1.044   4.068  1.4422  0.1645 -0.1585
 5900TIP3   OH239114   3.632   0.535   4.711  0.5036 -0.2867 -0.1471
 5900TIP3    H139115   3.652   0.617   4.756 -0.0465  0.7136 -1.6659
 5900TIP3    H239116   3.599   0.561   4.625 -2.1512 -1.9857  0.2208
 5901TIP3   OH239117   1.013   3.896   5.308  0.3076 -0.3527 -0.2277
 5901TIP3    H139118   1.058   3.978   5.289  2.1004 -1.1517  0.3606
 5901TIP3    H239119   1.048   3.833   5.245 -0.8528 -0.7540 -0.5031
 5902TIP3   OH239120   6.559   1.414   4.619  0.2178 -0.3003 -0.2808
 5902TIP3    H139121   6.549   1.338   4.677 -0.8318 -1.0366 -1.3759
 5902TIP3    H239122   6.509   1.483   4.662  0.4370 -0.4843  0.2833
 5903TIP3   OH239123   0.647   1.391   5.811  0.1959 -0.3502  0.6051
 5903TIP3    H139124   0.692   1.319   5.855 -0.0303 -1.1309 -0.4082
 5903TIP3    H239125   0.554   1.373   5.822  0.1270  0.3143  1.1779
 5904TIP3   OH239126   1.823   1.631  15.576  0.1318 -0.2094  0.5213
 5904TIP3    H139127   1.808   1.722  15.605  0.4416  0.4603 -1.2807
 5904TIP3    H239128   1.918   1.622  15.576  0.1333 -1.7255  3.9479
 5905TIP3   OH239129   6.303   3.436   5.679 -0.2677  0.1814  0.2381
 5905TIP3    H139130   6.320   3.479   5.595  0.6120  0.7522  0.7023
 5905TIP3    H239131   6.289   3.508   5.741  0.4323 -0.2036  0.8594
 5906TIP3   OH239132   0.512   0.543   3.318 -0.0765  0.9774  0.3943
 5906TIP3    H139133   0.535   0.492   3.241  0.4971 -0.3863  1.4240
 5906TIP3    H239134   0.552   0.496   3.391 -2.3373  1.0204  1.7791
 5907TIP3   OH239135   3.162   2.429   0.427  0.0991  0.0876  0.2521
 5907TIP3    H139136   3.120   2.513   0.448  2.5133  1.4941 -0.1136
 5907TIP3    H239137   3.252   2.453   0.402  0.3042 -2.4301 -1.8447
 5908TIP3   OH239138   0.467   3.094   0.683 -0.1395  0.2241  0.4176
 5908TIP3    H139139   0.504   3.156   0.745  0.7390  0.1608 -0.0245
 5908TIP3    H239140   0.400   3.047   0.733  0.1792  0.5412  1.1620
 5909TIP3   OH239141   5.309   3.773  12.111  0.0074 -0.7971 -0.3741
 5909TIP3    H139142   5.270   3.762  12.198 -1.5384 -1.3509 -1.0998
 5909TIP3    H239143   5.375   3.704  12.105  0.7731 -0.1912  0.6746
 5910TIP3   OH239144   1.601   4.008   4.031 -0.1311  0.1839  0.1276
 5910TIP3    H139145   1.623   4.009   3.938  0.8123 -1.4053  0.2891
 5910TIP3    H239146   1.679   4.043   4.074 -0.3252  0.3458  0.3460
 5911TIP3   OH239147   1.484   5.545   0.335 -0.0152 -0.2997 -0.2727
 5911TIP3    H139148   1.540   5.621   0.351  1.0246 -1.1036  0.0236
 5911TIP3    H239149   1.537   5.488   0.278 -1.1734 -0.3619 -1.3306
 5912TIP3   OH239150   3.117   4.558  14.093 -0.2433  0.3633  0.3256
 5912TIP3    H139151   3.023   4.568  14.084 -0.5599 -1.4627  1.2167
 5912TIP3    H239152   3.130   4.533  14.185  1.0267 -0.1103  0.0422
 5913TIP3   OH239153   3.077   2.723  14.401  0.0012  0.4604 -0.0963
 5913TIP3    H139154   3.138   2.650  14.392  1.0675  1.3011  0.0468
 5913TIP3    H239155   3.122   2.797  14.360 -1.1426  0.9968 -0.4329
 5914TIP3   OH239156   1.813   0.883   2.475 -0.1674 -0.2749 -0.8636
 5914TIP3    H139157   1.817   0.967   2.430  1.2849  0.1656  0.0257
 5914TIP3    H239158   1.819   0.818   2.404  1.1262  0.3990 -1.4025
 5915TIP3   OH239159   0.120   3.326  10.808 -0.0166  0.4618  0.6226
 5915TIP3    H139160   0.106   3.271  10.885 -0.7833 -1.4810 -0.7988
 5915TIP3    H239161   0.214   3.319  10.790  0.0240  0.2362  0.9170
 5916TIP3   OH239162   1.984   0.717  13.818  0.5374 -0.3723 -0.1642
 5916TIP3    H139163   2.010   0.629  13.846 -1.0531 -0.5253  0.9611
 5916TIP3    H239164   2.036   0.776  13.874  1.9383 -0.5432 -1.2274
 5917TIP3   OH239165   5.837   1.147   2.276 -0.1422 -0.0925 -0.4174
 5917TIP3    H139166   5.781   1.187   2.209  0.2686  0.8861 -0.1997
 5917TIP3    H239167   5.854   1.218   2.338 -1.2321 -1.1911  1.2321
 5918TIP3   OH239168   0.397   4.847   0.910  0.0221  0.0794 -0.1998
 5918TIP3    H139169   0.425   4.766   0.868  0.0848 -0.1336  0.2432
 5918TIP3    H239170   0.368   4.902   0.838 -2.2229 -1.1917 -0.3818
 5919TIP3   OH239171   3.749   1.581   4.428  0.2973 -0.0956  0.3109
 5919TIP3    H139172   3.715   1.492   4.420 -0.8956  0.2842  0.9796
 5919TIP3    H239173   3.839   1.570   4.458 -0.2889 -1.0520  1.8286
 5920TIP3   OH239174   4.270   6.564  16.549  0.1258  0.0567  0.1154
 5920TIP3    H139175   4.316   6.596  16.471 -0.2189 -1.3549 -0.7075
 5920TIP3    H239176   4.184   6.604  16.544 -0.0999 -0.5012 -0.5727
 5921TIP3   OH239177   1.291   1.757   6.041 -0.2675  0.2303  0.7278
 5921TIP3    H139178   1.331   1.803   6.114 -1.7010  0.9029  1.1244
 5921TIP3    H239179   1.345   1.780   5.965 -1.0090  2.7370  0.8737
 5922TIP3   OH239180   5.329   2.237   2.682 -0.0672  0.4767  0.7554
 5922TIP3    H139181   5.240   2.201   2.678 -0.7755  2.0346  1.4475
 5922TIP3    H239182   5.342   2.277   2.596  1.1269 -2.1897 -0.4019
 5923TIP3   OH239183   5.377   4.181  15.160  0.1203 -0.2990  0.2042
 5923TIP3    H139184   5.420   4.130  15.091  1.6457 -0.2172  1.0531
 5923TIP3    H239185   5.430   4.165  15.238 -0.1952  1.4655  0.8143
 5924TIP3   OH239186   1.725   5.437  11.619 -0.3487  0.3765  0.9559
 5924TIP3    H139187   1.646   5.487  11.599  0.5389  0.9012 -1.6177
 5924TIP3    H239188   1.797   5.497  11.599  0.7181 -1.2131 -0.2468
 5925TIP3   OH239189   2.102   6.182  12.186 -0.3846  0.3997 -0.2141
 5925TIP3    H139190   2.065   6.256  12.235 -0.0311  1.0204 -0.8672
 5925TIP3    H239191   2.030   6.119  12.181  0.0624 -0.4427  2.5599
 5926TIP3   OH239192   3.646   2.316   0.300  0.0358  0.0474 -0.1122
 5926TIP3    H139193   3.707   2.284   0.234  0.4531 -1.3020  0.8709
 5926TIP3    H239194   3.560   2.315   0.257  0.2066 -1.4134 -0.4704
 5927TIP3   OH239195   5.059   1.401   5.580  0.2366 -0.0201 -0.7398
 5927TIP3    H139196   4.997   1.335   5.612  0.0360  0.1573 -0.7589
 5927TIP3    H239197   5.004   1.470   5.543  0.2459  1.6444  2.0309
 5928TIP3   OH239198   1.024   4.221   0.576  0.3240 -0.1143  0.5843
 5928TIP3    H139199   1.001   4.300   0.527 -1.1307 -1.0263 -0.2902
 5928TIP3    H239200   0.969   4.223   0.653  0.1356 -0.3721  0.4577
 5929TIP3   OH239201   4.102   5.130   0.834  0.5916  0.2320 -0.3957
 5929TIP3    H139202   4.177   5.190   0.826 -0.0115  1.0395 -0.1933
 5929TIP3    H239203   4.133   5.048   0.798  1.7388  0.4107  0.1345
 5930TIP3   OH239204   2.574   1.476  12.994 -0.2272  0.2155 -0.0868
 5930TIP3    H139205   2.593   1.388  12.962  3.2508  1.4255 -1.8986
 5930TIP3    H239206   2.520   1.515  12.925 -0.3137  0.0317 -0.1227
 5931TIP3   OH239207   0.430   4.947   5.074  0.7197  0.6237 -0.0616
 5931TIP3    H139208   0.521   4.972   5.057  0.6023  0.2682 -1.3167
 5931TIP3    H239209   0.429   4.851   5.067  0.0179  0.7031 -1.3500
 5932TIP3   OH239210   5.107   0.202   5.697  0.1095  0.3986  0.9713
 5932TIP3    H139211   5.067   0.138   5.756  2.2384 -0.7708  1.2464
 5932TIP3    H239212   5.135   0.151   5.621 -0.9586  1.5833 -0.2864
 5933TIP3   OH239213   2.050   4.962   1.190  0.2678  0.1471 -0.3837
 5933TIP3    H139214   2.049   5.057   1.198  0.6672  0.1449 -0.2889
 5933TIP3    H239215   2.117   4.933   1.252  0.3300 -0.1802 -0.6015
 5934TIP3   OH239216   2.561   1.709  16.178 -0.6930  0.4201  0.2993
 5934TIP3    H139217   2.512   1.650  16.120 -1.1345  1.8274 -0.8225
 5934TIP3    H239218   2.632   1.655  16.212 -0.4298 -0.5013 -1.5471
 5935TIP3   OH239219   3.949   5.326   2.990  0.1151  0.0991  0.5799
 5935TIP3    H139220   3.937   5.412   2.949  0.7011 -0.1003 -0.0341
 5935TIP3    H239221   3.896   5.267   2.936  0.6474 -0.1146  0.2815
 5936TIP3   OH239222   3.386   6.365  12.685 -0.1832 -0.1835 -0.2717
 5936TIP3    H139223   3.422   6.301  12.747 -1.6393 -0.6563  0.1302
 5936TIP3    H239224   3.413   6.332  12.599  2.6412  0.9825  0.0842
 5937TIP3   OH239225   3.147   3.064   2.812 -0.6356  0.5338  0.0190
 5937TIP3    H139226   3.223   3.010   2.791 -0.3365  1.0979 -0.3707
 5937TIP3    H239227   3.072   3.008   2.794 -0.3152 -0.1888  0.8560
 5938TIP3   OH239228   1.329   4.578  11.233 -0.5160  0.1267  0.0291
 5938TIP3    H139229   1.400   4.584  11.170  0.7890 -2.1894  1.1495
 5938TIP3    H239230   1.278   4.502  11.205  0.1468 -1.0054  1.7204
 5939TIP3   OH239231   4.222   3.142  16.701  0.0223 -0.0281 -0.0789
 5939TIP3    H139232   4.140   3.187  16.721  0.6825  0.1998  2.4041
 5939TIP3    H239233   4.198   3.049  16.697 -0.8690  0.2268 -2.6425
 5940TIP3   OH239234   4.218   4.768   0.950 -0.0588  0.2015 -0.1364
 5940TIP3    H139235   4.236   4.675   0.963  2.6395  0.7876  1.1419
 5940TIP3    H239236   4.209   4.778   0.856  2.6205 -0.9894 -0.6107
 5941TIP3   OH239237   0.802   5.849   5.697  0.1945 -0.2788  0.4023
 5941TIP3    H139238   0.721   5.808   5.729 -0.4569 -0.3560 -1.2148
 5941TIP3    H239239   0.772   5.927   5.649  1.2976  1.2031  2.0024
 5942TIP3   OH239240   0.121   1.007  14.551  0.7975 -0.0249 -0.2014
 5942TIP3    H139241   0.189   0.947  14.582  0.2473 -0.3875  0.3319
 5942TIP3    H239242   0.167   1.089  14.536  1.8531 -0.9215 -2.3019
 5943TIP3   OH239243   6.649   4.312  16.999 -0.0877  0.0193 -0.2432
 5943TIP3    H139244   6.730   4.362  16.984 -0.1203  0.5820  1.2462
 5943TIP3    H239245   6.583   4.378  17.020 -0.0431 -0.5901  2.1699
 5944TIP3   OH239246   3.721   3.729   2.804  0.6289 -0.4120  0.1081
 5944TIP3    H139247   3.716   3.743   2.899  0.7782  0.1439  0.0366
 5944TIP3    H239248   3.631   3.742   2.773  0.7983  0.5985  0.0188
 5945TIP3   OH239249   0.947   4.743   0.980 -0.6200  0.2172  0.4286
 5945TIP3    H139250   0.890   4.796   0.923 -0.9474 -0.7380 -0.1548
 5945TIP3    H239251   0.993   4.685   0.920  0.7262  0.7205  0.9334
 5946TIP3   OH239252   4.096   0.817   5.096  0.1598 -0.1644  0.1198
 5946TIP3    H139253   4.062   0.837   5.183 -1.0947  0.5162 -0.5123
 5946TIP3    H239254   4.168   0.756   5.113 -0.7758 -0.9321  1.5579
 5947TIP3   OH239255   5.663   6.561  15.540  0.3418 -0.2500 -0.4345
 5947TIP3    H139256   5.678   6.515  15.457  2.0229  0.1560 -0.3854
 5947TIP3    H239257   5.595   6.625  15.519 -0.3836 -1.1919 -1.0839
 5948TIP3   OH239258   6.271   4.521   1.648 -0.1616 -0.2647  0.5967
 5948TIP3    H139259   6.257   4.446   1.590 -2.3888  1.3597 -1.1638
 5948TIP3    H239260   6.312   4.587   1.592 -0.9934  0.8464  1.2531
 5949TIP3   OH239261   4.859   3.985  16.392 -0.0368  0.3910  0.3579
 5949TIP3    H139262   4.950   4.011  16.401 -0.1774  1.8357 -1.6684
 5949TIP3    H239263   4.852   3.904  16.442  2.6139 -0.3268 -0.2731
 5950TIP3   OH239264   0.266   5.638   5.759 -0.1560 -0.1230  0.1832
 5950TIP3    H139265   0.240   5.729   5.771 -1.9076 -0.5631  0.0384
 5950TIP3    H239266   0.273   5.627   5.664  2.1189  0.3617  0.2533
 5951TIP3   OH239267   2.686   4.094  12.969  0.3483  0.2335  0.0913
 5951TIP3    H139268   2.600   4.092  12.927 -0.4080  1.2618  1.4805
 5951TIP3    H239269   2.678   4.164  13.034  3.0413  2.1126 -1.4138
 5952TIP3   OH239270   3.370   3.969  13.033  0.2182 -0.1241  0.1154
 5952TIP3    H139271   3.344   3.968  12.941 -0.2846 -1.7912  0.2405
 5952TIP3    H239272   3.441   3.906  13.039  0.5883  0.3400  0.7983
 5953TIP3   OH239273   2.329   1.362  12.782  0.3414 -0.1356 -0.3213
 5953TIP3    H139274   2.370   1.299  12.840 -0.4620  0.0622  0.4906
 5953TIP3    H239275   2.358   1.337  12.694 -0.3470 -1.9438 -0.0745
 5954TIP3   OH239276   5.307   0.069   0.273  0.4320 -0.1475  0.4569
 5954TIP3    H139277   5.297   0.164   0.279 -2.0749 -0.4249  2.0065
 5954TIP3    H239278   5.291   0.037   0.362 -2.7946 -2.2424 -0.6842
 5955TIP3   OH239279   4.860   1.232  15.455 -0.1845  0.1454 -0.3413
 5955TIP3    H139280   4.776   1.263  15.423 -0.8541  0.5306  1.6274
 5955TIP3    H239281   4.838   1.168  15.523  1.1305 -3.9850 -3.3300
 5956TIP3   OH239282   5.899   5.612   3.094 -0.0905  0.0568 -0.1274
 5956TIP3    H139283   5.827   5.549   3.097 -0.0601  0.0537  0.9155
 5956TIP3    H239284   5.952   5.591   3.171  0.4966  0.6796 -0.3571
 5957TIP3   OH239285   2.867   4.232   1.530 -0.4697  0.2313  0.5212
 5957TIP3    H139286   2.914   4.287   1.468  0.8870  1.0784  2.1978
 5957TIP3    H239287   2.819   4.294   1.586 -4.0513 -0.6005 -1.3245
 5958TIP3   OH239288   3.637   3.109   2.122 -0.1156  0.2933  0.4837
 5958TIP3    H139289   3.549   3.071   2.124 -0.5752  1.3426  1.4067
 5958TIP3    H239290   3.639   3.160   2.041 -0.5791  0.7218  0.7311
 5959TIP3   OH239291   1.497   5.382   2.657 -0.4289 -0.1083 -0.1636
 5959TIP3    H139292   1.410   5.414   2.634 -0.3954 -1.2887 -2.2085
 5959TIP3    H239293   1.490   5.359   2.750 -2.0529  0.5441 -0.0841
 5960TIP3   OH239294   6.294   1.637  16.919 -0.0090 -0.0044 -0.4772
 5960TIP3    H139295   6.302   1.615  16.826 -0.6923  0.1038 -0.5625
 5960TIP3    H239296   6.267   1.729  16.920  0.5206  0.1479 -0.1595
 5961TIP3   OH239297   1.281   1.433   5.239 -0.0766 -0.0987 -0.0449
 5961TIP3    H139298   1.313   1.523   5.236  1.0199 -0.3840 -4.4450
 5961TIP3    H239299   1.186   1.441   5.233 -0.0667  0.7198  0.6672
 5962TIP3   OH239300   0.043   4.824   2.155  0.1683 -0.2461 -0.7785
 5962TIP3    H139301   0.092   4.898   2.120  0.0516  0.9168  1.3360
 5962TIP3    H239302   0.079   4.810   2.242 -2.2738 -0.2183  0.3307
 5963TIP3   OH239303   3.935   0.163   2.554  0.8998  0.4454 -0.1342
 5963TIP3    H139304   3.913   0.130   2.467 -0.8020  1.2056 -0.0199
 5963TIP3    H239305   4.030   0.175   2.552  0.8279  0.9617 -2.0766
 5964TIP3   OH239306   5.127   5.009   0.865  0.2871 -0.9406  0.1162
 5964TIP3    H139307   5.083   5.039   0.945 -0.3523  0.6312 -0.7703
 5964TIP3    H239308   5.219   5.031   0.879 -0.0982  1.1546 -0.3193
 5965TIP3   OH239309   3.946   1.179  13.648  0.2663 -0.0320 -0.6370
 5965TIP3    H139310   3.943   1.124  13.570  1.3178  0.2597 -0.9009
 5965TIP3    H239311   3.995   1.257  13.621  0.5253  0.1370  0.2722
 5966TIP3   OH239312   3.368   1.779  14.178 -0.2282  0.2902  0.0446
 5966TIP3    H139313   3.331   1.815  14.259  1.7817  1.2495  0.6083
 5966TIP3    H239314   3.297   1.786  14.114 -1.0464  1.9725  1.0646
 5967TIP3   OH239315   5.604   6.025   0.627 -0.6922  0.7469 -0.3970
 5967TIP3    H139316   5.653   6.040   0.546  1.7211 -0.3373  0.7353
 5967TIP3    H239317   5.587   5.931   0.627 -2.3568  1.0280 -0.4919
 5968TIP3   OH239318   2.272   2.117   5.682  0.6786 -0.3750 -0.1091
 5968TIP3    H139319   2.331   2.144   5.612  0.4291  0.8781  0.1434
 5968TIP3    H239320   2.228   2.197   5.709  0.1508 -0.9846  0.9141
 5969TIP3   OH239321   4.019   0.443   1.028 -0.0484  0.1456  0.2487
 5969TIP3    H139322   4.046   0.353   1.013 -1.9768 -0.2504 -1.3467
 5969TIP3    H239323   4.098   0.495   1.014  0.5730 -1.1250 -1.2753
 5970TIP3   OH239324   4.179   3.834   4.098 -0.5265 -0.1461 -0.4012
 5970TIP3    H139325   4.118   3.829   4.172 -0.2131 -0.3720 -0.1519
 5970TIP3    H239326   4.234   3.756   4.108  1.7719  1.5282  1.1149
 5971TIP3   OH239327   0.118   4.764   0.796 -0.5295  0.1345  0.1094
 5971TIP3    H139328   0.065   4.714   0.734 -1.3810  1.6901 -0.4841
 5971TIP3    H239329   0.176   4.699   0.836 -2.4186 -1.5313  0.3058
 5972TIP3   OH239330   4.021   4.297  14.845 -0.2182  0.6747 -0.3546
 5972TIP3    H139331   3.931   4.280  14.819  0.0373  0.9323 -1.4740
 5972TIP3    H239332   4.020   4.292  14.941 -1.5076  1.1099 -0.3259
 5973TIP3   OH239333   3.321   4.953  16.275  0.4399  0.6013 -0.6624
 5973TIP3    H139334   3.280   5.039  16.287 -0.3375  0.0927  0.4751
 5973TIP3    H239335   3.247   4.892  16.270  1.0057 -0.0787 -0.8141
 5974TIP3   OH239336   0.883   1.664  11.173  0.1506  0.3287  0.1684
 5974TIP3    H139337   0.975   1.672  11.146  0.3567 -1.7355  0.1191
 5974TIP3    H239338   0.842   1.614  11.103 -0.5382 -0.5246  1.1536
 5975TIP3   OH239339   3.476   6.502  13.671 -0.1193  0.2840  0.1598
 5975TIP3    H139340   3.426   6.551  13.736 -0.4372 -0.0345  0.1560
 5975TIP3    H239341   3.440   6.531  13.587  0.1138  0.5006  0.1313
 5976TIP3   OH239342   5.264   2.326  16.333  1.0539 -0.0670  0.1841
 5976TIP3    H139343   5.307   2.273  16.400  1.6115  1.0460  0.7280
 5976TIP3    H239344   5.283   2.417  16.358  3.8025  0.4510 -3.0542
 5977TIP3   OH239345   6.160   3.842  13.400 -0.3086 -0.4145 -0.7028
 5977TIP3    H139346   6.136   3.823  13.491  1.0372 -1.0991 -0.4657
 5977TIP3    H239347   6.213   3.921  13.405 -0.8558 -0.0194 -0.9972
 5978TIP3   OH239348   4.891   1.624   2.511  0.3703  0.0164  0.0663
 5978TIP3    H139349   4.868   1.598   2.600 -0.1312 -0.2504 -0.1392
 5978TIP3    H239350   4.971   1.574   2.492  0.9317  0.6642  0.6432
 5979TIP3   OH239351   3.930   5.158   1.062 -0.5321 -0.5889  0.2383
 5979TIP3    H139352   3.977   5.184   0.983  0.0102  0.7971  0.9803
 5979TIP3    H239353   3.964   5.071   1.083  0.9234 -0.0775  0.1309
 5980TIP3   OH239354   2.166   2.084  16.975  0.5762 -0.2112 -0.4432
 5980TIP3    H139355   2.181   1.990  16.978 -1.1466 -0.5107  2.0172
 5980TIP3    H239356   2.076   2.092  16.944  0.5939  0.5889 -0.3007
 5981TIP3   OH239357   0.508   1.455  16.524  0.2187 -0.3674  0.2185
 5981TIP3    H139358   0.520   1.461  16.619  1.9214 -1.2356  0.0930
 5981TIP3    H239359   0.547   1.535  16.489  2.5036 -1.4571  0.0843
 5982TIP3   OH239360   0.658   6.656  15.861 -0.3603 -0.2725 -0.1458
 5982TIP3    H139361   0.568   6.624  15.871 -0.5436  0.1640 -0.3635
 5982TIP3    H239362   0.686   6.678  15.950 -0.1349 -1.2693  0.0463
 5983TIP3   OH239363   2.672   3.924   4.450 -0.3159 -1.2230  0.7757
 5983TIP3    H139364   2.680   3.837   4.489 -1.0026 -2.2265 -1.1789
 5983TIP3    H239365   2.748   3.931   4.393 -0.7694 -0.9385  0.2059
 5984TIP3   OH239366   5.505   2.523   4.381 -0.0975 -0.5656  0.6316
 5984TIP3    H139367   5.508   2.612   4.347  1.5622 -0.8927 -0.1588
 5984TIP3    H239368   5.537   2.530   4.471 -0.1062 -0.3473  0.6167
 5985TIP3   OH239369   5.875   4.928  17.119  0.1938  0.0199 -0.1330
 5985TIP3    H139370   5.847   4.958  17.032 -2.4838  0.0283  0.6455
 5985TIP3    H239371   5.860   5.004  17.176 -0.1179 -0.6427  0.6848
 5986TIP3   OH239372   4.484   5.767   1.548 -0.0845 -0.0990 -0.0089
 5986TIP3    H139373   4.434   5.841   1.581  1.1835  1.1355 -0.7587
 5986TIP3    H239374   4.576   5.792   1.562  0.3721 -1.7421  0.1704
 5987TIP3   OH239375   0.683   2.827  15.502  0.2276  0.2756  0.1693
 5987TIP3    H139376   0.764   2.874  15.520  0.7048 -0.0730 -0.9988
 5987TIP3    H239377   0.646   2.871  15.425 -1.0789  0.8986  1.1233
 5988TIP3   OH239378   5.989   4.610  12.365 -0.2186 -0.4537 -0.5154
 5988TIP3    H139379   5.896   4.604  12.345 -0.8410  0.6284  1.7726
 5988TIP3    H239380   6.002   4.548  12.437  1.0301 -1.1808 -1.3261
 5989TIP3   OH239381   2.544   3.252   5.111 -0.4557  0.2636  0.3131
 5989TIP3    H139382   2.582   3.197   5.043  0.4482  0.2979  0.7662
 5989TIP3    H239383   2.466   3.205   5.140 -0.1000 -0.4208  0.1850
 5990TIP3   OH239384   5.958   2.022   2.597  0.2955 -0.2263 -0.4152
 5990TIP3    H139385   5.881   2.040   2.543  0.5386 -0.5158 -0.8669
 5990TIP3    H239386   5.958   2.090   2.664  0.0434  0.1957 -0.8430
 5991TIP3   OH239387   2.293   2.565  16.169 -0.1836  0.1854  0.4208
 5991TIP3    H139388   2.385   2.540  16.160 -0.2568  0.4604 -1.7222
 5991TIP3    H239389   2.252   2.491  16.213  1.0844  0.1839  1.6955
 5992TIP3   OH239390   4.004   5.060  17.099 -0.2412 -0.3140 -0.0975
 5992TIP3    H139391   3.968   4.984  17.052 -0.0954 -0.6011  0.2524
 5992TIP3    H239392   3.928   5.100  17.140 -0.5379  0.5486 -1.4083
 5993TIP3   OH239393   0.352   6.029  15.721 -1.5598  0.3833 -0.3828
 5993TIP3    H139394   0.412   6.052  15.651 -1.0853 -0.6914 -0.3444
 5993TIP3    H239395   0.322   6.113  15.756  1.6166  1.0400  1.0787
 5994TIP3   OH239396   1.036   1.212   0.084 -0.0972  0.1074  0.6767
 5994TIP3    H139397   1.057   1.191   0.175 -0.1653 -0.1502  0.6331
 5994TIP3    H239398   0.968   1.149   0.059  0.0128  0.0907  0.4071
 5995TIP3   OH239399   1.951   1.511   6.008  0.4055  0.1210 -0.3270
 5995TIP3    H139400   2.016   1.518   5.938  0.9867  0.5139  0.2459
 5995TIP3    H239401   1.987   1.446   6.068  0.1151  0.1067 -0.1639
 5996TIP3   OH239402   5.059   5.080   5.239 -0.1314  0.1096 -0.2242
 5996TIP3    H139403   4.999   5.019   5.282  1.0525 -0.1928  1.0641
 5996TIP3    H239404   5.102   5.126   5.311  2.5777 -1.0313 -1.0048
 5997TIP3   OH239405   6.187   1.502   4.689  0.2587  0.2818  0.2082
 5997TIP3    H139406   6.122   1.463   4.630 -0.1162 -1.5287  1.6977
 5997TIP3    H239407   6.160   1.593   4.697 -2.3629 -0.4493  0.9795
 5998TIP3   OH239408   4.523   3.023   1.690 -0.5748  0.2392  0.3668
 5998TIP3    H139409   4.473   2.944   1.710 -0.3360 -0.4288 -1.4475
 5998TIP3    H239410   4.457   3.093   1.689 -1.2576 -0.3840 -0.5535
 5999TIP3   OH239411   2.171   0.218  11.933 -0.5045 -0.4652  0.0678
 5999TIP3    H139412   2.259   0.179  11.939 -0.2091 -0.1910 -1.8300
 5999TIP3    H239413   2.163   0.271  12.012  1.1410 -0.3023  0.1634
 6000TIP3   OH239414   3.501   6.535   4.870 -0.2763  0.3659  0.4101
 6000TIP3    H139415   3.502   6.487   4.787 -0.0013  1.7783 -0.4371
 6000TIP3    H239416   3.590   6.526   4.904 -0.7042 -1.2945  1.2569
 6001TIP3   OH239417   1.768   0.711   2.872  0.5095 -0.4668 -0.1835
 6001TIP3    H139418   1.790   0.753   2.789  1.2290 -0.4970 -0.0159
 6001TIP3    H239419   1.852   0.700   2.916 -0.0553  2.1242  1.7785
 6002TIP3   OH239420   4.509   6.199   4.405  0.4318 -0.0949  0.4386
 6002TIP3    H139421   4.454   6.276   4.417  1.3229  0.5115  0.7663
 6002TIP3    H239422   4.548   6.183   4.492  2.1722  0.6173 -0.1534
 6003TIP3   OH239423   6.328   1.961  16.106  0.0334 -0.2829  0.5407
 6003TIP3    H139424   6.266   1.948  16.034 -0.5906  0.6562  0.8932
 6003TIP3    H239425   6.334   1.875  16.148 -0.7602 -0.4727  0.2813
 6004TIP3   OH239426   5.740   2.834   0.588  0.4984  0.2630 -0.0911
 6004TIP3    H139427   5.766   2.791   0.506  1.1538  4.7131 -2.5672
 6004TIP3    H239428   5.673   2.778   0.625  0.6876 -2.3644 -3.3215
 6005TIP3   OH239429   0.749   5.721  12.124  1.3429  0.2494 -0.7712
 6005TIP3    H139430   0.669   5.702  12.074  1.4919 -1.1608 -0.5241
 6005TIP3    H239431   0.746   5.660  12.198  1.0355  2.4056  1.1010
 6006TIP3   OH239432   5.687   6.741   4.845 -0.8036  0.6742  0.1501
 6006TIP3    H139433   5.657   6.650   4.849 -0.2191  0.5125  0.9873
 6006TIP3    H239434   5.666   6.777   4.931  2.7592  0.1021  1.4342
 6007TIP3   OH239435   2.613   4.216   6.183  0.2120  0.2498  0.0505
 6007TIP3    H139436   2.608   4.306   6.150  0.5649 -0.6605 -2.7070
 6007TIP3    H239437   2.703   4.188   6.166 -0.8001 -1.7784 -2.6396
 6008TIP3   OH239438   6.523   4.128  15.839  0.9283 -0.0304 -0.0388
 6008TIP3    H139439   6.499   4.089  15.756 -0.0677  0.5281 -0.0245
 6008TIP3    H239440   6.449   4.111  15.897  0.8336  1.1157  0.2082
 6009TIP3   OH239441   3.453   2.315   0.082 -0.0068  0.5054 -0.0213
 6009TIP3    H139442   3.368   2.360   0.082  0.4028  1.3183  0.9764
 6009TIP3    H239443   3.457   2.271  -0.003 -1.0298  1.2204 -0.4557
 6010TIP3   OH239444   3.260   3.132   4.689  0.0838  0.1511  0.7953
 6010TIP3    H139445   3.241   3.204   4.749 -0.3990  1.4453 -0.8161
 6010TIP3    H239446   3.350   3.148   4.660  0.2849 -0.4179  1.0844
 6011TIP3   OH239447   3.382   5.628  14.394  0.6205  0.2039 -0.4925
 6011TIP3    H139448   3.402   5.697  14.458 -3.8518  2.0343 -0.7123
 6011TIP3    H239449   3.377   5.674  14.311  0.5135 -0.9966 -1.1658
 6012TIP3   OH239450   5.962   6.014  11.405  0.5657 -0.1704 -0.8430
 6012TIP3    H139451   6.035   5.993  11.347  0.3343  0.6978 -1.4866
 6012TIP3    H239452   5.917   6.086  11.361 -0.5544 -0.5441 -0.3532
 6013TIP3   OH239453   5.056   2.706   0.323  0.4901 -0.7449 -0.0320
 6013TIP3    H139454   5.127   2.729   0.383 -0.7534 -1.2328  1.7070
 6013TIP3    H239455   5.082   2.745   0.239  2.8645 -1.0569  0.4923
 6014TIP3   OH239456   4.499   6.666  10.738  0.2284 -0.1625  0.2834
 6014TIP3    H139457   4.554   6.690  10.813  1.6334 -0.8187 -0.5150
 6014TIP3    H239458   4.417   6.713  10.754  1.6725  2.4963  0.5151
 6015TIP3   OH239459   2.117   2.315   2.067  0.6555  0.0941  0.3462
 6015TIP3    H139460   2.213   2.317   2.064  0.6270  0.5108 -0.3864
 6015TIP3    H239461   2.089   2.330   1.977 -0.1028 -0.1314  0.5321
 6016TIP3   OH239462   3.010   3.065  14.138  0.4373  0.3224 -0.4465
 6016TIP3    H139463   2.957   3.008  14.194  0.7471  0.1612 -0.3104
 6016TIP3    H239464   3.027   3.142  14.193 -1.6590  1.4787 -1.3221
 6017TIP3   OH239465   5.021   4.508   4.856 -0.2166 -0.0022  0.3183
 6017TIP3    H139466   5.068   4.590   4.847  0.8225 -0.2880  2.4807
 6017TIP3    H239467   4.937   4.523   4.813 -0.0416  2.1771  0.6464
 6018TIP3   OH239468   0.710   2.955  12.170 -0.2010 -0.1786  0.2268
 6018TIP3    H139469   0.663   2.961  12.253 -1.4905  1.1653 -0.5634
 6018TIP3    H239470   0.681   2.872  12.132 -0.1285 -0.4707  0.8021
 6019TIP3   OH239471   4.766   3.270  13.094 -0.6194  0.1581 -0.0357
 6019TIP3    H139472   4.675   3.298  13.103 -0.8741 -0.3848 -0.8666
 6019TIP3    H239473   4.771   3.191  13.148 -0.5296  0.4180  0.3414
 6020TIP3   OH239474   2.576   4.451   1.587  0.1817 -0.8294 -0.3749
 6020TIP3    H139475   2.655   4.460   1.639 -1.1286 -0.7693  1.7462
 6020TIP3    H239476   2.581   4.521   1.523  1.1337  0.1413  0.7145
 6021TIP3   OH239477   1.693   3.950   3.757 -0.2481 -0.0406  0.3214
 6021TIP3    H139478   1.768   4.009   3.754 -0.9989  1.0726  1.9041
 6021TIP3    H239479   1.639   3.976   3.682  0.1626  0.2525  0.1278
 6022TIP3   OH239480   2.762   2.496  11.925  0.0447 -0.2988  0.5282
 6022TIP3    H139481   2.800   2.450  11.850  1.3772  1.6830 -0.0880
 6022TIP3    H239482   2.690   2.548  11.887 -0.2190 -0.3944  0.8876
 6023TIP3   OH239483   5.992   5.756   4.525  0.4968 -0.2888 -0.0515
 6023TIP3    H139484   6.003   5.836   4.575  0.5368 -0.5901  0.4272
 6023TIP3    H239485   6.019   5.779   4.436  0.2157  0.3058  0.0125
 6024TIP3   OH239486   0.899   6.178  11.638  0.1357  0.0812 -0.3693
 6024TIP3    H139487   0.959   6.252  11.643 -2.3561  2.2341 -0.6862
 6024TIP3    H239488   0.939   6.120  11.573  3.3166 -0.0974  1.5352
 6025TIP3   OH239489   3.078   3.561   4.244 -0.2331 -0.4815 -0.2098
 6025TIP3    H139490   3.120   3.594   4.164 -1.7952  1.5898 -0.2265
 6025TIP3    H239491   2.984   3.566   4.226 -0.5892 -2.0541  0.9968
 6026TIP3   OH239492   2.039   2.921  11.747  0.2909  0.4709  0.3036
 6026TIP3    H139493   2.131   2.932  11.726  0.4482  0.0858  0.7863
 6026TIP3    H239494   2.038   2.878  11.832 -0.3349  1.2521  0.7027
 6027TIP3   OH239495   6.696   0.949  16.618  0.2559  0.1884 -0.2493
 6027TIP3    H139496   6.608   0.947  16.658  1.8209 -0.0440  3.6904
 6027TIP3    H239497   6.732   1.034  16.644  0.5903  1.2331 -3.6547
 6028TIP3   OH239498   3.825   5.987   3.615 -0.6112 -0.0022  0.5441
 6028TIP3    H139499   3.882   5.914   3.591  0.2808  1.2610 -1.5412
 6028TIP3    H239500   3.774   5.955   3.690  0.6510 -2.2604  0.5313
 6029TIP3   OH239501   4.307   0.485   2.148  0.4669  0.6330  0.4732
 6029TIP3    H139502   4.276   0.528   2.228 -0.8592 -1.0335  0.8989
 6029TIP3    H239503   4.228   0.474   2.095  0.9250 -0.5046  0.0134
 6030TIP3   OH239504   1.185   2.289   4.160 -0.6232 -0.3128  0.6219
 6030TIP3    H139505   1.183   2.383   4.139 -1.9705 -0.7775 -1.5768
 6030TIP3    H239506   1.104   2.254   4.123  0.7697 -2.7143 -0.4035
 6031TIP3   OH239507   5.336   0.347   2.176  0.7344  0.0327 -0.1648
 6031TIP3    H139508   5.320   0.332   2.083  2.4424 -0.1456 -0.4609
 6031TIP3    H239509   5.338   0.260   2.215 -1.4075  0.1543  0.3467
 6032TIP3   OH239510   1.385   1.899  16.261  0.6123  0.1635  0.0432
 6032TIP3    H139511   1.396   1.992  16.280  2.0427  0.0675 -0.2345
 6032TIP3    H239512   1.345   1.898  16.174  1.0811  0.5135 -0.1797
 6033TIP3   OH239513   5.224   2.279   4.034  0.0824 -0.2634 -0.3775
 6033TIP3    H139514   5.273   2.287   4.116  0.5565  2.0129 -0.7911
 6033TIP3    H239515   5.277   2.221   3.980 -0.7113 -2.5662  1.1839
 6034TIP3   OH239516   3.952   3.855   2.651 -0.5716 -0.0654  0.3139
 6034TIP3    H139517   3.927   3.945   2.631  0.2920  0.3402  0.9513
 6034TIP3    H239518   3.877   3.819   2.699 -0.2268  0.9152  1.6475
 6035TIP3   OH239519   0.218   4.307   5.886  0.1502 -0.3204  0.4513
 6035TIP3    H139520   0.286   4.327   5.950 -0.4622  0.2711  0.9317
 6035TIP3    H239521   0.142   4.283   5.939 -0.8935  1.8281  0.0205
 6036TIP3   OH239522   2.849   3.727   2.822  0.2737 -0.7395  0.0331
 6036TIP3    H139523   2.938   3.713   2.790  0.3616 -1.1759  0.4673
 6036TIP3    H239524   2.836   3.822   2.814  1.0949 -0.5512  0.7898
 6037TIP3   OH239525   3.011   6.454   1.340 -0.5318 -0.0332  0.2176
 6037TIP3    H139526   3.074   6.493   1.401  2.1617 -1.9748 -1.1018
 6037TIP3    H239527   2.966   6.387   1.391  2.4682 -2.4142  0.0374
 6038TIP3   OH239528   3.156   3.847   5.882 -0.2126 -0.2759  0.3928
 6038TIP3    H139529   3.157   3.926   5.935  0.5780  0.2954 -0.4399
 6038TIP3    H239530   3.247   3.833   5.857 -0.5682 -0.4059 -0.9492
 6039TIP3   OH239531   4.126   1.147   5.343 -0.1834  0.1095  0.2359
 6039TIP3    H139532   4.120   1.212   5.414 -0.5486  0.7501 -0.3680
 6039TIP3    H239533   4.164   1.070   5.385 -0.5060  0.4347  1.1621
 6040TIP3   OH239534   4.832   3.996   2.187  0.1088  0.2614  0.2467
 6040TIP3    H139535   4.902   4.057   2.210  2.4383 -1.6149 -1.2217
 6040TIP3    H239536   4.813   4.014   2.095  0.2127 -0.6068  0.0396
 6041TIP3   OH239537   1.620   4.761  12.533 -0.5825 -0.3365  0.1437
 6041TIP3    H139538   1.524   4.769  12.535 -0.5089  0.7667  0.3237
 6041TIP3    H239539   1.642   4.720  12.617 -0.8629 -0.0231  0.3774
 6042TIP3   OH239540   1.935   1.648   3.825 -0.7053  0.0785  0.1870
 6042TIP3    H139541   1.907   1.679   3.912  0.2916  0.6739  0.3089
 6042TIP3    H239542   1.905   1.558   3.821  0.0376 -0.2499  1.5276
 6043TIP3   OH239543   2.605   2.698  11.803 -0.7661  0.2890 -0.0640
 6043TIP3    H139544   2.562   2.751  11.871  0.9344  1.5521  0.0759
 6043TIP3    H239545   2.626   2.761  11.734  0.4537 -0.3792 -0.3174
 6044TIP3   OH239546   0.045   3.907  12.528 -0.0272 -0.3053 -0.2101
 6044TIP3    H139547   0.126   3.953  12.508  0.5875 -0.7016  1.2721
 6044TIP3    H239548   0.049   3.828  12.473  0.8938 -0.6209  0.2858
 6045TIP3   OH239549   1.416   2.359  11.770 -0.0956  0.9539 -0.0942
 6045TIP3    H139550   1.489   2.296  11.772 -1.1050 -0.2573 -0.4609
 6045TIP3    H239551   1.400   2.375  11.677 -2.2328 -1.1509 -0.1683
 6046TIP3   OH239552   3.630   0.508  16.092  0.3762  1.2519  0.2483
 6046TIP3    H139553   3.570   0.436  16.074  0.8468  1.4054 -2.3485
 6046TIP3    H239554   3.582   0.566  16.151 -1.8762  1.1079 -1.3155
 6047TIP3   OH239555   5.365   0.555   3.194 -0.2193  0.2559 -0.2340
 6047TIP3    H139556   5.274   0.531   3.177 -0.1935  0.7839 -1.2112
 6047TIP3    H239557   5.408   0.545   3.109  0.9610 -1.3055  0.5122
 6048TIP3   OH239558   4.710   5.341   2.237  0.0455  0.5166 -0.1513
 6048TIP3    H139559   4.705   5.246   2.240  2.3177  0.3528 -0.1193
 6048TIP3    H239560   4.752   5.360   2.153  0.8839  1.3994  0.4515
 6049TIP3   OH239561   1.588   1.785   4.428 -0.0267  0.2648 -0.4226
 6049TIP3    H139562   1.544   1.854   4.379 -0.1471  0.6034  0.1427
 6049TIP3    H239563   1.517   1.732   4.464  0.0737 -0.4753 -1.2882
 6050TIP3   OH239564   3.820   6.049  14.985 -0.2204 -0.0197 -0.6034
 6050TIP3    H139565   3.787   6.130  15.025 -1.1610 -0.1008 -1.1828
 6050TIP3    H239566   3.811   5.983  15.053 -1.7007 -0.1352 -0.8888
 6051TIP3   OH239567   0.959   5.985  11.449  0.3149 -0.3010 -0.1019
 6051TIP3    H139568   0.921   5.900  11.470 -0.1946 -0.5945 -2.0307
 6051TIP3    H239569   1.050   5.966  11.425 -0.2371 -0.5737 -2.1209
 6052TIP3   OH239570   5.272   4.779  12.779  0.3898 -0.5418  0.6521
 6052TIP3    H139571   5.252   4.750  12.690  2.0033  0.8555 -0.2288
 6052TIP3    H239572   5.189   4.770  12.826 -1.2947  1.2939 -1.7175
 6053TIP3   OH239573   0.028   5.564  16.637  0.6047 -0.1435 -0.6181
 6053TIP3    H139574  -0.027   5.494  16.603  1.1483 -1.0602  0.3140
 6053TIP3    H239575   0.094   5.518  16.689  0.9010  1.0743  0.1037
 6054TIP3   OH239576   2.053   0.805  12.934  0.4272 -0.7169 -0.6112
 6054TIP3    H139577   2.062   0.711  12.915  0.4095 -0.6760 -0.8315
 6054TIP3    H239578   2.115   0.821  13.005 -1.6868 -1.4882  1.5365
 6055TIP3   OH239579   2.879   3.148   0.793  0.1565  0.1268  0.1022
 6055TIP3    H139580   2.813   3.175   0.858 -1.1524 -0.8169 -0.7773
 6055TIP3    H239581   2.919   3.230   0.763 -1.4469  0.8350 -0.1854
 6056TIP3   OH239582   4.916   0.632  11.473  0.3127  0.2244 -0.3602
 6056TIP3    H139583   4.956   0.613  11.558 -1.7156 -0.3737  0.5209
 6056TIP3    H239584   4.970   0.586  11.410  1.2339 -0.2207  0.7245
 6057TIP3   OH239585   0.109   3.989   3.984  0.6706  0.6672 -0.0018
 6057TIP3    H139586   0.176   4.034   3.931  0.4254 -0.5419 -1.4076
 6057TIP3    H239587   0.057   4.060   4.022  1.5081  1.5975 -0.5356
 6058TIP3   OH239588   6.701   0.879   1.547 -0.3043  0.2884 -0.1705
 6058TIP3    H139589   6.755   0.893   1.469  1.1798  1.4730  0.9998
 6058TIP3    H239590   6.738   0.939   1.612 -1.5970 -0.5554  1.3974
 6059TIP3   OH239591   1.003   2.249  12.844 -0.1827  0.1883 -0.1985
 6059TIP3    H139592   1.012   2.342  12.826 -1.3762  0.4127  0.3147
 6059TIP3    H239593   0.959   2.214  12.767 -3.3706  0.7838  1.2109
 6060TIP3   OH239594   6.310   3.580  12.710  0.1866  0.2943  0.1730
 6060TIP3    H139595   6.380   3.533  12.755 -0.7596 -1.4041 -0.0021
 6060TIP3    H239596   6.235   3.520  12.714 -1.4241  2.2453  0.7881
 6061TIP3   OH239597   0.684   0.766  14.807  0.0728 -0.0816 -0.3214
 6061TIP3    H139598   0.714   0.680  14.778 -1.3640 -0.1650 -1.7124
 6061TIP3    H239599   0.610   0.747  14.865  0.8326  0.2028  0.7853
 6062TIP3   OH239600   3.492   4.503  10.940  0.2537 -0.0671  0.3160
 6062TIP3    H139601   3.526   4.491  11.029 -1.4624  1.0339  1.1893
 6062TIP3    H239602   3.455   4.418  10.917  1.2562 -0.5390  0.3833
 6063TIP3   OH239603   3.273   2.069   3.126  0.2868  0.4248  0.3501
 6063TIP3    H139604   3.189   2.076   3.080  0.6947 -0.1679 -0.5200
 6063TIP3    H239605   3.306   2.158   3.130 -0.7089  0.7814  1.3643
 6064TIP3   OH239606   0.198   6.293  14.209 -0.1255  0.3638  1.1208
 6064TIP3    H139607   0.186   6.370  14.153  1.6204  0.9762  1.5426
 6064TIP3    H239608   0.286   6.302  14.245 -1.1029 -0.0760  3.8814
 6065TIP3   OH239609   2.787   4.698   0.138  0.4586  0.4554 -0.1390
 6065TIP3    H139610   2.705   4.699   0.088  0.5267 -0.4523 -0.2904
 6065TIP3    H239611   2.765   4.741   0.221 -0.1214  0.4037 -0.2614
 6066TIP3   OH239612   3.312   0.445   6.743  0.6341 -0.3550  0.2725
 6066TIP3    H139613   3.286   0.476   6.656 -1.0152 -1.3642  0.3547
 6066TIP3    H239614   3.313   0.523   6.798  1.3628  0.2417 -0.5549
 6067TIP3   OH239615   2.555   3.483   6.070 -0.2198 -0.8863  0.3079
 6067TIP3    H139616   2.582   3.437   6.150 -2.0219 -0.1653  1.3767
 6067TIP3    H239617   2.528   3.570   6.099 -1.3124 -0.7438 -1.0148
 6068TIP3   OH239618   5.118   4.719   1.244  0.4386  0.0738 -0.5941
 6068TIP3    H139619   5.104   4.802   1.289  1.0978  0.3342 -0.8462
 6068TIP3    H239620   5.057   4.720   1.171 -0.9398 -0.5337  0.4964
 6069TIP3   OH239621   2.696   3.392  16.899 -0.0752 -0.2614 -0.3674
 6069TIP3    H139622   2.629   3.328  16.878 -0.5522  0.6615 -1.8154
 6069TIP3    H239623   2.777   3.342  16.909 -0.9880 -1.4312  1.7007
 6070TIP3   OH239624   0.145   0.783  16.617  0.0672 -0.7553 -0.2948
 6070TIP3    H139625   0.050   0.796  16.626  0.3427 -0.2346  2.9182
 6070TIP3    H239626   0.179   0.872  16.604  0.2985 -0.5770  1.3626
 6071TIP3   OH239627   1.222   4.626   0.248 -0.1493 -0.0485  0.2463
 6071TIP3    H139628   1.287   4.651   0.182 -0.3584  0.2006  0.1370
 6071TIP3    H239629   1.202   4.706   0.295 -0.3541 -0.1318  0.3032
 6072TIP3   OH239630   2.923   4.757   6.197 -0.1098  0.3153 -0.2061
 6072TIP3    H139631   2.884   4.843   6.183  2.0596  1.2388 -0.9066
 6072TIP3    H239632   2.947   4.726   6.109 -1.8633 -1.5653 -0.1104
 6073TIP3   OH239633   0.506   0.514  13.010  0.6243 -0.2306  0.2308
 6073TIP3    H139634   0.508   0.518  12.914 -1.8405  0.2153  0.1314
 6073TIP3    H239635   0.557   0.435  13.031  1.6074 -0.0830 -1.3853
 6074TIP3   OH239636   2.606   3.734   5.024  0.0474  0.0919  0.8645
 6074TIP3    H139637   2.684   3.788   5.031  0.7422 -0.7277 -0.3900
 6074TIP3    H239638   2.635   3.646   5.047  0.2363 -0.8062 -2.3483
 6075TIP3   OH239639   3.813   0.362   2.843 -0.4910  0.2903  0.0113
 6075TIP3    H139640   3.790   0.277   2.804 -1.7143  0.6665 -0.1273
 6075TIP3    H239641   3.797   0.425   2.772  0.3598  0.6516  0.1321
 6076TIP3   OH239642   5.230   4.889   3.825 -0.2374 -0.0965 -0.5741
 6076TIP3    H139643   5.143   4.922   3.847  0.0825 -0.1384  0.7932
 6076TIP3    H239644   5.291   4.954   3.860  0.3104 -0.4115 -0.9238
 6077TIP3   OH239645   5.348   5.069   0.251 -0.0200 -0.2669  0.0400
 6077TIP3    H139646   5.401   5.103   0.323 -0.7908  0.3447  0.3277
 6077TIP3    H239647   5.340   4.976   0.269 -1.2833  0.0801  1.4731
 6078TIP3   OH239648   0.400   4.489  11.294 -0.3831 -0.1414 -0.6204
 6078TIP3    H139649   0.479   4.531  11.259  0.4487 -1.4766 -0.4287
 6078TIP3    H239650   0.361   4.445  11.218 -0.3277 -0.3837 -0.5127
 6079TIP3   OH239651   4.430   3.797  10.762  0.2776 -0.5312 -0.6981
 6079TIP3    H139652   4.335   3.804  10.764  0.3031 -0.0302 -1.1003
 6079TIP3    H239653   4.452   3.784  10.669  0.5928 -0.7814 -0.5932
 6080TIP3   OH239654   5.875   1.865  14.319 -0.1481  0.3877 -0.0215
 6080TIP3    H139655   5.952   1.921  14.312 -0.0573  0.3070  0.3061
 6080TIP3    H239656   5.879   1.829  14.408 -0.3417  0.0617 -0.1416
 6081TIP3   OH239657   2.582   2.645  15.182  0.4718 -0.8234 -0.3113
 6081TIP3    H139658   2.522   2.636  15.256 -0.4118  0.3586 -0.8343
 6081TIP3    H239659   2.529   2.625  15.105 -0.2426  3.1118 -1.0668
 6082TIP3   OH239660   6.605   0.534   4.212  0.4643  0.1070  0.2433
 6082TIP3    H139661   6.547   0.556   4.284  0.0787  0.0541 -0.0473
 6082TIP3    H239662   6.658   0.613   4.199 -0.1234  0.4638 -0.0396
 6083TIP3   OH239663   4.072   4.655  17.165 -0.2832  0.2159  0.1578
 6083TIP3    H139664   4.056   4.709  17.087  1.9716 -0.6028 -0.9557
 6083TIP3    H239665   4.042   4.568  17.141 -2.2040  0.4931  1.2981
 6084TIP3   OH239666   5.467   5.843   5.300 -0.0810 -0.3309 -0.6037
 6084TIP3    H139667   5.409   5.899   5.352 -0.2730 -0.7669 -0.3347
 6084TIP3    H239668   5.454   5.755   5.337  0.9438 -0.3936 -0.3744
 6085TIP3   OH239669   4.564   5.118   1.617  0.0765 -0.0336 -0.7273
 6085TIP3    H139670   4.648   5.161   1.599 -0.6349  1.2844 -1.0198
 6085TIP3    H239671   4.562   5.044   1.556  0.7580  0.2996 -1.1668
 6086TIP3   OH239672   4.473   3.153  12.349  0.6776  0.4869  0.1707
 6086TIP3    H139673   4.564   3.171  12.326  1.6947 -2.5432  1.2757
 6086TIP3    H239674   4.467   3.176  12.441  0.6843 -0.3111  0.3820
 6087TIP3   OH239675   3.912   4.751  16.659 -0.3182  0.1059 -0.0866
 6087TIP3    H139676   3.828   4.780  16.622 -1.1239 -1.2143  0.6547
 6087TIP3    H239677   3.972   4.752  16.584 -0.6934  2.0401 -0.4320
 6088TIP3   OH239678   5.117   5.021  12.965 -0.4988 -0.3613  0.0332
 6088TIP3    H139679   5.211   5.024  12.950 -0.1954 -2.7291  0.8835
 6088TIP3    H239680   5.078   5.013  12.878  0.4256 -3.1557 -0.2198
 6089TIP3   OH239681   1.706   0.165   1.569  0.3507 -0.5712  0.2129
 6089TIP3    H139682   1.662   0.081   1.555  2.4460 -1.8331  0.8054
 6089TIP3    H239683   1.644   0.216   1.622 -0.8637 -1.8231  0.0393
 6090TIP3   OH239684   2.631   5.759  16.417  0.2141 -0.1831  0.1459
 6090TIP3    H139685   2.704   5.746  16.357  0.7088  0.2890  0.6438
 6090TIP3    H239686   2.553   5.754  16.361  0.6844  0.6154 -0.6012
 6091TIP3   OH239687   3.105   0.354  11.521 -0.5236 -0.1929  1.3243
 6091TIP3    H139688   3.046   0.290  11.481 -0.4724  0.1773  0.6397
 6091TIP3    H239689   3.146   0.307  11.594  0.0779 -1.1893  0.3719
 6092TIP3   OH239690   5.706   3.897   3.119  0.2122  0.8083  0.2782
 6092TIP3    H139691   5.662   3.813   3.125 -0.4732  1.2372  1.8027
 6092TIP3    H239692   5.637   3.962   3.131  0.5399  1.6748 -1.9909
 6093TIP3   OH239693   0.900   1.887   5.286 -0.3507 -0.0952  0.4283
 6093TIP3    H139694   0.902   1.819   5.218 -0.9161 -0.2756  0.5903
 6093TIP3    H239695   0.809   1.892   5.313 -0.0335 -0.4787  1.6403
 6094TIP3   OH239696   5.209   1.300   5.836 -0.0755 -0.1472  0.1197
 6094TIP3    H139697   5.140   1.366   5.838  0.2336  0.1750  0.8906
 6094TIP3    H239698   5.244   1.301   5.925  1.1904 -0.0166 -0.3634
 6095TIP3   OH239699   1.287   3.327   3.346  1.2753  0.7736 -0.5452
 6095TIP3    H139700   1.286   3.325   3.442 -1.7412  1.5416 -0.4713
 6095TIP3    H239701   1.305   3.237   3.320  0.8883  0.3012  0.7533
 6096TIP3   OH239702   6.614   2.074   2.789 -0.1283  0.4408 -0.5950
 6096TIP3    H139703   6.676   2.058   2.718 -0.9242  1.5622 -1.5912
 6096TIP3    H239704   6.668   2.078   2.867  0.6911 -1.5658 -0.9937
 6097TIP3   OH239705   1.926   1.863  16.709 -0.3020  0.6549  0.1525
 6097TIP3    H139706   1.835   1.834  16.712 -0.9244  2.4954  0.4788
 6097TIP3    H239707   1.937   1.917  16.788  1.0081  0.6151  0.0208
 6098TIP3   OH239708   1.625   5.985  15.175  0.5128 -0.1970  0.0212
 6098TIP3    H139709   1.583   6.017  15.095 -0.3387  0.4908  0.7220
 6098TIP3    H239710   1.716   5.970  15.150  0.3157  0.2493 -1.0143
 6099TIP3   OH239711   6.524   3.638  16.662  0.7161  0.9292  0.4723
 6099TIP3    H139712   6.452   3.646  16.725  1.0429  2.5824  0.6726
 6099TIP3    H239713   6.482   3.610  16.581 -0.0684  1.2367  0.7652
 6100TIP3   OH239714   2.613   3.532  13.581 -0.1589  0.2283  0.7237
 6100TIP3    H139715   2.694   3.545  13.531  0.2038  1.3077  1.5295
 6100TIP3    H239716   2.635   3.563  13.669 -1.3160  0.0838  1.0759
 6101TIP3   OH239717   1.694   0.436   4.272  0.0190  0.2050 -0.0048
 6101TIP3    H139718   1.603   0.466   4.279 -0.1779 -0.5901  1.3793
 6101TIP3    H239719   1.697   0.358   4.328  1.1935 -0.6642 -1.2306
 6102TIP3   OH239720   0.482   3.348  16.523  0.2183  0.2358  0.1199
 6102TIP3    H139721   0.453   3.265  16.560  1.1148 -1.7737 -3.2876
 6102TIP3    H239722   0.577   3.342  16.521  0.2730  1.0701 -0.7795
 6103TIP3   OH239723   5.454   0.709  12.302 -0.4648 -0.1358 -0.0485
 6103TIP3    H139724   5.444   0.800  12.329 -1.3256  0.2465 -1.5475
 6103TIP3    H239725   5.388   0.662  12.353 -0.6810  0.2370  0.0208
 6104TIP3   OH239726   5.906   3.620  10.993  0.0102 -0.4462  0.3277
 6104TIP3    H139727   5.886   3.574  10.912  3.4834 -2.5365  0.4664
 6104TIP3    H239728   5.844   3.583  11.057 -0.9234 -0.8097 -0.7488
 6105TIP3   OH239729   3.983   3.591   4.373 -0.5440 -0.0820 -0.5102
 6105TIP3    H139730   3.978   3.511   4.320 -0.4154  0.0790 -0.7685
 6105TIP3    H239731   3.923   3.576   4.445  0.0230 -0.7131 -0.1556
 6106TIP3   OH239732   3.748   0.165   3.209 -0.2878 -0.1953 -0.2117
 6106TIP3    H139733   3.692   0.124   3.143  0.6831 -0.8520 -0.6505
 6106TIP3    H239734   3.764   0.096   3.273 -1.9602  0.6918  1.2416
 6107TIP3   OH239735   1.568   2.440  11.438  0.1276  0.0243 -0.2523
 6107TIP3    H139736   1.657   2.405  11.449  0.6552  1.6954  1.4023
 6107TIP3    H239737   1.543   2.414  11.350  1.5052 -2.0970 -0.1105
 6108TIP3   OH239738   1.873   3.931   2.682 -0.1664  0.5872 -0.4349
 6108TIP3    H139739   1.944   3.868   2.670 -1.2568 -1.3599  2.2380
 6108TIP3    H239740   1.804   3.902   2.623  0.0971  0.5521 -0.7266
 6109TIP3   OH239741   6.207   0.207   5.369 -0.3009 -0.3001 -0.5340
 6109TIP3    H139742   6.220   0.138   5.304 -2.3383 -0.6275 -0.6394
 6109TIP3    H239743   6.126   0.184   5.414 -0.2516  1.2530  0.4326
 6110TIP3   OH239744   0.150   5.500   1.919 -0.5168 -0.2655  0.3135
 6110TIP3    H139745   0.157   5.516   2.014  0.7058 -0.7703  0.3291
 6110TIP3    H239746   0.116   5.582   1.884 -0.3752  0.1597  1.1245
 6111TIP3   OH239747   3.254   4.745  16.008 -0.0011  0.4309  0.5019
 6111TIP3    H139748   3.346   4.756  16.030  0.3174 -2.8769  1.4573
 6111TIP3    H239749   3.213   4.719  16.090 -1.6279  1.0096 -0.0934
 6112TIP3   OH239750   5.180   0.023   5.506  0.4824  0.3377  0.1561
 6112TIP3    H139751   5.151  -0.051   5.453  1.2738  0.5727 -0.6349
 6112TIP3    H239752   5.232   0.077   5.445 -1.2266  2.2888  0.3000
 6113TIP3   OH239753   1.679   0.274  14.596  0.6499 -0.1553  0.3523
 6113TIP3    H139754   1.691   0.179  14.587  2.7933  0.0707  0.2627
 6113TIP3    H239755   1.637   0.301  14.515 -0.7349 -1.1059  0.7106
 6114TIP3   OH239756   0.440   1.602  11.732  0.0856 -0.1717 -0.1176
 6114TIP3    H139757   0.514   1.629  11.786 -0.0267 -0.7816  0.3553
 6114TIP3    H239758   0.374   1.671  11.744  0.7181  0.5771 -0.8563
 6115TIP3   OH239759   0.094   3.921   0.058  0.4893  0.0491 -0.1614
 6115TIP3    H139760   0.074   3.854  -0.008  0.8039 -0.5981  0.3871
 6115TIP3    H239761   0.158   3.977   0.015  1.4314 -0.9354 -0.0930
 6116TIP3   OH239762   2.800   4.477  14.569  0.8383  0.1581 -0.2883
 6116TIP3    H139763   2.772   4.457  14.659  1.0326 -0.2314 -0.3160
 6116TIP3    H239764   2.730   4.533  14.535 -0.0738 -1.0498 -0.4550
 6117TIP3   OH239765   3.350   3.602   0.665  0.6328 -0.4056  0.0768
 6117TIP3    H139766   3.324   3.581   0.576 -0.5704 -0.8684  0.5221
 6117TIP3    H239767   3.445   3.587   0.666  0.5659 -0.9811 -0.9569
 6118TIP3   OH239768   4.813   2.360  14.351 -0.8677 -0.2480  0.3840
 6118TIP3    H139769   4.752   2.424  14.389 -0.9486  0.9367 -1.6271
 6118TIP3    H239770   4.761   2.315  14.284  0.5520  1.1544 -1.7422
 6119TIP3   OH239771   3.038   1.251   3.565 -0.1490  0.5796  0.1943
 6119TIP3    H139772   2.997   1.266   3.650  1.1725  1.8265  0.6462
 6119TIP3    H239773   3.097   1.177   3.580 -1.6083 -0.7494 -0.2798
 6120TIP3   OH239774   2.943   4.955  13.410  0.6625 -0.2738 -0.5417
 6120TIP3    H139775   2.983   4.980  13.494 -1.2389  2.0493 -0.2082
 6120TIP3    H239776   2.886   4.881  13.432 -0.9574  1.2349  0.6228
 6121TIP3   OH239777   4.176   4.870  12.384  0.0504  0.3212 -0.0951
 6121TIP3    H139778   4.230   4.795  12.359  2.4456  0.6430  3.4060
 6121TIP3    H239779   4.227   4.946  12.359 -0.5380  0.7233 -0.0956
 6122TIP3   OH239780   1.740   3.062  13.832 -0.2971  0.1165  0.0876
 6122TIP3    H139781   1.667   3.035  13.888 -1.4619 -0.1694 -1.5113
 6122TIP3    H239782   1.773   3.143  13.873 -1.7631  0.4764  0.6167
 6123TIP3   OH239783   6.079   2.608  11.245 -0.3592 -0.4292  0.2796
 6123TIP3    H139784   6.002   2.662  11.229  1.4612  2.8546  1.5223
 6123TIP3    H239785   6.119   2.595  11.159  1.2033  3.8037  0.1323
 6124TIP3   OH239786   3.506   6.197  12.887 -0.1767  0.2508  0.6090
 6124TIP3    H139787   3.582   6.171  12.835  1.5134  1.4473  2.3816
 6124TIP3    H239788   3.497   6.128  12.953 -1.9515 -0.9440 -0.7491
 6125TIP3   OH239789   5.065   1.868  12.706  0.2469 -0.0619 -0.4677
 6125TIP3    H139790   5.134   1.853  12.770  1.1358  2.8636 -0.6012
 6125TIP3    H239791   4.985   1.876  12.759  0.8946  1.8507  0.3164
 6126TIP3   OH239792   3.453   2.664  15.221 -0.6799 -0.7596 -0.0248
 6126TIP3    H139793   3.363   2.632  15.226 -0.6733 -0.7478  0.1594
 6126TIP3    H239794   3.471   2.672  15.127 -1.0276 -0.3250 -0.0578
 6127TIP3   OH239795   1.948   1.989  13.943  0.1780  0.1040 -0.0150
 6127TIP3    H139796   2.023   2.024  13.893  0.2426  0.4846  0.3457
 6127TIP3    H239797   1.953   2.034  14.027  0.1265 -0.6115  0.3748
 6128TIP3   OH239798   6.682   0.185   4.876 -0.0671 -0.1749  0.0496
 6128TIP3    H139799   6.643   0.161   4.960  2.1629  0.9180  1.4859
 6128TIP3    H239800   6.683   0.281   4.877  1.3379 -0.1618 -0.5460
 6129TIP3   OH239801   0.129   5.470  12.463  0.2058  0.6737  0.1242
 6129TIP3    H139802   0.119   5.455  12.369  0.0325 -2.4850  0.5472
 6129TIP3    H239803   0.041   5.496  12.493  0.1494  1.2085 -0.5015
 6130TIP3   OH239804   6.674   6.240   1.369  0.2578 -0.5402  0.1526
 6130TIP3    H139805   6.622   6.229   1.448 -0.6676 -1.0491 -0.5099
 6130TIP3    H239806   6.614   6.220   1.298  1.3689 -1.1614 -0.6415
 6131TIP3   OH239807   2.180   1.239  14.464 -0.3975 -0.0905 -0.5575
 6131TIP3    H139808   2.149   1.206  14.380 -0.2700  0.3436 -0.7797
 6131TIP3    H239809   2.215   1.162  14.508  0.1252 -0.2159 -1.1717
 6132TIP3   OH239810   5.700   0.901   0.331 -0.0323  0.1879 -0.0842
 6132TIP3    H139811   5.640   0.957   0.282 -0.0381 -0.3262 -0.6803
 6132TIP3    H239812   5.643   0.850   0.389 -0.1176  0.1368 -0.2111
 6133TIP3   OH239813   0.974   2.935  13.595 -0.6060  0.4150  0.0329
 6133TIP3    H139814   1.018   2.974  13.520 -0.1002 -0.8510 -0.3449
 6133TIP3    H239815   0.886   2.973  13.593 -0.7098  0.1683 -1.3969
 6134TIP3   OH239816   0.327   3.666  11.994 -0.2181 -0.1207  0.2503
 6134TIP3    H139817   0.402   3.606  11.992  1.3954  1.7147  1.6604
 6134TIP3    H239818   0.300   3.673  11.902  1.2404 -0.9560 -0.2784
 6135TIP3   OH239819   1.264   6.284   2.199  0.0471 -0.3714  0.2013
 6135TIP3    H139820   1.341   6.340   2.188 -0.2346  0.0334  0.2806
 6135TIP3    H239821   1.240   6.294   2.291 -0.5087  0.0375  0.0168
 6136TIP3   OH239822   0.323   2.556  14.095  0.0843 -0.3269 -0.0949
 6136TIP3    H139823   0.289   2.472  14.066 -1.5184  0.1203  0.3985
 6136TIP3    H239824   0.308   2.557  14.189 -0.0793  0.5653 -0.1183
 6137TIP3   OH239825   3.172   3.096   6.285 -0.8905 -0.3721  0.1171
 6137TIP3    H139826   3.212   3.023   6.237 -0.7495 -0.1078 -0.1731
 6137TIP3    H239827   3.126   3.146   6.218  0.7827  1.0006 -0.0710
 6138TIP3   OH239828   0.398   3.032  16.618 -0.2358 -0.0820 -0.3827
 6138TIP3    H139829   0.414   2.954  16.671 -0.6556 -0.0590 -0.2227
 6138TIP3    H239830   0.303   3.041  16.615 -0.3184 -1.0239 -2.5012
 6139TIP3   OH239831   2.229   3.790  16.008  0.2905 -0.2050 -0.0521
 6139TIP3    H139832   2.146   3.744  16.025  0.1824  0.0014 -0.0162
 6139TIP3    H239833   2.295   3.721  16.009  0.1200 -0.3705 -0.0695
 6140TIP3   OH239834   1.198   2.761  14.377 -0.3708  0.6228 -0.0211
 6140TIP3    H139835   1.253   2.736  14.303  0.4002 -1.1222  1.0899
 6140TIP3    H239836   1.158   2.844  14.350  0.2648  0.2837 -2.1739
 6141TIP3   OH239837   5.949   5.751  12.949  0.0123  0.1496  0.6609
 6141TIP3    H139838   6.000   5.767  12.869 -0.5786 -1.1047  0.0044
 6141TIP3    H239839   5.936   5.838  12.987  2.9968  0.5028  1.1166
 6142TIP3   OH239840   0.011   5.131   1.419  0.1737 -0.3894 -0.1310
 6142TIP3    H139841  -0.054   5.077   1.374  0.6296  1.5079 -3.4373
 6142TIP3    H239842   0.085   5.073   1.434 -0.4224 -1.3737 -0.9165
 6143TIP3   OH239843   5.465   6.653  13.879 -0.1396 -0.8564  0.2494
 6143TIP3    H139844   5.546   6.701  13.862  0.7820 -2.3871  0.1381
 6143TIP3    H239845   5.423   6.646  13.793  0.2345 -1.1375  0.0880
 6144TIP3   OH239846   2.350   5.268  14.034  0.2862  0.0870 -0.2508
 6144TIP3    H139847   2.356   5.304  14.123  1.8290  1.3900 -0.8484
 6144TIP3    H239848   2.287   5.196  14.042 -0.8041  1.1589  1.5677
 6145TIP3   OH239849   2.815   1.899   2.957  0.0790  0.0044 -0.0013
 6145TIP3    H139850   2.853   1.858   2.878  0.6715  2.0051 -0.8134
 6145TIP3    H239851   2.727   1.862   2.963 -0.3530  0.5303 -2.2024
 6146TIP3   OH239852   5.641   0.426   5.187 -0.8021  0.2756 -0.0591
 6146TIP3    H139853   5.612   0.517   5.183  0.2656  0.6857  0.9648
 6146TIP3    H239854   5.729   0.430   5.225 -0.1799 -1.0637 -1.2307
 6147TIP3   OH239855   1.968   5.618  12.912 -0.3389 -0.3629 -0.2345
 6147TIP3    H139856   2.005   5.692  12.863 -1.4110 -0.5082 -1.2951
 6147TIP3    H239857   2.043   5.561  12.929  0.5068  0.9389  0.5871
 6148TIP3   OH239858   4.192   2.872  12.497  0.0183  0.2133  0.0707
 6148TIP3    H139859   4.247   2.896  12.572  0.0024  1.5268 -0.3222
 6148TIP3    H239860   4.252   2.870  12.423 -0.2218  0.3475 -0.1284
 6149TIP3   OH239861   6.480   5.997  16.273  0.0821 -0.4264  0.2471
 6149TIP3    H139862   6.486   6.000  16.369  0.6208 -1.2062  0.2532
 6149TIP3    H239863   6.465   5.904  16.253 -1.5579 -0.0596 -0.3691
 6150TIP3   OH239864   5.675   2.276  13.286  0.6266 -0.6185 -0.0497
 6150TIP3    H139865   5.740   2.258  13.353  2.0681  1.4807 -0.7523
 6150TIP3    H239866   5.668   2.372  13.285 -1.1043 -0.7100 -1.2749
 6151TIP3   OH239867   1.271   1.013  15.849  1.0543 -0.1155  0.3635
 6151TIP3    H139868   1.323   0.947  15.803  1.9788  1.8514 -1.6037
 6151TIP3    H239869   1.330   1.048  15.916  0.7186 -0.8972  1.0936
 6152TIP3   OH239870   2.122   1.639  14.282 -0.4277  0.4118  0.3945
 6152TIP3    H139871   2.077   1.568  14.327 -0.5109 -0.6829 -1.3337
 6152TIP3    H239872   2.164   1.690  14.352  1.5452 -2.6167  1.6109
 6153TIP3   OH239873   5.447   0.625  14.195  0.5050 -0.0917 -0.2993
 6153TIP3    H139874   5.512   0.596  14.131  0.7948  1.4576 -0.7468
 6153TIP3    H239875   5.495   0.635  14.277  0.5165 -0.3172 -0.2771
 6154TIP3   OH239876   3.170   5.905  12.166 -0.2152  0.7534 -0.3045
 6154TIP3    H139877   3.114   5.850  12.112  1.1118  0.0562 -1.0470
 6154TIP3    H239878   3.148   5.994  12.141 -1.8696  0.5662  0.3661
 6155TIP3   OH239879   2.766   6.319   5.983 -0.2455 -0.1143  0.1149
 6155TIP3    H139880   2.756   6.382   5.912 -0.5714  1.0476  1.1475
 6155TIP3    H239881   2.825   6.362   6.045 -0.0536 -1.0521  0.6034
 6156TIP3   OH239882   1.195   5.575   0.295 -0.0597 -0.3214  0.2503
 6156TIP3    H139883   1.159   5.504   0.242 -0.0303  0.5475 -0.9973
 6156TIP3    H239884   1.288   5.553   0.305 -0.0511 -0.4659 -0.1345
 6157TIP3   OH239885   4.665   5.867   0.250 -0.5310  0.5609 -0.8256
 6157TIP3    H139886   4.628   5.954   0.235 -3.2688 -0.6590 -1.7139
 6157TIP3    H239887   4.717   5.850   0.171  0.3396  1.5063 -0.4769
 6158TIP3   OH239888   1.195   1.531   0.750  0.6355 -0.3737  0.0321
 6158TIP3    H139889   1.217   1.453   0.801 -0.8205 -0.9944 -0.2429
 6158TIP3    H239890   1.101   1.545   0.766  0.3808  0.0289 -1.6479
 6159TIP3   OH239891   5.351   5.503  11.299 -0.2039 -0.3511  0.0700
 6159TIP3    H139892   5.288   5.433  11.316  0.6026 -0.7177  1.8386
 6159TIP3    H239893   5.403   5.471  11.225 -0.6690 -1.0422  0.0258
 6160TIP3   OH239894   0.867   0.620   2.225 -0.1232 -0.5903 -0.2570
 6160TIP3    H139895   0.870   0.623   2.321  0.4846 -0.8110 -0.2590
 6160TIP3    H239896   0.812   0.545   2.204  0.6293 -1.2144 -0.0629
 6161TIP3   OH239897   5.211   4.423  16.291  0.0469  0.0539  0.6026
 6161TIP3    H139898   5.274   4.399  16.359  0.0663 -0.8932  0.2677
 6161TIP3    H239899   5.192   4.515  16.307  0.6851  0.0595  1.3795
 6162TIP3   OH239900   6.672   5.290   4.151 -0.1803 -0.2359  0.2654
 6162TIP3    H139901   6.700   5.227   4.217 -0.1617 -0.6978 -0.1819
 6162TIP3    H239902   6.746   5.296   4.090 -0.1199  0.3337  0.3860
 6163TIP3   OH239903   6.486   1.111  11.486 -0.5311 -0.0303 -0.5964
 6163TIP3    H139904   6.499   1.204  11.469 -1.5179  0.0585 -0.9413
 6163TIP3    H239905   6.420   1.108  11.554  1.9713 -0.4387  1.9905
 6164TIP3   OH239906   4.024   5.770  14.407 -0.3557  0.3374 -0.1560
 6164TIP3    H139907   3.986   5.687  14.437  0.7471  0.2744  1.1635
 6164TIP3    H239908   3.994   5.834  14.471 -0.9217  0.9280 -0.9840
 6165TIP3   OH239909   1.385   6.277  16.020  0.1791 -0.5611 -0.0266
 6165TIP3    H139910   1.319   6.343  15.997 -0.5682 -1.3770 -0.2690
 6165TIP3    H239911   1.441   6.320  16.085 -0.6610  0.0997  0.2680
 6166TIP3   OH239912   5.495   0.444  16.377 -0.0331  0.2603  0.1769
 6166TIP3    H139913   5.534   0.365  16.340 -1.8152  0.0114 -1.3401
 6166TIP3    H239914   5.508   0.436  16.471  0.5426 -1.4195 -0.0102
 6167TIP3   OH239915   1.162   0.218   2.171 -0.2896  0.1994  0.0650
 6167TIP3    H139916   1.105   0.213   2.094 -1.4273 -0.1341  0.9110
 6167TIP3    H239917   1.150   0.307   2.203 -0.9987 -0.1237  0.7253
 6168TIP3   OH239918   5.818   2.216  14.960  0.2497  0.7459 -0.0790
 6168TIP3    H139919   5.741   2.234  15.013 -0.7188 -2.2920 -0.2888
 6168TIP3    H239920   5.890   2.213  15.023 -0.3833  0.1560  0.6243
 6169TIP3   OH239921   4.462   3.808  11.492  0.2392 -0.1934  0.1211
 6169TIP3    H139922   4.390   3.851  11.446  1.9153 -0.2671 -2.8255
 6169TIP3    H239923   4.433   3.718  11.505  0.0771 -0.5030 -1.9660
 6170TIP3   OH239924   2.846   0.670   2.330 -0.0575  0.7908 -0.1229
 6170TIP3    H139925   2.818   0.646   2.241  2.0522  0.9535 -0.8833
 6170TIP3    H239926   2.799   0.751   2.348 -1.8213 -0.1124 -0.3687
 6171TIP3   OH239927   2.978   0.484  16.015  0.0528 -0.0228  0.2879
 6171TIP3    H139928   2.915   0.419  16.045  1.2112 -1.5449 -0.4246
 6171TIP3    H239929   2.999   0.536  16.093 -0.1583 -1.1428  1.1085
 6172TIP3   OH239930   2.722   2.529  17.056  0.2446 -0.0267  0.2764
 6172TIP3    H139931   2.761   2.462  17.001 -0.5684  0.2328 -0.6530
 6172TIP3    H239932   2.644   2.558  17.007  0.2230  1.1289  0.9528
 6173TIP3   OH239933   4.420   1.290  14.023 -0.1151 -0.0984  0.4815
 6173TIP3    H139934   4.473   1.361  14.060  0.4905  0.9648 -2.1794
 6173TIP3    H239935   4.469   1.210  14.043  0.5833  0.5058  1.2269
 6174TIP3   OH239936   3.531   3.940   4.662  0.4623 -0.4908  0.3095
 6174TIP3    H139937   3.626   3.946   4.675  0.6861 -0.2161 -1.1918
 6174TIP3    H239938   3.519   3.961   4.569 -1.2079  0.7642  0.7781
 6175TIP3   OH239939   6.649   1.986   0.011 -0.1136 -0.0803 -0.2302
 6175TIP3    H139940   6.634   2.080   0.019 -0.0435 -0.1824  1.4339
 6175TIP3    H239941   6.722   1.968   0.070  0.6283 -1.0236 -1.3745
 6176TIP3   OH239942   3.169   6.723  14.948 -0.2298 -0.4583 -0.1877
 6176TIP3    H139943   3.256   6.684  14.952  0.0493  0.2122  2.8989
 6176TIP3    H239944   3.110   6.652  14.975 -0.1425  0.1176  1.6397
 6177TIP3   OH239945   2.729   5.361   0.998  0.4118 -0.0812  0.4144
 6177TIP3    H139946   2.716   5.393   1.087 -1.1195  1.5920 -0.3345
 6177TIP3    H239947   2.640   5.354   0.963  0.9844 -0.7950 -0.9589
 6178TIP3   OH239948   6.592   0.908   3.573 -0.6394 -0.3049  0.5162
 6178TIP3    H139949   6.681   0.919   3.539 -0.8898 -0.7433 -0.3188
 6178TIP3    H239950   6.595   0.946   3.661 -0.2856  2.0994 -0.4491
 6179TIP3   OH239951   5.266   5.199   1.374 -0.1646 -0.2624 -0.4944
 6179TIP3    H139952   5.197   5.134   1.357 -1.9593  1.5789 -0.6336
 6179TIP3    H239953   5.226   5.261   1.436  1.4469  0.7569 -0.4223
 6180TIP3   OH239954   3.243   5.943  12.897 -0.2105 -0.1060 -0.0992
 6180TIP3    H139955   3.239   5.993  12.978 -0.0590  1.3887 -0.9665
 6180TIP3    H239956   3.206   6.002  12.831  2.7131  0.1080 -1.7421
 6181TIP3   OH239957   5.922   2.003  13.348  0.1263  0.3209  0.3897
 6181TIP3    H139958   5.855   1.935  13.358  1.3838 -1.1711 -0.7926
 6181TIP3    H239959   5.894   2.073  13.406 -1.0483 -1.3537  1.9462
 6182TIP3   OH239960   6.530   6.453   1.870 -0.0116 -0.0449 -0.4367
 6182TIP3    H139961   6.517   6.514   1.943 -2.3843 -0.5379 -0.3802
 6182TIP3    H239962   6.459   6.474   1.808  0.9210 -0.7872 -1.8107
 6183TIP3   OH239963   6.419   6.200   1.248 -0.0020  0.1568  0.2725
 6183TIP3    H139964   6.419   6.210   1.153  1.1035  0.6736  0.3145
 6183TIP3    H239965   6.421   6.105   1.262 -1.2349  0.0412 -0.1985
 6184TIP3   OH239966   3.698   1.240   0.507  0.2481 -0.0280  0.2136
 6184TIP3    H139967   3.779   1.258   0.556  0.4520 -0.1829 -0.0618
 6184TIP3    H239968   3.644   1.190   0.568 -1.0168  2.7848  1.6142
 6185TIP3   OH239969   4.374   4.916   5.382 -0.1891  0.1471 -0.1974
 6185TIP3    H139970   4.457   4.943   5.421  0.1147 -0.6098 -0.3069
 6185TIP3    H239971   4.313   4.987   5.403  0.2493  0.2701  0.6897
 6186TIP3   OH239972   5.717   1.035  12.614  0.3644 -0.3046 -0.1184
 6186TIP3    H139973   5.691   1.025  12.523 -1.2333 -1.2586  0.3944
 6186TIP3    H239974   5.770   1.115  12.616  0.0446 -0.0209 -1.7901
 6187TIP3   OH239975   5.668   5.707   5.577 -0.4171  0.2997  0.4520
 6187TIP3    H139976   5.601   5.648   5.614 -1.1459  2.4204  2.7663
 6187TIP3    H239977   5.633   5.730   5.490 -3.9719  2.9122  2.2876
 6188TIP3   OH239978   1.666   2.776   5.575 -0.2725 -0.0625 -0.2647
 6188TIP3    H139979   1.630   2.848   5.626 -1.7316 -0.3427 -0.8598
 6188TIP3    H239980   1.757   2.801   5.560  0.1416  0.1284  2.2325
 6189TIP3   OH239981   0.332   2.302   5.285  0.2265 -0.4194  0.5282
 6189TIP3    H139982   0.381   2.285   5.366  1.0594 -0.7631 -0.0398
 6189TIP3    H239983   0.379   2.373   5.243  0.8708 -1.4350 -0.5261
 6190TIP3   OH239984   4.495   2.270   2.352 -0.1850 -0.3508  0.3068
 6190TIP3    H139985   4.475   2.201   2.289 -1.0649 -0.2076  0.4098
 6190TIP3    H239986   4.409   2.298   2.385  0.0582  1.4712 -0.4635
 6191TIP3   OH239987   3.846   1.020   1.548 -0.1741 -0.5147  0.6049
 6191TIP3    H139988   3.771   1.011   1.488 -0.8543 -1.2838  1.5411
 6191TIP3    H239989   3.892   1.098   1.516 -1.3893  0.0029  0.0131
 6192TIP3   OH239990   6.439   0.772  14.552  0.2956  0.5913 -0.5079
 6192TIP3    H139991   6.418   0.820  14.632 -0.3499 -1.8254  0.8996
 6192TIP3    H239992   6.507   0.710  14.579 -0.4592 -0.7738 -1.5915
 6193TIP3   OH239993   4.445   4.733  12.106  0.0484  0.8918  1.2866
 6193TIP3    H139994   4.397   4.734  12.023 -2.7230  2.4699  2.7870
 6193TIP3    H239995   4.514   4.667  12.092 -1.1251  0.1282 -1.7837
 6194TIP3   OH239996   2.329   4.033   4.705  0.3153  0.8250  0.1797
 6194TIP3    H139997   2.416   4.011   4.674  0.0861 -1.0049  0.7557
 6194TIP3    H239998   2.324   3.997   4.794 -2.1463 -2.2199 -1.0150
 6195TIP3   OH239999   5.263   5.608  16.077  0.0873 -0.5870  0.0857
 6195TIP3    H140000   5.348   5.637  16.045  0.1324  0.2649  0.9404
 6195TIP3    H240001   5.259   5.515  16.055  0.3913 -0.2057 -1.7673
 6196TIP3   OH240002   4.423   0.305  13.349  0.0129 -0.3842  0.0855
 6196TIP3    H140003   4.485   0.239  13.318  0.1988 -0.0414 -0.2757
 6196TIP3    H240004   4.342   0.286  13.302  0.1199 -0.2430 -0.1588
 6197TIP3   OH240005   4.138   0.739   4.396  0.2064 -0.0420  0.4179
 6197TIP3    H140006   4.086   0.724   4.476  1.6986 -1.1909  1.2333
 6197TIP3    H240007   4.220   0.777   4.428  0.7874 -0.4373 -0.5731
 6198TIP3   OH240008   6.124   4.787   0.673  0.0195  0.3419 -0.2396
 6198TIP3    H140009   6.178   4.861   0.699 -2.3823  2.3183 -0.4378
 6198TIP3    H240010   6.034   4.816   0.692 -1.1705 -1.6737 -2.3497
 6199TIP3   OH240011   4.389   5.932  13.149 -0.6473  0.2177 -0.0754
 6199TIP3    H140012   4.449   6.005  13.164  0.4469 -0.7166  0.1742
 6199TIP3    H240013   4.317   5.971  13.100 -0.0840  1.4685  0.0450
 6200TIP3   OH240014   3.540   2.224   3.878  0.9549 -0.0868  0.0480
 6200TIP3    H140015   3.454   2.265   3.882  0.3350 -1.1533 -1.6232
 6200TIP3    H240016   3.567   2.233   3.787  2.6529  0.2606  0.5487
 6201TIP3   OH240017   3.152   5.590   4.889  0.3681  0.7021  0.0665
 6201TIP3    H140018   3.184   5.641   4.963  0.9471  2.5845 -1.3784
 6201TIP3    H240019   3.211   5.613   4.817 -0.9265 -0.0546 -1.2964
 6202TIP3   OH240020   2.921   2.957   2.686 -0.6696 -0.0032  0.2064
 6202TIP3    H140021   2.948   2.941   2.595 -0.6154 -1.1979  0.4237
 6202TIP3    H240022   2.838   3.003   2.678 -1.9262 -2.2348 -0.4812
 6203TIP3   OH240023   4.183   3.834   0.606  0.1393  0.1450  0.1641
 6203TIP3    H140024   4.248   3.777   0.566  0.6803  1.6793 -1.2684
 6203TIP3    H240025   4.099   3.790   0.589  0.2211  1.0401 -3.5750
 6204TIP3   OH240026   2.965   6.450  12.599  0.0337  0.4013  0.2511
 6204TIP3    H140027   2.976   6.492  12.513  2.3752  0.3426  0.4624
 6204TIP3    H240028   2.896   6.384  12.584 -0.4452  1.1821 -1.2561
 6205TIP3   OH240029   4.918   0.008  17.059 -0.1321  0.1911 -0.4113
 6205TIP3    H140030   4.922   0.015  16.964  0.1059 -0.0586 -0.4212
 6205TIP3    H240031   5.009   0.016  17.088 -0.0347 -1.0020 -0.3057
 6206TIP3   OH240032   2.640   5.034   1.274 -0.9555 -0.0427  0.2484
 6206TIP3    H140033   2.596   5.114   1.305 -0.1459 -0.1187  1.6695
 6206TIP3    H240034   2.677   4.995   1.353  0.5149 -0.6907 -0.7253
 6207TIP3   OH240035   0.852   6.256  14.089 -0.6275  0.1703 -0.0899
 6207TIP3    H140036   0.827   6.237  13.998 -0.7836  0.3894 -0.0917
 6207TIP3    H240037   0.944   6.228  14.094 -0.9720 -0.9913  0.0242
 6208TIP3   OH240038   0.104   1.287  12.283  0.0266  0.3220  0.1560
 6208TIP3    H140039   0.032   1.257  12.228  1.5125 -1.2293 -1.0303
 6208TIP3    H240040   0.086   1.380  12.298 -2.4258 -0.1271  0.2825
 6209TIP3   OH240041   1.670   2.064   3.968 -0.6827  0.1534 -0.0972
 6209TIP3    H140042   1.619   1.983   3.964 -1.1702  0.4336  0.3716
 6209TIP3    H240043   1.750   2.044   3.919  0.2710 -1.3511  1.9548
 6210TIP3   OH240044   1.358   5.312  12.721  0.5351 -0.4886 -0.1983
 6210TIP3    H140045   1.442   5.275  12.750  1.2076  0.1871 -1.2038
 6210TIP3    H240046   1.363   5.308  12.626 -0.2339  0.3085 -0.2811
 6211TIP3   OH240047   3.430   2.134  16.868 -0.4999 -0.4157 -0.2283
 6211TIP3    H140048   3.375   2.069  16.912 -0.5692 -0.8982 -1.0106
 6211TIP3    H240049   3.419   2.213  16.919  0.5271 -1.3074  1.4846
 6212TIP3   OH240050   5.815   6.232   3.946  0.2844 -0.0129  0.4564
 6212TIP3    H140051   5.850   6.160   3.893  0.6831  0.9682 -0.6494
 6212TIP3    H240052   5.735   6.195   3.985 -0.5217 -0.5431 -1.5321
 6213TIP3   OH240053   2.000   6.712  14.634 -0.0693 -0.7409 -0.6837
 6213TIP3    H140054   2.020   6.798  14.671 -1.1470  0.1795 -2.1374
 6213TIP3    H240055   2.074   6.693  14.576  1.7046 -2.2603  1.8671
 6214TIP3   OH240056   4.092   0.096  17.094  0.2129  0.0306  0.0879
 6214TIP3    H140057   4.095   0.021  17.035  1.8349 -0.1629  0.3747
 6214TIP3    H240058   4.133   0.167  17.044  1.0726  0.0188  0.7535
 6215TIP3   OH240059   1.224   6.336  12.506  0.5227 -0.2915  0.3090
 6215TIP3    H140060   1.164   6.411  12.495  1.3553  0.3840  0.2403
 6215TIP3    H240061   1.274   6.334  12.424 -0.6243 -1.9962 -0.4232
 6216TIP3   OH240062   2.045   2.590   3.393 -0.0687  0.3875 -0.1377
 6216TIP3    H140063   2.015   2.501   3.409  0.7695 -0.0907 -1.1142
 6216TIP3    H240064   2.140   2.582   3.384  0.3564  1.7563  2.2123
 6217TIP3   OH240065   4.890   2.663   2.853  0.1777 -0.0137  0.3702
 6217TIP3    H140066   4.834   2.722   2.802  2.4166  1.3946 -0.5939
 6217TIP3    H240067   4.908   2.589   2.795  0.3819  0.1708  0.1993
 6218TIP3   OH240068   2.908   3.998  13.645 -0.7456  0.1820 -0.0335
 6218TIP3    H140069   2.822   3.957  13.652 -0.1321 -1.1277  0.2757
 6218TIP3    H240070   2.966   3.939  13.693  0.0397  1.9648  1.3232
 6219TIP3   OH240071   6.278   3.459   6.074  0.3631 -0.0704  0.7278
 6219TIP3    H140072   6.239   3.373   6.086 -0.9602  0.5119  0.7713
 6219TIP3    H240073   6.302   3.462   5.981 -1.3502  0.2004  0.2701
 6220TIP3   OH240074   1.588   3.479  15.669  0.1668  0.1064 -0.1411
 6220TIP3    H140075   1.614   3.387  15.680  1.2196  0.3830 -0.1938
 6220TIP3    H240076   1.604   3.518  15.755  3.3130  1.0562 -1.0170
 6221TIP3   OH240077   1.615   3.043   4.721  0.1782 -0.0943 -0.1567
 6221TIP3    H140078   1.706   3.029   4.748  0.0576 -1.7966 -0.5004
 6221TIP3    H240079   1.564   3.031   4.801  0.1323 -1.0375 -0.3138
 6222TIP3   OH240080   5.683   0.466  13.450 -0.0082  0.2166 -0.0318
 6222TIP3    H140081   5.665   0.457  13.544  0.4394 -0.2209  0.0145
 6222TIP3    H240082   5.609   0.423  13.407 -0.5049  0.9144  0.1054
 6223TIP3   OH240083   3.451   4.210  14.439 -0.3124 -0.2070  0.6989
 6223TIP3    H140084   3.415   4.248  14.519 -1.5932  0.2383 -0.0666
 6223TIP3    H240085   3.383   4.222  14.373  1.3132  0.9345 -0.9062
 6224TIP3   OH240086   5.859   3.407  16.567  0.3149  0.5082  0.1177
 6224TIP3    H140087   5.834   3.375  16.654  0.4929  1.3109  0.4638
 6224TIP3    H240088   5.806   3.485  16.554 -0.8026 -0.4155 -1.1202
 6225TIP3   OH240089   3.008   5.765  13.525  0.3831  0.0905  0.3085
 6225TIP3    H140090   3.080   5.786  13.465  0.9527 -0.1258  0.8969
 6225TIP3    H240091   3.035   5.802  13.608  0.4299 -1.1164  0.8530
 6226TIP3   OH240092   2.706   4.721   4.910 -0.1936  0.0820  0.0855
 6226TIP3    H140093   2.770   4.703   4.842 -0.2318 -0.9264  0.3075
 6226TIP3    H240094   2.742   4.795   4.958  0.0041  0.5762 -0.7987
 6227TIP3   OH240095   0.432   6.448   4.974 -0.6433 -0.2468 -0.1984
 6227TIP3    H140096   0.451   6.540   4.988 -0.2849 -0.2735 -0.4775
 6227TIP3    H240097   0.511   6.402   5.004 -1.2564 -0.5441  0.9771
 6228TIP3   OH240098   0.747   4.781  11.811 -0.1191 -0.9031 -0.1939
 6228TIP3    H140099   0.788   4.801  11.727  0.7448 -1.6996  0.0144
 6228TIP3    H240100   0.671   4.727  11.789  1.3786 -3.0995 -0.4018
 6229TIP3   OH240101   4.304   1.136   6.172  0.2687  0.4255 -0.3467
 6229TIP3    H140102   4.293   1.185   6.253 -0.9721  0.1885 -0.3510
 6229TIP3    H240103   4.334   1.049   6.200 -0.8819  0.1061 -0.0750
 6230TIP3   OH240104   4.791   1.210  11.832 -0.3422  0.9561  0.0052
 6230TIP3    H140105   4.866   1.168  11.873 -1.0052 -0.6408 -0.3444
 6230TIP3    H240106   4.773   1.287  11.887 -0.6613 -0.6165  2.2295
 6231TIP3   OH240107   3.414   3.544  11.539 -0.2809  0.4383 -0.1494
 6231TIP3    H140108   3.485   3.489  11.505  0.8989  2.0690 -0.4304
 6231TIP3    H240109   3.441   3.567  11.627 -1.2519 -0.2064  0.3402
 6232TIP3   OH240110   0.827   3.660  13.173 -0.5077  0.1195  0.4196
 6232TIP3    H140111   0.917   3.630  13.155 -0.8639 -1.3297  0.8969
 6232TIP3    H240112   0.795   3.599  13.239 -1.2839  1.6519  1.5209
 6233TIP3   OH240113   6.422   2.088  13.417  0.0219  0.2614 -0.1836
 6233TIP3    H140114   6.497   2.028  13.419 -0.3490 -0.2330 -0.8320
 6233TIP3    H240115   6.453   2.162  13.365  0.0801  0.0777 -0.4143
 6234TIP3   OH240116   6.554   4.045  15.343  0.3749 -0.2959  0.5229
 6234TIP3    H140117   6.532   3.960  15.380 -1.7928 -0.3409 -0.7077
 6234TIP3    H240118   6.483   4.103  15.371  0.2448  0.3769 -1.1013
 6235TIP3   OH240119   3.749   0.280  16.681 -0.0926 -0.0837 -0.4891
 6235TIP3    H140120   3.715   0.317  16.763 -0.2320  1.2365 -1.1174
 6235TIP3    H240121   3.672   0.273  16.624  0.0200 -0.9075 -0.5613
 6236TIP3   OH240122   1.867   2.347   1.527  0.4199  0.3518 -0.0858
 6236TIP3    H140123   1.868   2.271   1.468  0.1498 -0.5128  0.9973
 6236TIP3    H240124   1.888   2.421   1.470  0.2857 -0.4699 -1.2479
 6237TIP3   OH240125   1.907   5.606   1.663  0.0082 -0.6671 -0.1927
 6237TIP3    H140126   1.907   5.681   1.723 -0.5731 -0.8505  0.0415
 6237TIP3    H240127   1.990   5.614   1.616  0.0989 -0.0544  0.0515
 6238TIP3   OH240128   5.108   0.277  17.192  0.4983  0.5360 -0.3023
 6238TIP3    H140129   5.120   0.330  17.271 -1.5703  0.1325  0.3355
 6238TIP3    H240130   5.148   0.192  17.213  0.5623  0.6513  0.0411
 6239TIP3   OH240131   5.690   6.147  14.991 -0.1435  0.0312  0.1193
 6239TIP3    H140132   5.652   6.172  14.907  1.9664 -0.0040 -0.8953
 6239TIP3    H240133   5.614   6.125  15.046 -1.5313 -1.1291 -2.1395
 6240TIP3   OH240134   5.581   0.236   5.426  0.3581 -0.3708  0.9762
 6240TIP3    H140135   5.608   0.288   5.351  0.6414 -0.5366  0.9618
 6240TIP3    H240136   5.655   0.240   5.487 -0.1065  0.2590  1.5137
 6241TIP3   OH240137   6.347   5.211   1.632  0.1394 -0.1572  0.5767
 6241TIP3    H140138   6.413   5.165   1.683  0.2660  0.3324  0.8596
 6241TIP3    H240139   6.276   5.228   1.695 -0.6261 -1.3927  0.0915
 6242TIP3   OH240140   6.636   1.237   2.698  0.0630 -0.0040 -0.2290
 6242TIP3    H140141   6.674   1.255   2.784 -3.0718  0.6615  1.1397
 6242TIP3    H240142   6.542   1.237   2.712 -0.5712 -0.6970 -3.5458
 6243TIP3   OH240143   5.298   4.747  13.660  0.3219 -0.2472 -0.3140
 6243TIP3    H140144   5.331   4.665  13.623  1.7735  0.5951 -0.9476
 6243TIP3    H240145   5.287   4.805  13.584 -1.3395 -0.0407  0.0452
 6244TIP3   OH240146   5.809   0.886  13.585  0.2224 -0.7721 -0.0406
 6244TIP3    H140147   5.760   0.855  13.662  0.3863 -1.7971 -0.3288
 6244TIP3    H240148   5.759   0.852  13.510  1.5164 -2.1202 -0.3396
 6245TIP3   OH240149   0.236   2.643   2.315 -0.3038  0.7219  0.0380
 6245TIP3    H140150   0.269   2.600   2.393  0.5929  1.8976  0.3397
 6245TIP3    H240151   0.249   2.579   2.245 -0.9684 -0.2761  0.8041
 6246TIP3   OH240152   6.238   5.118   1.912 -0.4149  0.5007  0.9407
 6246TIP3    H140153   6.213   5.051   1.976  2.4098  0.1316  1.7971
 6246TIP3    H240154   6.317   5.083   1.871 -0.4977  2.0675 -0.6715
 6247TIP3   OH240155   4.859   3.472   3.702 -0.3691 -0.0250 -0.2869
 6247TIP3    H140156   4.770   3.480   3.669 -0.6427 -0.0898  0.4137
 6247TIP3    H240157   4.871   3.550   3.757  0.1706  0.2233 -0.7425
 6248TIP3   OH240158   5.879   5.147   3.471 -0.6517 -0.1447  0.5858
 6248TIP3    H140159   5.972   5.160   3.450 -0.9158  1.7482  0.3736
 6248TIP3    H240160   5.879   5.123   3.564  0.0412  0.3250  0.7217
 6249TIP3   OH240161   1.447   1.053   4.005 -0.4766  0.5139  0.3205
 6249TIP3    H140162   1.502   0.977   3.987  0.2384  1.6017 -2.6622
 6249TIP3    H240163   1.498   1.105   4.068  0.4667  0.0000 -0.0098
 6250TIP3   OH240164   5.264   0.295  14.381  0.4760  0.4360 -0.5266
 6250TIP3    H140165   5.306   0.285  14.467  0.9831 -1.1626 -0.9319
 6250TIP3    H240166   5.246   0.389  14.374  0.4009  0.5951  1.3290
 6251TIP3   OH240167   5.299   0.089  17.023 -0.4908 -0.0333  0.0900
 6251TIP3    H140168   5.353   0.158  17.059  0.1454 -0.2940 -0.3440
 6251TIP3    H240169   5.238   0.067  17.093  0.3862 -0.1806  0.8182
 6252TIP3   OH240170   6.044   6.305  15.914  0.8543  0.2683  0.7223
 6252TIP3    H140171   6.086   6.382  15.951  0.5613 -0.4186  2.6348
 6252TIP3    H240172   5.955   6.307  15.950  0.4233 -0.2683 -0.2665
 6253TIP3   OH240173   2.025   3.821  14.510 -0.0306  0.2151  0.2729
 6253TIP3    H140174   2.035   3.821  14.605 -0.1249  2.2487  0.3198
 6253TIP3    H240175   2.112   3.841  14.476 -0.6644  3.3652  0.1515
 6254TIP3   OH240176   2.163   0.187   0.611  0.2810 -0.6145  0.2186
 6254TIP3    H140177   2.187   0.239   0.687 -0.1436 -0.3393  0.1685
 6254TIP3    H240178   2.224   0.215   0.543  0.0688 -0.1897  0.1978
 6255TIP3   OH240179   5.026   6.239  16.457 -0.3686  0.1671  0.0463
 6255TIP3    H140180   5.080   6.175  16.505  0.3507 -0.6872 -1.7999
 6255TIP3    H240181   4.936   6.209  16.471 -0.1195 -0.5363  0.2119
 6256TIP3   OH240182   2.238   4.639  15.017  0.2289  0.0360 -0.3422
 6256TIP3    H140183   2.247   4.671  15.106  0.4804 -3.3215  0.9917
 6256TIP3    H240184   2.148   4.662  14.992  0.2129  1.1609  0.7036
 6257TIP3   OH240185   6.256   4.235   3.135 -0.5582  0.0480 -0.1702
 6257TIP3    H140186   6.215   4.230   3.221 -0.3308  1.2004  0.0249
 6257TIP3    H240187   6.327   4.299   3.145  2.7961 -3.3972  0.0607
 6258TIP3   OH240188   0.302   4.412  11.017  0.0493 -0.2373  0.0851
 6258TIP3    H140189   0.351   4.345  10.969  0.1093 -0.4324  0.4152
 6258TIP3    H240190   0.320   4.494  10.971  1.0696 -0.2246  0.4774
 6259TIP3   OH240191   3.850   0.880  12.724  0.0387 -0.1121 -0.6843
 6259TIP3    H140192   3.846   0.796  12.770 -0.3549  0.0363 -0.4359
 6259TIP3    H240193   3.815   0.862  12.637 -2.2795  0.2560  0.0931
 6260TIP3   OH240194   4.798   5.145   3.585  0.4542 -0.0428 -0.7363
 6260TIP3    H140195   4.727   5.101   3.631 -0.4035  2.5085  0.5424
 6260TIP3    H240196   4.757   5.185   3.509  1.0755 -0.7687 -1.4741
 6261TIP3   OH240197   0.504   1.026  11.769  0.6516  0.4260 -0.4320
 6261TIP3    H140198   0.527   0.974  11.692 -0.2777  1.5449 -1.5272
 6261TIP3    H240199   0.408   1.034  11.764  0.6483  1.0624  0.4756
 6262TIP3   OH240200   2.714   3.885  14.692 -0.7977 -0.2941 -0.1093
 6262TIP3    H140201   2.737   3.862  14.602  0.9171  1.6781 -0.2672
 6262TIP3    H240202   2.765   3.825  14.746  0.1227  0.1406 -0.4800
 6263TIP3   OH240203   3.111   2.545  12.844 -0.0111 -0.2188  0.1901
 6263TIP3    H140204   3.034   2.574  12.796  0.8901  0.1510 -1.1046
 6263TIP3    H240205   3.077   2.508  12.925 -1.3846  2.5154  1.0042
 6264TIP3   OH240206   3.790   4.086   2.874 -0.0822 -0.3014 -0.1656
 6264TIP3    H140207   3.736   4.153   2.914 -0.1418 -0.7887  0.5953
 6264TIP3    H240208   3.847   4.133   2.814 -0.6510  0.3330 -0.2147
 6265TIP3   OH240209   6.798   4.145  10.935 -0.2777 -0.1136 -0.1363
 6265TIP3    H140210   6.846   4.196  11.000  1.1823  0.9256 -1.9629
 6265TIP3    H240211   6.736   4.207  10.896  0.2420 -0.2000 -1.1128
 6266TIP3   OH240212   0.578   1.311  11.275  0.0098  0.4122 -0.4664
 6266TIP3    H140213   0.569   1.333  11.183 -1.3515 -2.3222 -1.0967
 6266TIP3    H240214   0.488   1.311  11.308  0.4478  0.9646  0.7882
 6267TIP3   OH240215   4.112   2.940  16.548 -0.3048 -0.3195  0.0117
 6267TIP3    H140216   4.174   2.868  16.560 -0.0506  0.0121  0.7542
 6267TIP3    H240217   4.030   2.898  16.523 -0.1388 -0.8582  0.3739
 6268TIP3   OH240218   3.049   3.934  14.601  0.1510 -0.4459 -0.5157
 6268TIP3    H140219   3.112   3.962  14.536 -1.2398  1.5159 -1.1175
 6268TIP3    H240220   2.969   3.915  14.551 -0.2258 -1.3343  0.3796
 6269TIP3   OH240221   4.053   6.633  12.559 -0.4088  0.0999 -0.0964
 6269TIP3    H140222   4.023   6.694  12.626 -0.6466  0.6643 -0.7104
 6269TIP3    H240223   4.056   6.684  12.479 -0.2593 -0.6049 -0.5514
 6270TIP3   OH240224   5.003   2.435  12.600  1.2082  0.1653  0.1432
 6270TIP3    H140225   5.099   2.437  12.601  1.3576 -2.5812 -0.0253
 6270TIP3    H240226   4.979   2.424  12.692  0.9661  1.6948  0.2866
 6271TIP3   OH240227   1.102   2.608  14.113  0.2800  0.3482  0.3808
 6271TIP3    H140228   1.113   2.557  14.193 -0.3566 -0.1577  0.1560
 6271TIP3    H240229   1.191   2.635  14.089  0.8352 -1.9332 -0.3149
 6272TIP3   OH240230   4.593   1.813  15.059  0.3609 -0.0468  0.3107
 6272TIP3    H140231   4.612   1.897  15.018 -0.9534 -0.0542 -0.3388
 6272TIP3    H240232   4.676   1.765  15.054  0.8338  0.8030 -0.2691
 6273TIP3   OH240233   0.320   3.630   5.553 -0.5085  0.1614  0.7242
 6273TIP3    H140234   0.272   3.672   5.481 -0.0681  0.6741  0.7249
 6273TIP3    H240235   0.255   3.622   5.623 -0.4599  1.3598  0.9212
 6274TIP3   OH240236   1.392   0.736  17.035 -0.1544 -0.4443 -0.9294
 6274TIP3    H140237   1.417   0.826  17.058 -0.0227 -0.0431 -2.4935
 6274TIP3    H240238   1.307   0.745  16.992 -1.7644 -1.4806  1.7598
 6275TIP3   OH240239   6.365   3.291  16.598  0.4581 -0.3200  0.2441
 6275TIP3    H140240   6.301   3.334  16.541  2.4468 -0.3725 -2.2027
 6275TIP3    H240241   6.449   3.327  16.570  1.5889 -0.4004  3.1984
 6276TIP3   OH240242   2.102   1.824   6.057  0.2471 -1.0489 -0.4078
 6276TIP3    H140243   2.128   1.851   6.145  0.7934 -0.4248 -0.7563
 6276TIP3    H240244   2.130   1.732   6.051  0.7097 -0.9303 -0.1305
 6277TIP3   OH240245   1.534   3.197  15.953 -0.4345  0.1428 -0.2937
 6277TIP3    H140246   1.567   3.159  16.035 -1.1636  1.7068  0.7640
 6277TIP3    H240247   1.601   3.174  15.888  0.8927  0.0991  1.0240
 6278TIP3   OH240248   4.065   0.792  12.989 -0.1356 -0.0422  0.6955
 6278TIP3    H140249   4.150   0.756  13.014  0.0020  0.3595  0.8039
 6278TIP3    H240250   4.005   0.717  12.995  0.3208 -0.4712  0.0138
 6279TIP3   OH240251   0.377   6.040  16.557  0.6078 -0.2073  0.3701
 6279TIP3    H140252   0.456   6.020  16.507  0.0164 -1.9517  0.0662
 6279TIP3    H240253   0.355   5.958  16.601 -1.3608  0.0544 -0.0222
 6280TIP3   OH240254   5.198   6.456  11.465 -0.0553  0.1554  0.1810
 6280TIP3    H140255   5.189   6.365  11.435 -0.5177  0.4718 -0.6728
 6280TIP3    H240256   5.283   6.484  11.431 -0.3053  0.3163 -0.3249
 6281TIP3   OH240257   5.771   2.861   1.222  0.3191  0.2922 -0.0260
 6281TIP3    H140258   5.770   2.918   1.145 -1.2006  0.3936  0.0307
 6281TIP3    H240259   5.863   2.853   1.245  0.8668 -0.0934 -2.1177
 6282TIP3   OH240260   6.171   4.518  15.275 -0.3057 -0.6048 -0.6565
 6282TIP3    H140261   6.239   4.477  15.222  0.3151 -1.0703  0.4568
 6282TIP3    H240262   6.216   4.547  15.354 -1.2137  0.0050 -0.3426
 6283TIP3   OH240263   2.381   4.066   2.687 -0.1707  0.4609  0.0013
 6283TIP3    H140264   2.382   3.975   2.658  1.6114  0.9476 -1.6615
 6283TIP3    H240265   2.292   4.096   2.670 -0.1656 -0.3462 -1.6003
 6284TIP3   OH240266   1.789   6.590  14.350 -0.4472  0.6230  0.4755
 6284TIP3    H140267   1.756   6.509  14.312 -2.1400  0.5684  1.9414
 6284TIP3    H240268   1.720   6.654  14.334 -0.0641  1.2297  1.1894
 6285TIP3   OH240269   6.142   6.201  13.076  0.0021  0.0523 -0.2715
 6285TIP3    H140270   6.237   6.213  13.079 -0.1769  1.5892 -0.0701
 6285TIP3    H240271   6.108   6.284  13.044 -1.3390 -0.1674  0.4972
 6286TIP3   OH240272   4.731   0.340  13.345  0.3902  0.2380  0.2857
 6286TIP3    H140273   4.758   0.346  13.437 -0.9538 -0.0924  0.7258
 6286TIP3    H240274   4.643   0.378  13.343  0.1198 -0.3917 -0.7265
 6287TIP3   OH240275   2.436   5.090   1.566 -0.2763 -0.3411 -0.4425
 6287TIP3    H140276   2.455   5.166   1.511 -0.1396 -0.7398 -0.9469
 6287TIP3    H240277   2.346   5.105   1.596  0.1822  0.6591  0.5228
 6288TIP3   OH240278   2.094   5.421   2.853 -0.3629 -0.4699  0.0630
 6288TIP3    H140279   2.015   5.401   2.904 -0.4519  1.9956  1.0053
 6288TIP3    H240280   2.160   5.360   2.885 -1.2387 -0.9770  0.9508
 6289TIP3   OH240281   6.768   6.264  12.591  0.3320  0.0187 -0.3685
 6289TIP3    H140282   6.719   6.213  12.655 -0.8761  0.0994 -1.1858
 6289TIP3    H240283   6.837   6.204  12.561 -0.3897 -0.7699 -0.5183
 6290TIP3   OH240284   0.228   4.463  15.672  0.0600  0.7898  0.2894
 6290TIP3    H140285   0.165   4.519  15.715 -1.2003  0.6951 -1.3260
 6290TIP3    H240286   0.186   4.438  15.590  0.5952 -2.4166  0.8457
 6291TIP3   OH240287   2.670   0.273  13.245 -0.9741 -0.1832 -0.3645
 6291TIP3    H140288   2.639   0.185  13.266  0.3903 -0.6612 -0.2800
 6291TIP3    H240289   2.604   0.331  13.282 -0.2018 -1.0556  2.6082
 6292TIP3   OH240290   0.141   2.057  14.253 -0.0227  0.4289 -0.3587
 6292TIP3    H140291   0.084   2.052  14.329  0.3101 -0.9155 -0.1776
 6292TIP3    H240292   0.206   1.988  14.267  1.1925  1.4016 -0.9359
 6293TIP3   OH240293   5.042   3.571  13.525  0.2698  0.3265 -0.3207
 6293TIP3    H140294   5.117   3.526  13.564  0.0437  1.4144  1.4478
 6293TIP3    H240295   5.028   3.526  13.442  0.6099 -2.2560  0.9404
 6294TIP3   OH240296   4.325   0.855   4.539  0.0866 -0.0932 -0.0362
 6294TIP3    H140297   4.319   0.790   4.609  0.6979 -0.2977 -0.1640
 6294TIP3    H240298   4.367   0.931   4.579 -0.0367 -0.0172 -0.0502
 6295TIP3   OH240299   0.298   4.830  17.184 -0.1210 -0.0686 -0.0019
 6295TIP3    H140300   0.225   4.806  17.241 -1.4190  1.5834 -0.8366
 6295TIP3    H240301   0.272   4.798  17.098 -0.5337  1.6067 -0.5540
 6296TIP3   OH240302   5.245   3.831  11.836  0.2653  0.1054 -0.4061
 6296TIP3    H140303   5.324   3.882  11.814  0.7260 -0.4960 -0.1688
 6296TIP3    H240304   5.263   3.797  11.923 -0.6191  0.6477 -0.0015
 6297TIP3   OH240305   0.556   0.161  15.806  0.1195  0.2686 -0.2350
 6297TIP3    H140306   0.496   0.087  15.807  0.8186 -0.5513 -3.8571
 6297TIP3    H240307   0.633   0.130  15.854 -0.4468 -0.5399  0.1771
 6298TIP3   OH240308   3.159   4.034   4.035  0.1046  0.1151  0.7009
 6298TIP3    H140309   3.190   4.089   4.108 -2.2253  0.0999  1.7957
 6298TIP3    H240310   3.218   3.959   4.036  0.2980  0.2246  2.4515
 6299TIP3   OH240311   6.235   2.144  14.687 -0.1427  0.0172  0.0379
 6299TIP3    H140312   6.321   2.156  14.727  0.4255 -0.2352 -1.0859
 6299TIP3    H240313   6.232   2.052  14.661 -0.9098 -0.0740  0.4070
 6300TIP3   OH240314   3.582   3.511   2.481  0.9231 -0.0295 -0.2263
 6300TIP3    H140315   3.487   3.514   2.495  0.9929  1.1855  0.0443
 6300TIP3    H240316   3.593   3.445   2.413 -0.2434  0.7223 -1.1952
 6301TIP3   OH240317   0.176   2.386  10.158  0.0894  0.1883 -0.6813
 6301TIP3    H140318   0.256   2.348  10.194  1.3626  1.8680 -1.5785
 6301TIP3    H240319   0.203   2.471  10.123 -2.4594  1.6456  0.5943
 6302TIP3   OH240320   5.825   1.769  14.574  0.2935  0.7413  0.8040
 6302TIP3    H140321   5.799   1.729  14.657  2.2806  0.8811  1.5563
 6302TIP3    H240322   5.848   1.859  14.596  4.2661 -0.0962  0.9759
 6303TIP3   OH240323   5.909   2.401   1.814 -0.1245 -0.2123 -0.3727
 6303TIP3    H140324   5.978   2.358   1.763 -0.9725 -1.0262 -0.8645
 6303TIP3    H240325   5.858   2.449   1.749  1.0056  1.9068  0.2053
 6304TIP3   OH240326   2.485   4.685   4.311 -0.0244  0.4587  0.3139
 6304TIP3    H140327   2.445   4.643   4.235 -0.8624  1.2997  0.2790
 6304TIP3    H240328   2.512   4.613   4.367  2.6621 -0.3140 -1.7627
 6305TIP3   OH240329   5.907   0.263   0.094 -0.5213 -0.0151 -0.0532
 6305TIP3    H140330   5.937   0.192   0.151 -1.0708 -0.7103 -0.6164
 6305TIP3    H240331   5.816   0.241   0.073 -0.5622  0.6230 -0.5821
 6306TIP3   OH240332   6.292   0.782  13.784 -0.2266  0.4754 -0.3295
 6306TIP3    H140333   6.216   0.792  13.727 -1.0722 -0.3444  0.6333
 6306TIP3    H240334   6.340   0.708  13.748  0.7996  1.7281 -1.6524
 6307TIP3   OH240335   5.636   1.526  12.919 -0.8736  0.0284 -0.4963
 6307TIP3    H140336   5.613   1.586  12.991 -1.7548 -2.0961  1.1318
 6307TIP3    H240337   5.731   1.531  12.913 -0.5657 -1.0394  2.1336
 6308TIP3   OH240338   2.543   6.658  13.083 -0.2102  0.0178  0.4124
 6308TIP3    H140339   2.500   6.653  12.998 -0.3471 -0.4211  0.5058
 6308TIP3    H240340   2.616   6.718  13.070 -0.5799  0.4146  0.1368
 6309TIP3   OH240341   1.989   5.229   1.143  0.5832  1.1551 -0.0957
 6309TIP3    H140342   1.922   5.288   1.108 -0.3002  0.3911  0.2806
 6309TIP3    H240343   2.044   5.285   1.199  0.4217  1.8350 -0.6086
 6310TIP3   OH240344   6.610   0.337  12.023 -0.1590 -0.3238  0.0092
 6310TIP3    H140345   6.594   0.315  12.115  0.2020 -0.1645  0.1137
 6310TIP3    H240346   6.532   0.306  11.977 -0.1269 -0.8493  0.2992
 6311TIP3   OH240347   6.255   1.650  14.708  0.5653 -0.1121 -0.1713
 6311TIP3    H140348   6.325   1.694  14.756  0.7412 -1.2380  0.6290
 6311TIP3    H240349   6.207   1.721  14.666  3.8349  0.6267 -3.1641
 6312TIP3   OH240350   0.039   0.715   4.369 -0.1204 -0.4104 -0.4487
 6312TIP3    H140351   0.057   0.624   4.345 -0.0136 -0.6169  0.3808
 6312TIP3    H240352  -0.007   0.709   4.452 -0.0622  0.3009 -0.3600
 6313TIP3   OH240353   3.949   3.410  12.433  0.2285  0.6058 -0.3483
 6313TIP3    H140354   3.975   3.333  12.383  0.1136 -0.0732  0.6091
 6313TIP3    H240355   3.864   3.388  12.470 -0.3916  1.6869 -1.0672
 6314TIP3   OH240356   0.668   1.867   6.390  0.1621  0.3254 -0.0878
 6314TIP3    H140357   0.705   1.790   6.433 -0.7510 -0.1797 -0.1759
 6314TIP3    H240358   0.653   1.930   6.460  0.0215  0.0590  0.1200
 6315TIP3   OH240359   2.009   0.019   2.532  0.3767  0.3413  0.4919
 6315TIP3    H140360   2.104   0.012   2.531  0.4309  1.0112 -0.5856
 6315TIP3    H240361   1.979  -0.070   2.553  1.2066 -0.4639 -1.5175
 6316TIP3   OH240362   2.359   6.058  13.319  0.0705  0.3305 -0.7668
 6316TIP3    H140363   2.316   6.122  13.263 -2.1508 -0.4576 -0.0537
 6316TIP3    H240364   2.297   6.041  13.390  1.0163 -1.8220 -0.3540
 6317TIP3   OH240365   5.234   2.553  17.099  0.0709  0.0967 -0.7371
 6317TIP3    H140366   5.151   2.588  17.131  0.4711 -1.4243  2.3135
 6317TIP3    H240367   5.223   2.549  17.004 -3.1679  0.4009 -0.4952
 6318TIP3   OH240368   3.260   5.450   2.675 -0.5348 -0.3529 -0.4959
 6318TIP3    H140369   3.273   5.449   2.580  0.2835 -0.3460 -0.3876
 6318TIP3    H240370   3.242   5.359   2.698 -0.7666 -0.3493 -0.6598
 6319TIP3   OH240371   1.605   4.837   4.550 -0.4184  0.0957 -0.0629
 6319TIP3    H140372   1.612   4.743   4.534 -1.0082  0.2899 -1.6305
 6319TIP3    H240373   1.570   4.844   4.639  1.8835 -1.1105  1.0347
 6320TIP3   OH240374   3.231   1.586   3.766 -0.4391 -0.6624  0.8894
 6320TIP3    H140375   3.256   1.613   3.678  0.3579  1.0641  1.5894
 6320TIP3    H240376   3.220   1.491   3.760  1.2921 -0.8244 -0.6828
 6321TIP3   OH240377   0.104   5.823   0.067 -0.0829 -0.9071 -0.1549
 6321TIP3    H140378   0.095   5.900   0.010 -0.5163 -0.6795  0.2162
 6321TIP3    H240379   0.169   5.768   0.023  2.7949  1.1759  1.1739
 6322TIP3   OH240380   2.335   5.774   2.433  0.2729  0.1063 -0.7066
 6322TIP3    H140381   2.253   5.785   2.481 -0.7256 -0.5648 -2.1772
 6322TIP3    H240382   2.341   5.852   2.378  0.5447  0.0741 -0.7238
 6323TIP3   OH240383   6.091   2.292   4.226  0.1641  0.0467 -0.2048
 6323TIP3    H140384   6.021   2.291   4.292  1.0676 -0.1802  0.7725
 6323TIP3    H240385   6.143   2.369   4.246  0.9426 -0.4895 -0.1164
 6324TIP3   OH240386   2.905   1.592  12.164  0.2196 -0.2696  0.1715
 6324TIP3    H140387   2.815   1.609  12.191  0.6836  1.6332  0.6490
 6324TIP3    H240388   2.902   1.596  12.068  0.2665  2.7979  0.2187
 6325TIP3   OH240389   6.633   4.226   5.232 -0.0185  0.2424 -0.1035
 6325TIP3    H140390   6.555   4.241   5.178  1.4643  1.3805 -2.0629
 6325TIP3    H240391   6.631   4.133   5.251 -1.7905  0.2242 -0.1914
 6326TIP3   OH240392   3.028   4.509  11.892  0.2142  0.3129  0.5236
 6326TIP3    H140393   2.945   4.468  11.869  0.6140 -1.1603  1.6029
 6326TIP3    H240394   3.024   4.519  11.987  1.2229  0.3374  0.5678
 6327TIP3   OH240395   6.614   0.856   5.036  0.4180 -0.1243 -0.0688
 6327TIP3    H140396   6.553   0.918   4.995  0.2119  0.6308  1.3284
 6327TIP3    H240397   6.566   0.773   5.038  0.3707 -0.1414 -1.1662
 6328TIP3   OH240398   4.161   3.233  13.488 -0.4070  0.1426  0.4599
 6328TIP3    H140399   4.123   3.234  13.401 -1.3765  1.8646  0.8472
 6328TIP3    H240400   4.086   3.235  13.547  0.2404  0.1654  1.3068
 6329TIP3   OH240401   0.675   5.701   4.711 -0.2388 -0.6810  0.3993
 6329TIP3    H140402   0.759   5.664   4.739  0.3956 -0.1029 -0.6535
 6329TIP3    H240403   0.625   5.625   4.680  0.4395 -0.8680 -0.2651
 6330TIP3   OH240404   2.402   0.051   0.238  0.0377 -0.3686  0.0109
 6330TIP3    H140405   2.407  -0.014   0.308 -0.2692 -0.4112 -0.0059
 6330TIP3    H240406   2.441   0.130   0.276  2.6626 -1.2090 -0.7484
 6331TIP3   OH240407   2.848   5.475   2.288 -0.0258 -0.0194  0.1249
 6331TIP3    H140408   2.793   5.548   2.257  1.6574  1.7642  1.1507
 6331TIP3    H240409   2.927   5.517   2.321  1.3646 -2.4081  0.0343
 6332TIP3   OH240410   3.185   5.943  16.886  0.5372 -0.4869 -0.5135
 6332TIP3    H140411   3.142   5.875  16.938 -1.1592 -0.7252 -2.1574
 6332TIP3    H240412   3.186   5.908  16.797  2.2569  0.4494 -0.9153
 6333TIP3   OH240413   2.235   4.256   3.253  0.2598 -0.4503  0.1244
 6333TIP3    H140414   2.312   4.271   3.199  1.8774 -1.5138  1.9907
 6333TIP3    H240415   2.186   4.188   3.206  1.1136 -0.6654 -0.4876
 6334TIP3   OH240416   5.779   2.237  16.084  0.5004 -0.0038 -0.5005
 6334TIP3    H140417   5.813   2.261  16.170  0.1724  0.4487 -0.4975
 6334TIP3    H240418   5.846   2.268  16.023  1.0901 -0.9765 -0.3751
 6335TIP3   OH240419   5.554   0.185  12.027 -0.2861 -0.0432  0.8536
 6335TIP3    H140420   5.541   0.280  12.033 -0.1431 -0.0076  0.5975
 6335TIP3    H240421   5.535   0.153  12.115 -1.1861  0.1163  0.7259
 6336TIP3   OH240422   0.056   1.823   2.888  0.4041  0.3268 -0.0419
 6336TIP3    H140423   0.068   1.775   2.807  0.2854  0.7462 -0.3097
 6336TIP3    H240424   0.011   1.761   2.946  1.4299 -0.3327  0.0680
 6337TIP3   OH240425   6.461   0.601  12.203 -0.0710  0.6141  0.1339
 6337TIP3    H140426   6.532   0.608  12.268  1.1995 -1.6975 -0.8940
 6337TIP3    H240427   6.396   0.544  12.245 -0.1181  0.6338  0.0877
 6338TIP3   OH240428   1.626   1.003  13.557  0.1081 -0.1109 -0.0066
 6338TIP3    H140429   1.690   1.074  13.558 -0.5477  0.5872 -2.0692
 6338TIP3    H240430   1.672   0.929  13.596  1.7817  0.6875 -0.3736
 6339TIP3   OH240431   0.118   5.198  11.982  0.0200 -0.4844 -0.5119
 6339TIP3    H140432   0.083   5.109  11.974 -1.0772 -0.2440  1.0457
 6339TIP3    H240433   0.110   5.218  12.075 -0.5728  1.5648 -0.9593
 6340TIP3   OH240434   0.790   2.105  14.199  0.4087  0.0354  0.5949
 6340TIP3    H140435   0.860   2.070  14.254  0.5898  0.8374  0.8817
 6340TIP3    H240436   0.734   2.029  14.180  0.5881 -0.3326  1.5123
 6341TIP3   OH240437   5.854   1.190   4.169 -0.7888  0.3935 -0.0997
 6341TIP3    H140438   5.789   1.160   4.105 -0.9465  0.3410  0.0805
 6341TIP3    H240439   5.801   1.230   4.239 -0.6355  0.1952  0.1288
 6342TIP3   OH240440   0.874   0.349  13.108 -0.2106  0.6941 -0.4802
 6342TIP3    H140441   0.879   0.436  13.069  1.3342  0.6452 -0.4466
 6342TIP3    H240442   0.932   0.295  13.055  0.5053  0.1983  0.7512
 6343TIP3   OH240443   6.316   0.399   4.323 -0.4843  0.3055 -0.2890
 6343TIP3    H140444   6.282   0.439   4.243 -0.6197  0.6820 -0.0465
 6343TIP3    H240445   6.324   0.471   4.385  2.6801  0.6438 -0.9289
 6344TIP3   OH240446   0.054   4.235  15.107  0.0102 -0.6029  0.1750
 6344TIP3    H140447  -0.008   4.256  15.036 -1.2686 -0.3751  1.3162
 6344TIP3    H240448   0.130   4.289  15.088 -0.2126 -0.7039 -1.1393
 6345TIP3   OH240449   0.573   1.818  14.831 -0.4121 -0.1649  0.5261
 6345TIP3    H140450   0.569   1.823  14.736  0.1416  0.8419  0.5408
 6345TIP3    H240451   0.528   1.897  14.861  0.1391 -0.0491  1.0800
 6346TIP3   OH240452   5.152   2.693  12.800  0.1835  0.3628  0.5292
 6346TIP3    H140453   5.091   2.731  12.863 -2.1767 -1.6395 -0.3707
 6346TIP3    H240454   5.201   2.628  12.849 -0.6851 -0.2323  0.6312
 6347TIP3   OH240455   1.925   5.257   2.163  0.2063 -0.9517 -0.1512
 6347TIP3    H140456   1.869   5.323   2.123  0.3283 -0.4705  0.4581
 6347TIP3    H240457   1.871   5.178   2.165 -0.2253 -0.6612 -0.1452
 6348TIP3   OH240458   0.398   1.509   0.848  0.9629 -0.1311 -0.2437
 6348TIP3    H140459   0.310   1.472   0.846  0.7784  0.3312 -0.8638
 6348TIP3    H240460   0.435   1.489   0.762  0.8273  1.1861 -0.6234
 6349TIP3   OH240461   5.463   4.674  15.468  0.6242 -0.0218  0.1256
 6349TIP3    H140462   5.410   4.751  15.487  1.2611  0.0841  1.6269
 6349TIP3    H240463   5.439   4.650  15.378 -0.6060  1.0830  0.1232
 6350TIP3   OH240464   2.145   5.090   3.679 -0.4340  0.0608 -0.3345
 6350TIP3    H140465   2.237   5.069   3.692  0.0666  2.6137  1.0289
 6350TIP3    H240466   2.112   5.108   3.767 -1.6834  1.1391 -0.9826
 6351TIP3   OH240467   1.694   2.621   1.453  0.6167 -0.6895  1.1303
 6351TIP3    H140468   1.606   2.654   1.440  0.3825 -0.5152  2.9697
 6351TIP3    H240469   1.735   2.628   1.367 -1.1078 -0.6782  0.2658
 6352TIP3   OH240470   1.056   1.773  12.878 -0.1083 -0.0986 -0.5590
 6352TIP3    H140471   1.050   1.714  12.803  0.8320 -0.1509 -0.6076
 6352TIP3    H240472   1.145   1.758  12.912 -1.0645 -1.3438  1.5886
 6353TIP3   OH240473   4.540   6.508  10.499  0.0740  0.2810 -0.2638
 6353TIP3    H140474   4.549   6.582  10.440  0.8903 -0.2009 -0.7621
 6353TIP3    H240475   4.519   6.548  10.584 -1.8646  0.9296 -1.0030
 6354TIP3   OH240476   4.375   1.113  15.006 -0.2117 -0.0914  0.3880
 6354TIP3    H140477   4.280   1.129  15.009 -0.2605  0.7025 -2.2105
 6354TIP3    H240478   4.413   1.201  15.004  0.6435 -0.4063  1.7537
 6355TIP3   OH240479   0.439   5.040  15.312 -0.4029  0.3704 -0.1099
 6355TIP3    H140480   0.436   5.085  15.396  0.6449  0.5688 -0.1705
 6355TIP3    H240481   0.435   4.947  15.333 -1.1164  0.4430  0.0975
 6356TIP3   OH240482   1.148   3.823  11.915 -0.0572  0.6589  0.3302
 6356TIP3    H140483   1.123   3.799  11.825  0.0749 -0.1998  0.5168
 6356TIP3    H240484   1.243   3.822  11.914 -0.0387  1.5550  0.2529
 6357TIP3   OH240485   3.950   6.474  14.350 -0.6437  0.1062  0.1289
 6357TIP3    H140486   3.969   6.381  14.355  0.6518  0.4057  2.0166
 6357TIP3    H240487   3.919   6.488  14.261  0.7005 -1.8467 -0.7084
 6358TIP3   OH240488   4.766   6.512  15.507 -0.4759  0.3021  0.5573
 6358TIP3    H140489   4.691   6.465  15.469 -0.0910  0.4828 -0.4642
 6358TIP3    H240490   4.750   6.510  15.602 -0.2808 -2.2302  0.5996
 6359TIP3   OH240491   0.710   3.325   0.215 -0.1218 -0.3178 -0.1762
 6359TIP3    H140492   0.652   3.375   0.159 -1.3611 -1.3170  0.1650
 6359TIP3    H240493   0.709   3.371   0.299  0.7555  0.4760 -0.5783
 6360TIP3   OH240494   3.043   0.499   4.043 -0.7624 -0.8735 -0.3301
 6360TIP3    H140495   3.125   0.548   4.056 -1.7970  0.5401  1.3938
 6360TIP3    H240496   3.068   0.407   4.056  0.7652 -0.5954 -1.0453
 6361TIP3   OH240497   5.683   2.816   1.895 -0.3132 -0.2305  0.5125
 6361TIP3    H140498   5.746   2.804   1.966  0.5034  0.5968 -0.0479
 6361TIP3    H240499   5.735   2.806   1.815 -1.3345 -1.7582  0.0118
 6362TIP3   OH240500   2.912   0.330   4.313 -0.2312 -0.0588 -0.5279
 6362TIP3    H140501   2.840   0.292   4.363 -0.0688 -0.4175 -0.5621
 6362TIP3    H240502   2.950   0.256   4.266  1.3957 -0.2432  0.9834
 6363TIP3   OH240503   2.588   3.489   2.556 -0.0446 -0.0609 -0.4928
 6363TIP3    H140504   2.671   3.442   2.556  0.6572  1.0348  1.8308
 6363TIP3    H240505   2.522   3.420   2.567  0.8704 -0.7076  1.5067
 6364TIP3   OH240506   2.918   1.092   4.679 -0.0646 -0.6614  0.8728
 6364TIP3    H140507   2.911   1.147   4.601  0.3984 -2.6125 -0.6341
 6364TIP3    H240508   2.929   1.003   4.645  1.0542 -1.4905  3.1715
 6365TIP3   OH240509   2.817   6.466   5.704  0.4982 -0.2956 -0.1573
 6365TIP3    H140510   2.833   6.504   5.618 -1.0039  2.1965  0.5442
 6365TIP3    H240511   2.904   6.455   5.742  1.1038 -0.0319 -1.4223
 6366TIP3   OH240512   5.177   3.124   5.426 -0.3033 -0.2135  0.4462
 6366TIP3    H140513   5.142   3.063   5.491  0.5407 -1.7844 -0.5066
 6366TIP3    H240514   5.200   3.069   5.351  0.6886  1.2621 -0.3873
 6367TIP3   OH240515   4.756   3.312   3.024  0.6606 -0.3224 -0.1420
 6367TIP3    H140516   4.765   3.378   2.955  2.4402  0.9490  1.2146
 6367TIP3    H240517   4.829   3.252   3.010  1.4027  0.2946  0.9510
 6368TIP3   OH240518   2.326   0.879   0.706 -0.4367 -0.7213 -0.0937
 6368TIP3    H140519   2.360   0.808   0.652 -0.7126 -0.3497 -0.7662
 6368TIP3    H240520   2.380   0.955   0.682  0.9561 -1.0549  1.8066
 6369TIP3   OH240521   4.128   5.636   1.457  0.2293 -0.6835  0.4136
 6369TIP3    H140522   4.044   5.671   1.426  0.5204 -0.5271 -0.2137
 6369TIP3    H240523   4.149   5.567   1.394  0.6382 -0.6292  0.4925
 6370TIP3   OH240524   2.188   3.134   3.824  0.2954  0.3346  0.0988
 6370TIP3    H140525   2.249   3.075   3.779 -1.4619 -0.4797 -1.3308
 6370TIP3    H240526   2.107   3.127   3.774 -1.5692  0.0087  2.9504
 6371TIP3   OH240527   6.371   1.272  14.820  0.2836 -0.1383 -0.0066
 6371TIP3    H140528   6.360   1.250  14.913 -0.7116 -1.1896 -0.3470
 6371TIP3    H240529   6.400   1.363  14.820  0.1860 -0.0879  1.3347
 6372TIP3   OH240530   4.134   6.042   2.001 -0.1737  0.0976 -0.4923
 6372TIP3    H140531   4.181   6.058   2.082  2.5619 -0.4092 -1.8611
 6372TIP3    H240532   4.078   5.966   2.020  0.5936 -0.1671  0.8362
 6373TIP3   OH240533   0.345   1.796  16.738  0.1605 -0.2533 -0.0645
 6373TIP3    H140534   0.272   1.737  16.718  1.3842 -2.0917  0.6405
 6373TIP3    H240535   0.337   1.814  16.832 -1.2993  2.3585 -0.5847
 6374TIP3   OH240536   3.515   4.787   2.258  0.7913  0.1687  0.9980
 6374TIP3    H140537   3.581   4.856   2.255 -0.4504  1.3741 -0.2616
 6374TIP3    H240538   3.545   4.728   2.327  4.0102 -0.2128 -0.5314
 6375TIP3   OH240539   3.373   1.409   3.418  0.3954  0.8372  0.1103
 6375TIP3    H140540   3.350   1.331   3.368  0.5884  1.3325 -0.7865
 6375TIP3    H240541   3.303   1.471   3.399  0.6824  1.1723  0.1253
 6376TIP3   OH240542   3.023   3.185   3.827 -0.2369  0.0055 -0.3185
 6376TIP3    H140543   2.936   3.224   3.815  0.3961  1.9491  0.9061
 6376TIP3    H240544   3.043   3.197   3.919  1.5286  0.0303 -0.6595
 6377TIP3   OH240545   5.783   2.818  14.942  0.6272 -0.7641 -0.0390
 6377TIP3    H140546   5.716   2.798  15.007  1.8071 -1.7489  0.9456
 6377TIP3    H240547   5.861   2.772  14.974  1.7373  0.2277 -1.2007
 6378TIP3   OH240548   4.814   4.561  11.858  0.4986 -0.3914  0.5138
 6378TIP3    H140549   4.724   4.529  11.865  0.2051  0.4660  0.7986
 6378TIP3    H240550   4.812   4.648  11.899  1.4805 -0.4078  0.6248
 6379TIP3   OH240551   1.600   1.666   3.093 -0.2541 -0.0285 -0.3463
 6379TIP3    H140552   1.563   1.674   3.181 -2.6396 -2.0889 -1.0266
 6379TIP3    H240553   1.694   1.658   3.106 -0.5278  0.0943  1.9861
 6380TIP3   OH240554   1.784   4.780   0.712 -0.2575 -0.2553 -0.2631
 6380TIP3    H140555   1.703   4.807   0.755 -0.1651  0.3163 -0.4381
 6380TIP3    H240556   1.809   4.699   0.756 -1.8735 -1.4319 -1.3804
 6381TIP3   OH240557   1.814   0.260  12.156 -0.1984  0.4740  0.1284
 6381TIP3    H140558   1.728   0.294  12.129 -0.8527 -1.2777 -0.1328
 6381TIP3    H240559   1.870   0.338  12.160 -1.4262  1.4866 -1.0964
 6382TIP3   OH240560   5.518   5.800   4.662 -0.4148  0.3399  0.1196
 6382TIP3    H140561   5.463   5.721   4.663  1.4182 -1.0488 -1.1124
 6382TIP3    H240562   5.583   5.785   4.731  0.6846  0.1780 -0.9256
 6383TIP3   OH240563   2.260   5.623   2.989  0.0840 -0.3143  0.4817
 6383TIP3    H140564   2.258   5.545   3.045  0.6540 -2.4925 -2.2617
 6383TIP3    H240565   2.199   5.602   2.918 -0.7989  2.4068  0.3244
 6384TIP3   OH240566   2.970   4.674   6.721 -0.4978 -0.0919  0.2333
 6384TIP3    H140567   2.902   4.717   6.773  0.3543  0.6875  0.7421
 6384TIP3    H240568   2.943   4.687   6.630 -0.5029  1.1591  0.3920
 6385TIP3   OH240569   4.183   4.750  13.969  0.0207  0.3233 -0.0301
 6385TIP3    H140570   4.137   4.696  13.905  1.2565 -0.2433 -0.4589
 6385TIP3    H240571   4.248   4.798  13.919  2.6985 -1.9562  1.0262
 6386TIP3   OH240572   5.729   6.127   1.838  0.5391 -0.2941 -0.2989
 6386TIP3    H140573   5.786   6.054   1.817 -0.7258 -1.3930 -0.0222
 6386TIP3    H240574   5.738   6.139   1.933  0.1548 -0.6050 -0.2225
 6387TIP3   OH240575   6.660   6.150   2.338  0.1735 -0.0483  0.0286
 6387TIP3    H140576   6.682   6.240   2.312  2.1810 -1.1715 -2.6299
 6387TIP3    H240577   6.675   6.148   2.432  0.6853  2.2369  0.0582
 6388TIP3   OH240578   3.284   6.346   4.790 -0.1432 -0.0885 -0.2938
 6388TIP3    H140579   3.364   6.335   4.739 -0.2776 -1.8920 -0.2014
 6388TIP3    H240580   3.222   6.388   4.731  0.0133 -1.2680 -1.3329
 6389TIP3   OH240581   2.236   6.318  14.749  0.0473 -0.1613 -0.5082
 6389TIP3    H140582   2.284   6.301  14.830 -1.1010  0.0390  0.2441
 6389TIP3    H240583   2.185   6.397  14.768  0.2556  0.2588 -1.6530
 6390TIP3   OH240584   1.809   1.132   1.029  0.1415  0.1932  0.1799
 6390TIP3    H140585   1.874   1.169   0.969  0.3752 -2.0213 -1.0523
 6390TIP3    H240586   1.849   1.050   1.059 -0.6775  0.4558  2.1070
 6391TIP3   OH240587   3.255   2.494  14.367 -0.4166 -0.0832 -0.1885
 6391TIP3    H140588   3.213   2.438  14.301  1.0378 -2.3822  0.7386
 6391TIP3    H240589   3.344   2.461  14.373  0.4371  2.2189  0.6380
 6392TIP3   OH240590   1.128   5.445   2.478 -0.9081  0.2984  0.1927
 6392TIP3    H140591   1.151   5.397   2.558 -2.2835 -2.0397 -0.7038
 6392TIP3    H240592   1.043   5.484   2.499  1.1228  4.5914  1.7175
 6393TIP3   OH240593   2.440   1.109  13.864 -0.7264  0.4761  0.3808
 6393TIP3    H140594   2.433   1.029  13.812 -1.7493  0.6375  0.2439
 6393TIP3    H240595   2.357   1.114  13.911  0.4142 -0.0021  2.5684
 6394TIP3   OH240596   6.104   0.089   5.832  0.0734 -0.1618  0.7490
 6394TIP3    H140597   6.034   0.075   5.897 -0.8700  3.2464  0.6688
 6394TIP3    H240598   6.174   0.030   5.859 -1.4804 -1.1327  2.9810
 6395TIP3   OH240599   6.035   3.656   3.260 -0.3766  0.5535  0.5306
 6395TIP3    H140600   5.979   3.614   3.194  1.3353  0.0540 -0.6775
 6395TIP3    H240601   6.116   3.677   3.213  0.8063  0.4634  2.4101
 6396TIP3   OH240602   0.928   4.728  13.557 -0.6396 -0.2931 -0.1242
 6396TIP3    H140603   0.977   4.670  13.499 -0.6951  1.6988 -2.2945
 6396TIP3    H240604   0.990   4.797  13.579 -0.9093 -0.5403  1.5475
 6397TIP3   OH240605   6.388   5.370  16.743 -0.2942 -0.0531 -0.2134
 6397TIP3    H140606   6.428   5.457  16.740 -2.0113  0.7914  0.0563
 6397TIP3    H240607   6.326   5.369  16.670  0.1224 -1.2850 -0.5768
 6398TIP3   OH240608   0.823   6.056   6.675 -0.0202  0.1731  0.0500
 6398TIP3    H140609   0.852   5.989   6.736  0.4531  1.2692  1.0599
 6398TIP3    H240610   0.882   6.129   6.689 -0.4957  0.8049 -1.0656
 6399TIP3   OH240611   0.363   3.915   3.503  0.5319 -0.4683 -0.1773
 6399TIP3    H140612   0.369   3.824   3.530 -0.6260 -0.6423 -0.4579
 6399TIP3    H240613   0.444   3.931   3.455  1.4702 -0.8782  1.1948
 6400TIP3   OH240614   4.368   4.657  12.358  0.5104  0.4678  0.0291
 6400TIP3    H140615   4.397   4.664  12.267 -0.3540  0.3704 -0.2686
 6400TIP3    H240616   4.448   4.640  12.408  0.9552  0.2150 -0.7520
 6401TIP3   OH240617   3.844   5.298   1.274 -0.2126 -0.4278  0.3544
 6401TIP3    H140618   3.882   5.247   1.202  2.1102  0.7548  0.6363
 6401TIP3    H240619   3.757   5.321   1.244 -0.3121 -2.2407 -0.9149
 6402TIP3   OH240620   0.829   0.874   1.349  0.1775 -0.9314 -0.2365
 6402TIP3    H140621   0.870   0.788   1.341 -1.6770 -1.7169 -1.9957
 6402TIP3    H240622   0.777   0.868   1.429  0.2829 -1.3350 -0.1945
 6403TIP3   OH240623   1.553   5.695   5.835  0.1315  0.4329  0.6223
 6403TIP3    H140624   1.586   5.702   5.746 -0.6113 -0.2004  0.2782
 6403TIP3    H240625   1.541   5.785   5.864 -2.3465  0.7272 -0.9821
 6404TIP3   OH240626   2.322   3.563  14.610  0.1493  0.1241 -0.1118
 6404TIP3    H140627   2.293   3.595  14.695  0.1241  3.3186 -1.1819
 6404TIP3    H240628   2.307   3.636  14.550 -0.9831 -2.3787 -3.1752
 6405TIP3   OH240629   1.483   6.060  16.247  0.1300  0.0092 -0.0558
 6405TIP3    H140630   1.479   6.111  16.328  0.3326 -0.5070  0.2884
 6405TIP3    H240631   1.404   6.085  16.199 -0.9160 -0.9244  1.0808
 6406TIP3   OH240632   6.425   3.407  16.140 -0.5650 -0.5758  0.0170
 6406TIP3    H140633   6.489   3.336  16.132 -0.5097 -0.6421  0.9830
 6406TIP3    H240634   6.478   3.487  16.142 -0.6434 -0.4573 -1.4061
 6407TIP3   OH240635   5.593   5.537  13.307 -0.1707  0.2162 -0.3654
 6407TIP3    H140636   5.677   5.493  13.321 -1.1614 -1.6533  0.0535
 6407TIP3    H240637   5.589   5.605  13.374 -0.1549 -1.5174  1.4847
 6408TIP3   OH240638   6.645   5.362   0.733 -0.1598  0.2558 -0.5712
 6408TIP3    H140639   6.590   5.401   0.800  0.2426  0.3879 -0.3134
 6408TIP3    H240640   6.622   5.269   0.734  0.2002  0.1699  0.0990
 6409TIP3   OH240641   1.997   2.689   3.711  0.3968  0.2355  0.6279
 6409TIP3    H140642   2.073   2.723   3.759  1.2633 -0.6465 -0.0656
 6409TIP3    H240643   1.991   2.597   3.739 -0.0649  0.1505  0.2599
 6410TIP3   OH240644   0.959   6.499  14.592 -0.6628  0.6011  0.9237
 6410TIP3    H140645   0.899   6.446  14.644  0.4408 -1.6661  0.0233
 6410TIP3    H240646   1.038   6.507  14.646  0.0387 -0.7336  0.1450
 6411TIP3   OH240647   0.279   5.375  11.087  0.6353 -0.1808 -0.1528
 6411TIP3    H140648   0.318   5.439  11.028 -0.6018 -0.0888 -0.9097
 6411TIP3    H240649   0.230   5.316  11.030 -1.3481  0.4524  0.8079
 6412TIP3   OH240650   4.950   1.548  12.569 -0.0266  0.2311  0.2302
 6412TIP3    H140651   4.975   1.545  12.661 -1.4429 -0.5855  0.6213
 6412TIP3    H240652   4.856   1.528  12.569 -0.2056  0.9277 -1.3286
 6413TIP3   OH240653   6.126   0.346   4.588 -0.0002 -0.4831  0.5233
 6413TIP3    H140654   6.136   0.265   4.537  1.8629  0.6751 -1.0734
 6413TIP3    H240655   6.100   0.316   4.675  0.1775 -2.7745 -0.1514
 6414TIP3   OH240656   0.531   3.626  13.220 -0.1431  1.0371 -0.7521
 6414TIP3    H140657   0.545   3.720  13.229  0.9745  1.0530 -2.2492
 6414TIP3    H240658   0.618   3.591  13.201 -0.3575 -0.4681  0.8080
 6415TIP3   OH240659   4.723   3.339   1.275  0.4604 -0.1890 -0.2176
 6415TIP3    H140660   4.672   3.419   1.273  0.2259 -0.2571  1.6598
 6415TIP3    H240661   4.661   3.271   1.302  1.0836 -0.6580  0.0624
 6416TIP3   OH240662   4.591   3.761   0.054  0.9590  0.6495  0.2393
 6416TIP3    H140663   4.594   3.811  -0.027 -1.8114  1.3270  0.4570
 6416TIP3    H240664   4.662   3.797   0.107  1.3143  1.8546 -0.9944
 6417TIP3   OH240665   6.791   5.080  13.968 -0.0655  0.0112  0.3876
 6417TIP3    H140666   6.816   5.120  13.885 -1.0423  1.1021  0.5961
 6417TIP3    H240667   6.714   5.027  13.947 -1.2828  1.5163  0.8308
 6418TIP3   OH240668   0.234   0.336   5.823 -0.3093  0.1579 -0.1625
 6418TIP3    H140669   0.146   0.360   5.852 -0.2160 -0.4990  0.6830
 6418TIP3    H240670   0.245   0.383   5.740 -0.0582  3.2749  1.4714
 6419TIP3   OH240671   2.811   4.722  10.291  0.1752 -0.0302 -0.1747
 6419TIP3    H140672   2.782   4.635  10.318 -0.5195  0.1566 -0.3041
 6419TIP3    H240673   2.737   4.759  10.243  1.4853 -0.4855 -2.6911
 6420TIP3   OH240674   5.630   5.488   0.183 -0.2579  0.2066 -0.6169
 6420TIP3    H140675   5.704   5.526   0.231 -0.2659 -0.6472  0.1060
 6420TIP3    H240676   5.665   5.468   0.096  0.3444 -0.0940 -0.3142
 6421TIP3   OH240677   1.858   3.385   3.543  0.1080  0.1600 -0.0665
 6421TIP3    H140678   1.772   3.372   3.584  0.6259 -1.2780  0.6597
 6421TIP3    H240679   1.894   3.462   3.586 -0.4158  0.1726  0.3582
 6422TIP3   OH240680   5.545   1.510   2.933 -0.4659 -0.3032  0.3647
 6422TIP3    H140681   5.600   1.435   2.953  0.6742  0.0615 -1.2237
 6422TIP3    H240682   5.540   1.559   3.015 -0.5354 -1.6434  1.1924
 6423TIP3   OH240683   2.117   1.447  14.952 -0.1128 -0.0716  1.0520
 6423TIP3    H140684   2.114   1.383  14.880  0.0181 -1.4223  2.2091
 6423TIP3    H240685   2.140   1.529  14.909 -0.0675 -0.8281 -0.4612
 6424TIP3   OH240686   4.308   4.569  14.382  0.0884 -0.3389  0.4156
 6424TIP3    H140687   4.223   4.579  14.426 -0.4016  0.3207 -0.6386
 6424TIP3    H240688   4.372   4.593  14.449 -0.4684 -1.9437  1.5720
 6425TIP3   OH240689   1.546   1.994  17.081  0.0167  0.4469  0.2989
 6425TIP3    H140690   1.489   2.017  17.155 -0.5571 -2.8836  1.0478
 6425TIP3    H240691   1.633   2.020  17.110 -0.2106 -0.6459  2.1632
 6426TIP3   OH240692   6.740   3.193   2.305  0.2839 -0.0240  0.2825
 6426TIP3    H140693   6.717   3.163   2.393 -0.3896  0.1049  0.1592
 6426TIP3    H240694   6.665   3.247   2.279  0.0903 -0.7544 -0.7075
 6427TIP3   OH240695   1.367   4.083   4.956  0.1798  0.3340 -0.0099
 6427TIP3    H140696   1.397   4.170   4.983  1.0249  0.3457 -0.8822
 6427TIP3    H240697   1.306   4.100   4.884  0.1603  0.2246 -0.0191
 6428TIP3   OH240698   4.814   6.443  10.223  0.0315 -0.3796 -0.7878
 6428TIP3    H140699   4.868   6.378  10.179  2.5426  1.2012 -0.2175
 6428TIP3    H240700   4.866   6.471  10.298 -0.6836  2.6403 -1.2891
 6429TIP3   OH240701   4.565   2.772  16.442 -0.0654 -0.7860 -0.4913
 6429TIP3    H140702   4.630   2.820  16.493 -2.4217  1.1165  0.9744
 6429TIP3    H240703   4.553   2.824  16.362 -0.4060 -0.6169 -0.3341
 6430TIP3   OH240704   6.093   0.166  14.011  0.7929 -0.0754  0.0465
 6430TIP3    H140705   6.169   0.217  14.041  2.0254 -0.1830 -2.5821
 6430TIP3    H240706   6.032   0.232  13.978  0.1232 -0.0486  1.2930
 6431TIP3   OH240707   0.938   2.514   5.009  0.2793  0.0747 -0.2811
 6431TIP3    H140708   0.920   2.572   4.935  0.5176  0.7325  0.1655
 6431TIP3    H240709   0.888   2.434   4.991 -0.1912  0.4902 -0.8209
 6432TIP3   OH240710   4.873   3.366  14.983  0.1984 -0.4275  0.0456
 6432TIP3    H140711   4.847   3.435  14.921  0.5279 -0.4068 -0.0738
 6432TIP3    H240712   4.956   3.333  14.948  0.9272  0.2936  1.0382
 6433TIP3   OH240713   1.678   4.731  12.783 -0.8249  1.1531  0.1612
 6433TIP3    H140714   1.738   4.671  12.828 -0.9498  0.0762 -1.0420
 6433TIP3    H240715   1.610   4.750  12.848 -0.7430  0.0348  0.5954
 6434TIP3   OH240716   4.339   2.101  16.155 -0.8755  0.0664  0.1091
 6434TIP3    H140717   4.344   2.187  16.113 -1.5319  0.1452  0.1915
 6434TIP3    H240718   4.428   2.066  16.146 -0.0252  1.5862  1.8551
 6435TIP3   OH240719   6.723   3.888  14.294 -0.2006 -0.0706  0.1165
 6435TIP3    H140720   6.680   3.922  14.372  0.1627 -0.1485  0.3537
 6435TIP3    H240721   6.817   3.896  14.313 -0.0197  2.4677 -1.4141
 6436TIP3   OH240722   4.628   3.766   1.216 -0.4191  0.2791 -0.2508
 6436TIP3    H140723   4.581   3.732   1.293 -0.5723  0.6904 -0.1580
 6436TIP3    H240724   4.696   3.822   1.253 -0.2408  0.1649 -0.4054
 6437TIP3   OH240725   4.224   3.452   2.563  0.1383  0.0171 -0.1979
 6437TIP3    H140726   4.274   3.407   2.631  0.5830 -0.9942 -1.1458
 6437TIP3    H240727   4.236   3.545   2.581 -0.4399 -0.2087  1.5651
 6438TIP3   OH240728   6.368   3.685  13.219 -0.0037  0.0319  0.3147
 6438TIP3    H140729   6.285   3.730  13.235  1.0000  2.3077 -0.4628
 6438TIP3    H240730   6.392   3.709  13.130  1.6107 -0.3523  0.6105
 6439TIP3   OH240731   3.132   2.092   2.514  0.0706 -0.5789  0.3347
 6439TIP3    H140732   3.196   2.078   2.444  1.6008 -1.3589  1.8320
 6439TIP3    H240733   3.115   2.005   2.548 -1.0427 -0.2581  0.6487
 6440TIP3   OH240734   1.936   4.444   0.881 -0.3619  0.5057 -0.0919
 6440TIP3    H140735   1.985   4.516   0.842 -0.9500  1.2614  0.5323
 6440TIP3    H240736   1.951   4.370   0.822  0.2679  1.1291 -0.7327
 6441TIP3   OH240737   3.445   2.342   1.455  0.0241  0.2665  0.5085
 6441TIP3    H140738   3.409   2.287   1.385  0.1281 -0.0712  0.7138
 6441TIP3    H240739   3.434   2.289   1.534 -2.8294  1.8171  1.2750
 6442TIP3   OH240740   0.391   2.534  14.495  0.1086 -0.0147 -0.0757
 6442TIP3    H140741   0.304   2.572  14.481 -0.4158 -1.2906 -0.3494
 6442TIP3    H240742   0.440   2.558  14.416 -0.5468 -0.7780 -0.7348
 6443TIP3   OH240743   1.174   2.481  12.334 -0.2965  0.0604 -0.0561
 6443TIP3    H140744   1.110   2.552  12.333  1.3242  1.6661  1.1986
 6443TIP3    H240745   1.194   2.465  12.242 -0.1051  1.8817 -0.3865
 6444TIP3   OH240746   3.672   6.512   6.049 -0.3628 -0.2180  0.3134
 6444TIP3    H140747   3.643   6.599   6.022 -0.5874 -0.9692 -2.0762
 6444TIP3    H240748   3.591   6.461   6.056 -0.1277 -0.6009  0.2544
 6445TIP3   OH240749   1.335   6.155   3.657 -0.5588 -0.5816  0.4854
 6445TIP3    H140750   1.352   6.061   3.643  1.4827  0.0123 -1.6277
 6445TIP3    H240751   1.417   6.190   3.689 -0.2155  0.9638 -1.8211
 6446TIP3   OH240752   0.602   4.930  15.931 -0.1813  0.4016 -0.8031
 6446TIP3    H140753   0.617   4.844  15.971 -0.4170  0.7062 -0.0431
 6446TIP3    H240754   0.563   4.910  15.846  0.5576 -0.2658 -0.9985
 6447TIP3   OH240755   6.731   0.438   4.927  0.3401 -0.3914 -0.0718
 6447TIP3    H140756   6.746   0.523   4.886 -1.7663  0.7629  1.3750
 6447TIP3    H240757   6.779   0.442   5.010 -1.8696  0.5241  1.2449
 6448TIP3   OH240758   4.446   5.874  17.101  0.2814 -0.3771  0.0329
 6448TIP3    H140759   4.398   5.885  17.183  0.1310 -1.5647  0.1237
 6448TIP3    H240760   4.472   5.963  17.076 -1.1040  0.1801  0.4952
 6449TIP3   OH240761   1.105   1.997  11.205 -0.5609  0.8754 -0.2741
 6449TIP3    H140762   1.010   1.992  11.197 -0.5387 -0.7845  0.3015
 6449TIP3    H240763   1.121   2.006  11.299 -0.1347  1.1741 -0.3711
 6450TIP3   OH240764   0.761   1.629   5.845 -0.0358  0.1011 -0.0242
 6450TIP3    H140765   0.727   1.679   5.771  1.1683  0.3140 -0.4507
 6450TIP3    H240766   0.723   1.542   5.835  0.5177 -0.0213 -1.1909
 6451TIP3   OH240767   5.502   1.875   5.330 -0.4874  0.4022  0.5328
 6451TIP3    H140768   5.446   1.879   5.407 -0.5598 -1.3490  0.5998
 6451TIP3    H240769   5.522   1.782   5.319  2.4411  0.9434  0.5322
 6452TIP3   OH240770   0.469   5.325   4.869 -0.2816 -0.1375 -0.2040
 6452TIP3    H140771   0.390   5.297   4.916 -0.8308 -1.0047 -1.5936
 6452TIP3    H240772   0.474   5.268   4.793  0.7486  1.0449 -1.0755
 6453TIP3   OH240773   6.097   6.276  12.550 -0.1114  0.0545 -0.2931
 6453TIP3    H140774   6.069   6.353  12.501  1.4672  0.1656 -1.1077
 6453TIP3    H240775   6.144   6.311  12.626 -0.4247 -0.1090 -0.0217
 6454TIP3   OH240776   2.305   6.047   4.855  0.5094 -0.0079 -0.8244
 6454TIP3    H140777   2.263   6.033   4.940 -3.4741  2.2842 -2.1559
 6454TIP3    H240778   2.358   6.125   4.867 -0.6345  0.7500 -0.5818
 6455TIP3   OH240779   4.154   5.495  15.046  0.6393 -0.0739  0.1961
 6455TIP3    H140780   4.234   5.546  15.042  0.7848 -0.1615  1.5496
 6455TIP3    H240781   4.093   5.550  15.097 -1.5254  1.7248 -3.8724
 6456TIP3   OH240782   5.173   2.249  15.882 -0.0600 -0.0368  0.1095
 6456TIP3    H140783   5.233   2.193  15.932 -0.8977 -0.4885  0.6366
 6456TIP3    H240784   5.230   2.297  15.822  0.5558 -2.7033 -1.6135
 6457TIP3   OH240785   5.507   3.985   4.233  0.6245 -0.1119  0.3427
 6457TIP3    H140786   5.443   3.954   4.297 -0.9761  1.5393 -0.3565
 6457TIP3    H240787   5.527   4.075   4.260 -0.0939  0.6223 -1.4276
 6458TIP3   OH240788   1.653   0.647   1.188 -0.0522  0.0451  0.3751
 6458TIP3    H140789   1.703   0.687   1.117 -1.3052  1.0415  0.0219
 6458TIP3    H240790   1.715   0.588   1.230  0.8025 -0.3418 -1.3464
 6459TIP3   OH240791   6.278   0.736   5.090  0.4561 -0.1437  0.4460
 6459TIP3    H140792   6.294   0.812   5.147 -0.4574  0.3201  0.1023
 6459TIP3    H240793   6.251   0.667   5.150 -0.6749  0.3938  0.5837
 6460TIP3   OH240794   2.453   2.651   2.179 -0.7622 -0.7770 -0.0780
 6460TIP3    H140795   2.414   2.564   2.195 -2.1936 -0.4187 -1.3443
 6460TIP3    H240796   2.430   2.671   2.089  1.4558  0.0049 -0.5344
 6461TIP3   OH240797   0.382   1.369  15.423 -0.6095  0.1356  0.0189
 6461TIP3    H140798   0.452   1.305  15.415  0.4403  1.2996 -0.4207
 6461TIP3    H240799   0.427   1.452  15.436 -1.8246  1.2168 -2.2150
 6462TIP3   OH240800   3.037   3.562  15.883 -0.1832 -0.1581  0.4425
 6462TIP3    H140801   3.027   3.481  15.933  1.7937  0.3670  1.8455
 6462TIP3    H240802   3.118   3.548  15.833 -1.0892  0.0894 -1.1485
 6463TIP3   OH240803   1.440   3.016   1.438 -0.0690  0.0313  0.5655
 6463TIP3    H140804   1.459   3.085   1.501 -0.3892 -0.4092  1.1565
 6463TIP3    H240805   1.357   2.978   1.468 -0.6214  0.2985 -0.5410
 6464TIP3   OH240806   0.350   4.047   1.441 -0.5642  0.0543  0.0634
 6464TIP3    H140807   0.319   3.977   1.498 -2.5101 -0.1206 -1.1070
 6464TIP3    H240808   0.279   4.112   1.442 -0.1976  0.5172 -1.3119
 6465TIP3   OH240809   4.758   2.564   3.436 -0.0591 -0.0442  0.6748
 6465TIP3    H140810   4.822   2.599   3.374 -0.7064  2.0845  1.1278
 6465TIP3    H240811   4.801   2.488   3.476  2.6203  1.8693  1.6770
 6466TIP3   OH240812   6.332   6.713  12.629  0.0394 -0.1918 -0.4518
 6466TIP3    H140813   6.255   6.670  12.591 -0.4648 -0.8395  1.2124
 6466TIP3    H240814   6.296   6.768  12.699  0.9173  1.1114 -0.9928
 6467TIP3   OH240815   2.477   0.273  12.480 -0.5889 -0.6151  0.0193
 6467TIP3    H140816   2.418   0.198  12.483  0.7803 -1.7171  0.4140
 6467TIP3    H240817   2.555   0.241  12.436  0.7324  0.0321  1.7534
 6468TIP3   OH240818   1.582   4.873   0.890 -0.3525  0.1907 -0.2008
 6468TIP3    H140819   1.559   4.819   0.966  0.1391 -0.9292 -0.8370
 6468TIP3    H240820   1.646   4.936   0.924  1.4652 -1.6191 -0.0928
 6469TIP3   OH240821   6.145   3.862  15.589 -0.2563  0.4116  0.1442
 6469TIP3    H140822   6.132   3.807  15.512  2.3068 -2.5575  1.5627
 6469TIP3    H240823   6.073   3.838  15.648 -1.6070  1.8988 -0.8283
 6470TIP3   OH240824   5.179   6.629   3.441 -0.1216 -0.0561 -0.0612
 6470TIP3    H140825   5.260   6.677   3.424  0.7355 -0.2457  2.8207
 6470TIP3    H240826   5.125   6.690   3.492 -1.6408 -0.1135 -1.5075
 6471TIP3   OH240827   5.525   4.074  11.540  0.3318 -0.3351 -0.3599
 6471TIP3    H140828   5.605   4.079  11.488 -0.3645  0.1839 -1.3979
 6471TIP3    H240829   5.459   4.042  11.479 -1.0756  2.5707 -0.5170
 6472TIP3   OH240830   2.365   0.627  10.770  0.1285  0.5388  0.1914
 6472TIP3    H140831   2.323   0.549  10.805 -0.9995  0.6758 -0.7664
 6472TIP3    H240832   2.408   0.597  10.690  0.0040  0.8223  0.0155
 6473TIP3   OH240833   6.397   3.344  10.988 -0.0656  0.1951 -0.1177
 6473TIP3    H140834   6.360   3.268  11.033  0.7175  0.4205  0.9302
 6473TIP3    H240835   6.363   3.420  11.035  0.5896  0.4421 -0.0294
 6474TIP3   OH240836   1.441   2.495  13.439  0.4261 -0.1863 -0.2027
 6474TIP3    H140837   1.385   2.571  13.423  0.3568 -0.0814  0.5199
 6474TIP3    H240838   1.382   2.421  13.441  0.4029 -0.1669 -0.1727
 6475TIP3   OH240839   5.867   1.250   6.138  0.2206  0.2229 -0.2365
 6475TIP3    H140840   5.806   1.321   6.121  1.3046  1.2504  0.0069
 6475TIP3    H240841   5.890   1.260   6.230  0.4550 -0.3845 -0.2275
 6476TIP3   OH240842   4.079   4.723  10.973  0.1528  0.1112 -0.0739
 6476TIP3    H140843   4.088   4.761  11.061  2.2237  2.4245 -1.1485
 6476TIP3    H240844   4.158   4.750  10.927 -1.6737  0.6297 -3.2407
 6477TIP3   OH240845   0.369   0.816  16.322 -0.0300 -0.1936 -0.0350
 6477TIP3    H140846   0.293   0.872  16.334 -0.6615 -0.4970 -2.1564
 6477TIP3    H240847   0.439   0.857  16.373 -1.1756  0.9903  0.6178
 6478TIP3   OH240848   4.264   5.060   3.442  0.3455  0.5376 -1.0219
 6478TIP3    H140849   4.255   4.966   3.459  1.1104  0.3394 -1.6662
 6478TIP3    H240850   4.178   5.097   3.463  0.8979  0.2100  2.5003
 6479TIP3   OH240851   6.520   2.733   1.764  0.0256 -0.4893  0.4690
 6479TIP3    H140852   6.513   2.808   1.704  2.7468 -0.0176  0.6259
 6479TIP3    H240853   6.490   2.658   1.712 -1.5583  0.4722 -0.0963
 6480TIP3   OH240854   0.949   1.494  14.120  0.0967  0.1421 -0.0353
 6480TIP3    H140855   0.959   1.406  14.154  0.5425 -0.0155 -0.5567
 6480TIP3    H240856   1.028   1.509  14.068  0.1823  0.9690  0.3147
 6481TIP3   OH240857   3.223   5.800  16.660 -0.0329  0.2767 -0.0459
 6481TIP3    H140858   3.222   5.731  16.595 -3.2241  1.1813 -1.1292
 6481TIP3    H240859   3.173   5.872  16.621  0.0530  1.8197  2.4085
 6482TIP3   OH240860   3.932   0.121   5.238 -0.5619 -0.0344  0.0043
 6482TIP3    H140861   3.954   0.039   5.195 -2.7283 -0.2713 -0.7739
 6482TIP3    H240862   3.839   0.134   5.220 -0.3915  2.4002  0.4298
 6483TIP3   OH240863   4.754   4.873   2.339 -0.9422 -0.6112  0.4159
 6483TIP3    H140864   4.709   4.789   2.349 -2.3305 -0.1316 -1.1997
 6483TIP3    H240865   4.847   4.851   2.337 -1.1974 -1.9277  1.4801
 6484TIP3   OH240866   4.221   1.649   0.962 -0.2167 -0.1298 -0.1252
 6484TIP3    H140867   4.145   1.591   0.958 -1.1353  1.1097 -1.3484
 6484TIP3    H240868   4.260   1.631   1.048 -0.5789 -2.3857 -0.3663
 6485TIP3   OH240869   5.898   4.687  13.471 -0.2883  0.0596  0.9105
 6485TIP3    H140870   5.902   4.751  13.400 -2.2864  0.2909  0.9461
 6485TIP3    H240871   5.881   4.604  13.427 -0.6384  0.0547  1.0516
 6486TIP3   OH240872   5.201   1.712   5.298  0.0521 -0.4711  0.2181
 6486TIP3    H140873   5.261   1.699   5.372  0.0202 -1.1964  0.1278
 6486TIP3    H240874   5.173   1.623   5.275  0.9750 -0.3800 -1.4211
 6487TIP3   OH240875   3.148   6.257  15.696 -0.1744  0.5845 -0.1485
 6487TIP3    H140876   3.064   6.288  15.662 -0.7023  0.4479  0.9718
 6487TIP3    H240877   3.124   6.204  15.772  0.9777  1.3842  0.8007
 6488TIP3   OH240878   4.612   3.732  16.207  0.3550  0.4564  0.2807
 6488TIP3    H140879   4.663   3.655  16.184  1.1232  0.9243  0.3846
 6488TIP3    H240880   4.635   3.750  16.298  1.3912  1.7104 -0.1968
 6489TIP3   OH240881   6.591   3.056  11.483  0.4393  0.0441 -0.2639
 6489TIP3    H140882   6.660   3.041  11.418  0.3944 -3.4536  0.3168
 6489TIP3    H240883   6.636   3.055  11.567 -0.2106 -1.9403  0.0994
 6490TIP3   OH240884   3.405   5.793  14.170  0.0964 -0.1297  0.4406
 6490TIP3    H140885   3.428   5.806  14.078 -1.5670  0.7415  0.0979
 6490TIP3    H240886   3.418   5.878  14.211  4.8797 -1.3478  2.1265
 6491TIP3   OH240887   4.291   5.910   2.730  0.4768  0.3161 -0.3595
 6491TIP3    H140888   4.233   5.967   2.780 -0.1960 -1.5820  1.1631
 6491TIP3    H240889   4.236   5.879   2.657 -0.1515 -0.7088  0.5249
 6492TIP3   OH240890   1.187   3.289  14.586  0.3436 -0.1403 -0.1836
 6492TIP3    H140891   1.280   3.279  14.566  0.8257  0.1190  1.7229
 6492TIP3    H240892   1.185   3.344  14.664 -1.3212 -1.5773  0.8684
 6493TIP3   OH240893   5.332   0.459   4.933 -0.0824  0.1184  0.1330
 6493TIP3    H140894   5.347   0.475   5.026  0.0984 -1.2109  0.3515
 6493TIP3    H240895   5.343   0.545   4.892 -0.0427  0.7013  1.3138
 6494TIP3   OH240896   6.282   2.722   4.067  0.1143  0.3645  0.1073
 6494TIP3    H140897   6.314   2.699   3.980 -2.9217 -1.5145 -0.6494
 6494TIP3    H240898   6.198   2.764   4.052 -1.0355 -1.0493  2.1023
 6495TIP3   OH240899   4.547   1.922   3.950  0.1069 -0.0770 -0.1127
 6495TIP3    H140900   4.638   1.949   3.938  0.3761 -1.3931 -1.3703
 6495TIP3    H240901   4.546   1.875   4.034  0.1310  1.6453  0.8906
 6496TIP3   OH240902   4.510   2.367  11.992  0.2338 -0.2289 -0.0821
 6496TIP3    H140903   4.483   2.459  11.983  1.3597  0.1026 -0.2214
 6496TIP3    H240904   4.573   2.354  11.922 -0.2201 -1.2446 -0.3144
 6497TIP3   OH240905   2.097   0.726  13.470 -0.4187  0.3349  0.2092
 6497TIP3    H140906   2.080   0.813  13.506  0.0811  0.5818 -0.1345
 6497TIP3    H240907   2.159   0.686  13.531  0.1868  0.6349 -0.2005
 6498TIP3   OH240908   4.691   2.957  16.199  0.1629  0.3250  0.2333
 6498TIP3    H140909   4.778   2.936  16.164  0.5040  1.0057  0.6464
 6498TIP3    H240910   4.633   2.892  16.159  0.8445 -0.0890 -0.1136
 6499TIP3   OH240911   6.008   1.876   4.954  0.7114  0.3464 -0.3648
 6499TIP3    H140912   6.096   1.847   4.931  1.0810  0.3877  0.9319
 6499TIP3    H240913   5.950   1.814   4.909  1.4395 -0.7894  0.2389
 6500TIP3   OH240914   1.551   2.613   2.624  0.1560 -0.0239  0.9535
 6500TIP3    H140915   1.616   2.613   2.694  0.5206  1.0398  0.6297
 6500TIP3    H240916   1.602   2.626   2.544 -0.2894 -0.8990  0.5144
 6501TIP3   OH240917   1.695   1.978  14.367  0.4320 -0.6379  0.4401
 6501TIP3    H140918   1.754   2.047  14.337 -0.7716  0.4557  0.5142
 6501TIP3    H240919   1.748   1.898  14.361  2.0711  0.3459  0.9783
 6502TIP3   OH240920   4.410   3.145   5.750  0.2725  0.5293  0.2015
 6502TIP3    H140921   4.467   3.162   5.824  0.4399 -0.1693  0.2376
 6502TIP3    H240922   4.426   3.218   5.690  1.3392  0.2517  0.1339
 6503TIP3   OH240923   4.913   4.376   0.701 -0.0591 -0.3810  0.6975
 6503TIP3    H140924   4.832   4.417   0.671 -1.2618 -2.6079  0.6891
 6503TIP3    H240925   4.938   4.317   0.629  0.6232 -0.9675  1.3958
 6504TIP3   OH240926   2.144   0.336  12.197 -0.1734  0.2094 -0.8426
 6504TIP3    H140927   2.088   0.412  12.177  0.0083  0.0401 -2.0736
 6504TIP3    H240928   2.211   0.371  12.255 -1.6127  0.3911  0.8062
 6505TIP3   OH240929   1.485   6.664   4.627  0.0734  0.2585 -0.1055
 6505TIP3    H140930   1.579   6.670   4.643  0.1237 -0.0349 -0.2696
 6505TIP3    H240931   1.449   6.744   4.664  0.1584 -0.4283  1.5545
 6506TIP3   OH240932   3.472   0.401   0.072 -0.9060  0.2207  0.0601
 6506TIP3    H140933   3.540   0.334   0.077 -0.2937  0.7925 -0.3406
 6506TIP3    H240934   3.518   0.483   0.091 -1.6692  0.5114  0.6804
 6507TIP3   OH240935   5.663   5.755  14.659 -0.3425 -0.7196 -0.1293
 6507TIP3    H140936   5.720   5.703  14.715 -1.2158 -0.8663  0.6606
 6507TIP3    H240937   5.667   5.713  14.574  0.2885 -1.0496  0.0563
 6508TIP3   OH240938   5.805   4.063   2.268  0.3066 -0.3691  0.5718
 6508TIP3    H140939   5.770   3.979   2.298  1.1263 -0.9048  0.0557
 6508TIP3    H240940   5.862   4.091   2.340 -0.0878 -0.1650  0.8126
 6509TIP3   OH240941   2.289   4.257  15.460 -0.4972 -0.0269  0.2110
 6509TIP3    H140942   2.367   4.295  15.502 -1.3322  0.7197  1.1269
 6509TIP3    H240943   2.240   4.218  15.532 -2.0274  1.3962  0.0055
 6510TIP3   OH240944   4.008   5.847  10.748  0.4512 -0.2666 -0.0624
 6510TIP3    H140945   3.949   5.792  10.697  0.8613 -0.3078 -0.4903
 6510TIP3    H240946   3.995   5.819  10.838  0.1899 -0.6214 -0.2101
 6511TIP3   OH240947   5.377   1.635   2.693 -0.1362  0.4391  0.1778
 6511TIP3    H140948   5.298   1.659   2.742  1.3287  0.0476  2.9308
 6511TIP3    H240949   5.413   1.560   2.740  1.5669  0.1939 -1.3793
 6512TIP3   OH240950   0.601   3.051  15.318 -0.4459  0.4336  0.4056
 6512TIP3    H140951   0.531   3.058  15.254 -0.3992 -0.6994  0.2221
 6512TIP3    H240952   0.657   3.127  15.301 -0.7882  0.4957 -0.4615
 6513TIP3   OH240953   6.395   6.192   4.724  0.5242 -0.4484  0.0305
 6513TIP3    H140954   6.488   6.171   4.738  0.4672 -0.6212  0.1564
 6513TIP3    H240955   6.350   6.147   4.796  0.0408 -2.6464 -1.5278
 6514TIP3   OH240956   3.280   5.138  13.127  0.5673 -0.0446  0.0060
 6514TIP3    H140957   3.210   5.086  13.167 -0.6368 -0.0427 -1.9430
 6514TIP3    H240958   3.354   5.078  13.122  1.3422  0.4159  3.5385
 6515TIP3   OH240959   0.663   3.724  14.298  0.0670 -0.2152 -0.2331
 6515TIP3    H140960   0.599   3.776  14.348 -0.6795 -2.2053  0.9962
 6515TIP3    H240961   0.612   3.682  14.230  0.7427  0.8967 -1.4766
 6516TIP3   OH240962   3.458   3.910   5.252 -0.1297 -0.3390  0.0390
 6516TIP3    H140963   3.383   3.961   5.284 -1.4253 -0.9493 -1.8811
 6516TIP3    H240964   3.494   3.963   5.181 -0.4124 -1.2709 -0.8153
 6517TIP3   OH240965   0.746   6.105  10.649  0.5114  0.0220  0.9046
 6517TIP3    H140966   0.694   6.032  10.682  0.0572 -0.3145 -0.4720
 6517TIP3    H240967   0.834   6.090  10.685  0.6657 -1.7545 -0.0613
 6518TIP3   OH240968   3.204   5.334   3.445 -0.3142 -0.1287  0.3815
 6518TIP3    H140969   3.294   5.303   3.437 -0.6155 -1.1626  0.8367
 6518TIP3    H240970   3.175   5.304   3.531 -0.5078  1.8030  1.0434
 6519TIP3   OH240971   0.553   2.921   1.298 -0.0140 -0.3878  0.0654
 6519TIP3    H140972   0.502   2.874   1.232 -1.7654  0.4684  0.7358
 6519TIP3    H240973   0.582   3.001   1.254  1.1017 -1.0357 -0.4210
 6520TIP3   OH240974   0.961   0.993  14.869 -0.3504  0.1161  0.0092
 6520TIP3    H140975   1.011   1.030  14.941 -0.7492 -2.5450  1.7893
 6520TIP3    H240976   0.999   0.906  14.854 -2.5791 -0.8613 -0.4855
 6521TIP3   OH240977   5.854   1.762  14.832 -0.2049  0.1356 -0.6752
 6521TIP3    H140978   5.878   1.849  14.865 -2.7656  0.2346  1.2595
 6521TIP3    H240979   5.884   1.701  14.900 -0.1618 -0.3182 -1.0911
 6522TIP3   OH240980   2.923   5.540  13.415  0.1187  0.7416  0.4078
 6522TIP3    H140981   2.930   5.499  13.500  0.7946  0.4337  0.2080
 6522TIP3    H240982   2.959   5.628  13.427  2.3028 -0.0438 -0.0625
 6523TIP3   OH240983   5.762   2.275  15.492  0.2214 -0.0528  0.8751
 6523TIP3    H140984   5.671   2.301  15.479  0.1815 -0.1871  0.8828
 6523TIP3    H240985   5.810   2.357  15.497  0.0586  0.0249  1.1673
 6524TIP3   OH240986   0.349   4.094   4.815  0.1060  0.2515  0.2941
 6524TIP3    H140987   0.383   4.006   4.830  1.8686  1.0517  1.2437
 6524TIP3    H240988   0.337   4.131   4.902 -1.7604  0.5723 -0.0637
 6525TIP3   OH240989   1.583   2.377  16.220 -0.2985  0.7411  0.0947
 6525TIP3    H140990   1.544   2.361  16.134 -1.0292  0.2482  0.5033
 6525TIP3    H240991   1.556   2.465  16.243 -1.0704  0.4561  0.3099
 6526TIP3   OH240992   2.489   5.528   2.586  0.3391  0.7843 -0.2168
 6526TIP3    H140993   2.393   5.531   2.580  0.2663  1.4893  1.0245
 6526TIP3    H240994   2.515   5.475   2.511 -0.9911  0.9564 -0.8409
 6527TIP3   OH240995   5.867   3.095  14.904  0.3177  0.6350 -0.7134
 6527TIP3    H140996   5.786   3.146  14.903  0.1678  0.3999 -0.6601
 6527TIP3    H240997   5.842   3.010  14.941  1.0581  1.3072  1.4749
 6528TIP3   OH240998   4.012   4.909   5.438 -0.2749 -0.1042  0.0998
 6528TIP3    H140999   4.050   4.829   5.473 -0.6171 -0.5774 -0.5771
 6528TIP3    H241000   3.921   4.887   5.420 -1.2995  1.3938  2.9378
 6529TIP3   OH241001   2.499   1.076   4.232  0.4294  0.2113 -0.3490
 6529TIP3    H141002   2.484   1.093   4.325  0.2906  0.9396 -0.4968
 6529TIP3    H241003   2.508   0.981   4.226  0.2941  0.1458  0.3870
 6530TIP3   OH241004   6.321   0.999  11.012 -1.0984  0.2835  0.1134
 6530TIP3    H141005   6.351   1.089  11.014 -1.8429  0.6326 -1.9645
 6530TIP3    H241006   6.245   1.000  10.953 -2.1784 -1.4052  1.3559
 6531TIP3   OH241007   6.579   4.970   4.126 -0.4725  0.5531 -0.1624
 6531TIP3    H141008   6.637   4.902   4.161 -0.7171  0.7866  0.7242
 6531TIP3    H241009   6.610   4.984   4.037  0.6925  0.5152  0.2181
 6532TIP3   OH241010   2.553   3.605   2.313 -0.5659 -0.4986  0.8214
 6532TIP3    H141011   2.540   3.581   2.405  0.5471 -0.9936  0.8695
 6532TIP3    H241012   2.608   3.535   2.278 -0.7824 -0.1849 -0.1632
 6533TIP3   OH241013   5.626   3.219  14.560  0.4628 -0.5177 -0.3048
 6533TIP3    H141014   5.718   3.194  14.562  1.0301  1.4056  2.5643
 6533TIP3    H241015   5.626   3.308  14.525 -0.2872 -0.4755 -0.2158
 6534TIP3   OH241016   4.642   0.462   5.473  0.1290 -0.1215  0.2678
 6534TIP3    H141017   4.579   0.507   5.528  0.9057  0.9947  0.2769
 6534TIP3    H241018   4.596   0.384   5.443 -1.7794  1.3944 -0.9651
 6535TIP3   OH241019   3.770   2.263   5.189 -0.2728  0.7195 -0.3332
 6535TIP3    H141020   3.719   2.297   5.263 -1.2962 -0.2781 -0.5568
 6535TIP3    H241021   3.852   2.313   5.191 -0.9479  1.8413  0.4909
 6536TIP3   OH241022   3.152   4.370   5.857 -0.2512  0.4407 -0.1566
 6536TIP3    H141023   3.171   4.300   5.920  0.1616 -0.0256 -0.7807
 6536TIP3    H241024   3.171   4.331   5.772 -0.4021  1.1942 -0.5456
 6537TIP3   OH241025   4.119   4.069   2.262 -0.1370 -0.0246  0.0226
 6537TIP3    H141026   4.059   4.103   2.196 -0.1988 -0.8636 -0.3673
 6537TIP3    H241027   4.088   4.106   2.344 -0.3217  0.6874 -0.3569
 6538TIP3   OH241028   5.453   2.022   4.714  0.5809 -0.2882  0.5898
 6538TIP3    H141029   5.431   2.020   4.807  2.8384 -1.4945  1.1838
 6538TIP3    H241030   5.420   1.939   4.680  0.3047 -0.1257  0.4643
 6539TIP3   OH241031   2.779   0.526   0.302  0.0126  0.1474 -0.3388
 6539TIP3    H141032   2.800   0.617   0.278  0.0019  0.4899  0.8772
 6539TIP3    H241033   2.703   0.504   0.247  0.2314  0.7466 -0.9023
 6540TIP3   OH241034   3.107   0.025  14.408 -0.2863 -0.1375 -0.0721
 6540TIP3    H141035   3.072   0.107  14.443  1.0360 -0.1916  1.5321
 6540TIP3    H241036   3.155  -0.013  14.482  0.2635 -1.6887 -1.1909
 6541TIP3   OH241037   5.824   3.235   5.939 -0.0649  0.0604 -0.4349
 6541TIP3    H141038   5.758   3.167   5.953  1.9572 -1.6998  1.2244
 6541TIP3    H241039   5.797   3.306   5.997 -0.8180 -0.3753 -0.2228
 6542TIP3   OH241040   3.407   5.500   4.019 -0.0200 -0.0390 -0.2553
 6542TIP3    H141041   3.454   5.429   4.062  0.3382 -0.8493 -1.9147
 6542TIP3    H241042   3.395   5.470   3.929  0.4283  2.1394 -1.0961
 6543TIP3   OH241043   5.328   5.027   2.018 -0.1731  0.9109 -0.3026
 6543TIP3    H141044   5.413   5.068   2.031 -0.3014  0.7304  1.1900
 6543TIP3    H241045   5.270   5.098   1.990 -0.1354  1.5472  1.1887
 6544TIP3   OH241046   6.412   5.534   3.955  0.5147  0.4083  0.1894
 6544TIP3    H141047   6.351   5.519   3.883  0.6512  1.1428 -0.0822
 6544TIP3    H241048   6.498   5.517   3.918  0.6005  0.9841  0.1234
 6545TIP3   OH241049   0.177   3.292   0.237 -0.5600  0.1489 -0.3199
 6545TIP3    H141050   0.183   3.203   0.204  1.0598  0.1580 -0.1354
 6545TIP3    H241051   0.190   3.283   0.332  1.5291  0.7174 -0.5101
 6546TIP3   OH241052   4.264   2.445  13.069 -0.1205  0.1907 -0.3309
 6546TIP3    H141053   4.214   2.515  13.112 -0.1745  1.4731 -2.3567
 6546TIP3    H241054   4.197   2.391  13.025 -0.0897 -1.2640  1.2924
 6547TIP3   OH241055   2.624   4.105  15.831  0.1232  0.2342 -0.2677
 6547TIP3    H141056   2.715   4.133  15.820  0.9519 -1.7336  1.0088
 6547TIP3    H241057   2.585   4.174  15.885  1.8516 -0.4317  2.0427
 6548TIP3   OH241058   3.515   3.038  16.167 -0.1395  0.0270  0.5808
 6548TIP3    H141059   3.523   3.061  16.260  0.0167 -0.7469  0.7679
 6548TIP3    H241060   3.426   3.063  16.143 -0.3326 -0.1819  1.0630
 6549TIP3   OH241061   5.889   3.043   4.244  0.3561  0.5202 -0.2630
 6549TIP3    H141062   5.961   3.077   4.296  1.1779 -0.6576 -0.5964
 6549TIP3    H241063   5.903   2.948   4.241  1.4171  0.6328 -4.0831
 6550TIP3   OH241064   1.297   4.124  14.876  0.6681  0.0173 -0.6199
 6550TIP3    H141065   1.372   4.136  14.934 -0.4420  0.7959  0.7025
 6550TIP3    H241066   1.298   4.202  14.820 -0.5847  1.3507  1.1082
 6551TIP3   OH241067   1.554   5.291   2.327 -0.0827 -0.2914 -1.1330
 6551TIP3    H141068   1.547   5.246   2.411  0.9557  1.1498 -0.2224
 6551TIP3    H241069   1.506   5.236   2.266 -0.9358 -1.3376  0.4207
 6552TIP3   OH241070   5.872   2.750   2.499 -0.5071  0.1021 -0.1878
 6552TIP3    H141071   5.922   2.693   2.440 -1.3537 -0.3560 -0.4808
 6552TIP3    H241072   5.939   2.790   2.555  0.1239 -1.1953  0.0448
 6553TIP3   OH241073   0.989   5.918   5.329  0.3274 -0.2494  0.8023
 6553TIP3    H141074   0.931   5.994   5.325 -1.9208 -1.8406  0.6443
 6553TIP3    H241075   0.964   5.865   5.253  0.6724 -1.8640  1.7588
 6554TIP3   OH241076   2.627   1.644   4.514 -0.3539  0.2475 -0.3071
 6554TIP3    H141077   2.659   1.657   4.604 -0.6839 -1.3074  0.0609
 6554TIP3    H241078   2.542   1.602   4.525 -0.5344  0.3358 -1.3490
 6555TIP3   OH241079   1.444   3.973  15.651 -0.4464  0.1646  0.3617
 6555TIP3    H141080   1.354   3.953  15.677 -0.9539  0.4883 -1.0766
 6555TIP3    H241081   1.446   3.958  15.557  1.5299 -1.6827  0.6090
 6556TIP3   OH241082   1.337   2.509   1.687  0.2458 -0.0725 -0.7507
 6556TIP3    H141083   1.398   2.481   1.619  0.8290 -1.2966  0.2179
 6556TIP3    H241084   1.320   2.429   1.737 -1.5790  0.4047 -0.5393
 6557TIP3   OH241085   2.386   5.771   1.124 -0.7578  0.1430  0.3429
 6557TIP3    H141086   2.297   5.736   1.121 -1.5983  2.1362  0.9099
 6557TIP3    H241087   2.411   5.782   1.032 -2.1812  2.0842  0.1311
 6558TIP3   OH241088   4.828   5.564   1.121  0.9231 -0.2900 -0.0029
 6558TIP3    H141089   4.738   5.562   1.153  0.3408  0.1609 -1.5153
 6558TIP3    H241090   4.852   5.657   1.125  0.5205 -0.0920 -1.6421
 6559TIP3   OH241091   0.983   4.512   5.715 -0.3626 -0.1550 -0.2652
 6559TIP3    H141092   0.927   4.582   5.748 -0.6407 -0.9429  1.0219
 6559TIP3    H241093   1.019   4.471   5.794 -1.2709 -2.3077 -0.9000
 6560TIP3   OH241094   6.743   0.771   3.965 -0.5111 -0.1067  0.0650
 6560TIP3    H141095   6.791   0.853   3.977 -1.4208  0.2055  1.9688
 6560TIP3    H241096   6.799   0.704   4.003 -0.3036 -0.1875 -0.3804
 6561TIP3   OH241097   5.756   0.465  16.753 -0.3516 -0.1310 -0.4991
 6561TIP3    H141098   5.775   0.384  16.707 -2.1025 -0.2994 -0.9657
 6561TIP3    H241099   5.774   0.445  16.845 -1.0437 -1.1422 -0.5705
 6562TIP3   OH241100   4.369   4.027   0.165 -0.0602  0.0758 -0.2642
 6562TIP3    H141101   4.427   4.014   0.240 -0.0713 -0.9245 -0.4074
 6562TIP3    H241102   4.310   3.951   0.168 -1.2598  0.9728 -0.2158
 6563TIP3   OH241103   1.322   0.766  11.519  0.2752 -0.4117  0.2044
 6563TIP3    H141104   1.323   0.721  11.434 -0.9337  1.4801 -0.9012
 6563TIP3    H241105   1.295   0.855  11.498 -2.0741 -0.3642  2.7831
 6564TIP3   OH241106   1.958   0.028   5.365 -0.3497  0.0833 -0.1000
 6564TIP3    H141107   2.013  -0.050   5.356  0.5223  0.1541  3.2872
 6564TIP3    H241108   1.868  -0.006   5.370 -0.3551 -0.3268 -2.0349
 6565TIP3   OH241109   3.539   3.937  11.261  0.8313 -0.2778  0.3865
 6565TIP3    H141110   3.508   3.853  11.293 -1.2649  0.7580  1.2976
 6565TIP3    H241111   3.579   3.918  11.176  0.9650 -2.2286  0.8340
 6566TIP3   OH241112   6.636   4.949  11.099  0.5742  0.7524  0.4312
 6566TIP3    H141113   6.631   5.004  11.021 -0.2422  0.7139  0.4510
 6566TIP3    H241114   6.586   4.870  11.077  2.8607 -0.6401 -0.0982
 6567TIP3   OH241115   5.103   5.354   2.904  0.0690 -0.2558 -0.5090
 6567TIP3    H141116   5.045   5.409   2.851 -0.0578 -0.2105 -0.3238
 6567TIP3    H241117   5.132   5.412   2.975  1.4572  0.1500 -1.3784
 6568TIP3   OH241118   6.036   3.646   3.524 -0.5415 -0.1208  0.3277
 6568TIP3    H141119   6.024   3.654   3.429 -1.1341 -0.2875  0.3807
 6568TIP3    H241120   5.946   3.642   3.559 -0.3324  0.2050  0.9177
 6569TIP3   OH241121   4.839   4.389   1.997 -0.1651  0.1777  0.5446
 6569TIP3    H141122   4.891   4.393   2.077  0.8841 -4.0992  0.3489
 6569TIP3    H241123   4.898   4.421   1.929 -0.4991  2.2715  1.1549
 6570TIP3   OH241124   1.849   4.828  15.818  0.1745  0.4551 -0.2880
 6570TIP3    H141125   1.852   4.756  15.756  0.6322 -0.4046  0.6984
 6570TIP3    H241126   1.808   4.790  15.896 -3.6884  2.3823 -1.1114
 6571TIP3   OH241127   0.086   5.392  11.598 -0.0722 -0.0440  0.3385
 6571TIP3    H141128   0.149   5.407  11.526 -1.7778 -0.4030 -1.3075
 6571TIP3    H241129   0.074   5.297  11.599 -1.2809  0.0877 -0.0312
 6572TIP3   OH241130   5.058   4.159   0.036  0.3935  0.0085  0.2940
 6572TIP3    H141131   5.067   4.115  -0.048 -1.3185 -1.6083  0.8960
 6572TIP3    H241132   4.985   4.220   0.023  0.7729  0.4838  0.3469
 6573TIP3   OH241133   4.342   4.772  13.314  0.3392  0.5255  0.1611
 6573TIP3    H141134   4.355   4.677  13.304 -1.0429  0.4899 -1.7899
 6573TIP3    H241135   4.274   4.779  13.381 -0.4068  0.0609 -0.5315
 6574TIP3   OH241136   2.127   5.234   4.160  0.3100  0.6528 -0.0784
 6574TIP3    H141137   2.056   5.203   4.103 -1.0995  2.0675  0.8158
 6574TIP3    H241138   2.138   5.326   4.136  1.5477  0.5656  0.1146
 6575TIP3   OH241139   3.962   1.945  11.673  0.4256  0.4265  0.2854
 6575TIP3    H141140   4.023   1.910  11.608  0.4364  1.2006 -0.1322
 6575TIP3    H241141   4.017   1.996  11.732  0.6037 -1.2178  1.6359
 6576TIP3   OH241142   4.601   6.377   5.015 -0.3025 -0.2839  0.0774
 6576TIP3    H141143   4.614   6.434   4.938  0.5834  1.5196  1.4822
 6576TIP3    H241144   4.649   6.297   4.993 -1.5041 -0.5240 -1.9327
 6577TIP3   OH241145   4.283   2.222  15.819 -0.2803  0.3668 -1.0982
 6577TIP3    H141146   4.374   2.196  15.805  0.4368  1.3416  1.2658
 6577TIP3    H241147   4.287   2.285  15.890 -2.9230 -0.3603 -0.1876
 6578TIP3   OH241148   5.631   5.002   5.196  0.0712 -0.3519 -0.1507
 6578TIP3    H141149   5.589   4.965   5.274 -0.6164  1.5995  0.4495
 6578TIP3    H241150   5.560   5.046   5.149  1.2323  2.6192  0.6382
 6579TIP3   OH241151   5.915   3.914   3.946 -0.5783 -0.1793  0.1745
 6579TIP3    H141152   5.864   3.965   4.009 -0.5018  1.0658 -0.7221
 6579TIP3    H241153   5.849   3.875   3.888 -0.5826  0.1545 -0.0485
 6580TIP3   OH241154   4.476   1.916   2.312  0.3654  0.4143 -0.3121
 6580TIP3    H141155   4.552   1.960   2.351  0.3093  1.4171 -1.3000
 6580TIP3    H241156   4.487   1.824   2.337  0.8184  0.8596  1.2818
 6581TIP3   OH241157   4.655   6.502  12.364 -0.8983  0.7513 -0.9733
 6581TIP3    H141158   4.680   6.421  12.320 -0.5448  1.2485 -1.6988
 6581TIP3    H241159   4.721   6.566  12.337  1.0530  0.4412  2.4647
 6582TIP3   OH241160   4.125   1.128   1.307 -0.0800  0.2206  0.4163
 6582TIP3    H141161   4.053   1.090   1.256 -0.0116  1.0223 -0.3013
 6582TIP3    H241162   4.085   1.198   1.358  0.3232  1.3449 -0.7400
 6583TIP3   OH241163   5.088   0.021   5.090 -0.2968 -0.3298  0.2564
 6583TIP3    H141164   5.073  -0.016   5.003  0.9034  2.4423 -1.2802
 6583TIP3    H241165   5.161  -0.030   5.125 -0.6037 -1.3011 -0.4695
 6584TIP3   OH241166   1.712   5.929   3.377 -0.2182  0.1614  0.0522
 6584TIP3    H141167   1.635   5.986   3.372  1.2224  2.2690  0.5854
 6584TIP3    H241168   1.782   5.980   3.337  1.3198 -0.9194  1.2717
 6585TIP3   OH241169   3.026   5.665   1.416 -0.0609  0.2136 -0.0787
 6585TIP3    H141170   3.118   5.672   1.439  0.1279 -2.0946  0.1090
 6585TIP3    H241171   2.979   5.688   1.497  0.2177  3.0488 -0.6239
 6586TIP3   OH241172   3.683   6.742  16.400  0.0619 -0.9301 -0.1150
 6586TIP3    H141173   3.692   6.747  16.495 -0.5167 -1.1021 -0.0470
 6586TIP3    H241174   3.752   6.799  16.366 -0.2547 -0.2126  0.4258
 6587TIP3   OH241175   5.287   2.709   1.800  0.4850 -0.0206  0.0318
 6587TIP3    H141176   5.271   2.684   1.709  0.0999 -0.4617  0.2200
 6587TIP3    H241177   5.258   2.800   1.805  1.5587  0.3852 -0.5637
 6588TIP3   OH241178   4.940   4.077   2.863 -0.3563  0.0944  0.1693
 6588TIP3    H141179   5.015   4.065   2.804 -0.0138 -1.0075  0.8042
 6588TIP3    H241180   4.871   4.023   2.824 -0.3249 -0.1344  0.4277
 6589TIP3   OH241181   2.952   4.444  12.174 -0.3433  0.2423  0.1193
 6589TIP3    H141182   2.915   4.363  12.139  0.3251 -0.7973  1.7612
 6589TIP3    H241183   2.887   4.475  12.237 -0.9309  1.4153 -0.9999
 6590TIP3   OH241184   0.082   2.698   4.018 -0.4855 -0.5812  0.1120
 6590TIP3    H141185  -0.000   2.680   4.064  0.2678  1.8056  2.7345
 6590TIP3    H241186   0.059   2.767   3.956 -0.3428  0.8400  1.5809
 6591TIP3   OH241187   2.826   0.164  12.933 -0.5592 -0.0577  0.1338
 6591TIP3    H141188   2.782   0.103  12.992  1.6926 -0.3420  1.6038
 6591TIP3    H241189   2.878   0.220  12.990 -0.8360  1.8359 -1.3624
 6592TIP3   OH241190   2.148   0.011  15.505 -0.1474 -0.1094 -0.1688
 6592TIP3    H141191   2.116   0.019  15.415 -1.2950 -1.0541  0.1162
 6592TIP3    H241192   2.101  -0.065  15.540 -0.1522  0.5740  1.4024
 6593TIP3   OH241193   0.336   3.074   4.702 -0.2928  0.2148  0.3293
 6593TIP3    H141194   0.396   3.095   4.773 -1.1983  0.5188  1.0347
 6593TIP3    H241195   0.252   3.109   4.731 -0.9963 -0.9210 -0.2621
 6594TIP3   OH241196   6.336   2.206  12.609  0.1755 -0.0265 -0.2539
 6594TIP3    H141197   6.277   2.153  12.555  2.0863 -0.2692 -2.2515
 6594TIP3    H241198   6.415   2.153  12.617  1.2722  1.5411 -0.2640
 6595TIP3   OH241199   2.100   4.156  11.916  0.3486  0.0031  0.5502
 6595TIP3    H141200   2.165   4.207  11.868 -0.3993  1.1539  0.6944
 6595TIP3    H241201   2.150   4.094  11.968  1.1936 -3.4315 -3.8133
 6596TIP3   OH241202   2.960   3.335  11.364  0.1879  0.1215 -0.2392
 6596TIP3    H141203   3.010   3.321  11.284  1.4126 -1.3308  0.7098
 6596TIP3    H241204   2.886   3.275  11.357  0.5796 -0.3921 -0.0784
 6597TIP3   OH241205   4.290   2.819   3.859  0.8691 -0.3901  0.5763
 6597TIP3    H141206   4.276   2.742   3.915  0.5237 -0.1567  0.8170
 6597TIP3    H241207   4.375   2.803   3.817  1.2640 -0.4322  1.3817
 6598TIP3   OH241208   6.456   5.675  15.523  0.5247  0.7031 -0.5229
 6598TIP3    H141209   6.403   5.716  15.592 -2.1701 -0.0900 -1.9686
 6598TIP3    H241210   6.492   5.596  15.564 -2.6011 -0.8197 -0.3557
 6599TIP3   OH241211   3.256   3.038   0.330  0.1289 -0.0343  0.0823
 6599TIP3    H141212   3.237   3.001   0.243 -0.6958  0.7140 -0.0646
 6599TIP3    H241213   3.300   3.121   0.311  0.2244 -0.0143  0.3905
 6600TIP3   OH241214   1.587   3.531   3.539 -0.1561 -0.1357  0.2014
 6600TIP3    H141215   1.602   3.499   3.450 -0.4976  0.2115  0.0147
 6600TIP3    H241216   1.584   3.453   3.594 -0.6364 -0.3994 -0.1964
 6601TIP3   OH241217   6.236   5.622  16.754 -0.2145 -0.4460  0.3819
 6601TIP3    H141218   6.155   5.575  16.735 -1.3636  1.3511  0.5853
 6601TIP3    H241219   6.264   5.657  16.669  0.6155 -1.4295  0.2360
 6602TIP3   OH241220   1.089   6.688   6.037  0.1098 -0.3749  0.4447
 6602TIP3    H141221   1.081   6.620   6.104  0.3177  0.3341  1.2156
 6602TIP3    H241222   1.174   6.671   5.996 -0.4894 -1.4624 -0.4038
 6603TIP3   OH241223   3.660   2.380   3.223 -0.0296  0.1655 -0.1199
 6603TIP3    H141224   3.694   2.293   3.243  0.2372  0.3038  0.0336
 6603TIP3    H241225   3.600   2.366   3.149 -0.6734 -0.2791  0.4697
 6604TIP3   OH241226   6.434   2.751  14.168  0.0518 -0.6115 -0.4792
 6604TIP3    H141227   6.463   2.708  14.249  1.0894 -1.7682 -1.4254
 6604TIP3    H241228   6.512   2.754  14.113 -0.2205  1.7392 -0.8041
 6605TIP3   OH241229   4.913   2.733  16.509 -0.0940  0.8347 -0.1175
 6605TIP3    H141230   4.854   2.807  16.525  0.0117  1.1693 -1.2085
 6605TIP3    H241231   5.000   2.772  16.501 -0.0545  0.6197 -0.8366
 6606TIP3   OH241232   5.044   1.176   4.062  0.4721  0.0001 -0.5325
 6606TIP3    H141233   4.978   1.130   4.010 -1.4018  0.8805  0.9320
 6606TIP3    H241234   5.049   1.126   4.144 -0.0543  1.1854  0.2513
 6607TIP3   OH241235   3.782   4.763   5.887 -0.3594 -0.0625 -0.4665
 6607TIP3    H141236   3.765   4.803   5.972 -0.6158 -0.0603 -0.5172
 6607TIP3    H241237   3.742   4.676   5.893  1.0943 -0.7194  0.0083
 6608TIP3   OH241238   3.136   2.370   2.571  0.8758 -0.2560  0.3673
 6608TIP3    H141239   3.124   2.287   2.524  1.4582 -0.4787  0.5976
 6608TIP3    H241240   3.048   2.402   2.585  0.6602 -0.5843 -0.1787
 6609TIP3   OH241241   2.730   4.439   3.042 -0.2288 -0.3578 -0.1338
 6609TIP3    H141242   2.739   4.516   3.099 -0.5157  0.6303 -1.3751
 6609TIP3    H241243   2.810   4.437   2.990 -2.1042  1.9978 -3.4601
 6610TIP3   OH241244   0.645   4.837   1.143  0.1378  0.8850 -0.6310
 6610TIP3    H141245   0.615   4.909   1.199 -1.2333  0.3198 -0.5950
 6610TIP3    H241246   0.585   4.839   1.068 -0.6639 -0.9209 -0.0796
 6611TIP3   OH241247   6.369   6.770   4.420 -0.2164 -0.2385 -0.5714
 6611TIP3    H141248   6.293   6.786   4.476  1.2853  0.4462  1.3916
 6611TIP3    H241249   6.365   6.839   4.354  0.6092  2.0894  1.6882
 6612TIP3   OH241250   4.057   1.616  16.711 -0.7129 -0.3271 -0.1975
 6612TIP3    H141251   4.086   1.625  16.621  2.5922 -0.0093  0.7649
 6612TIP3    H241252   4.039   1.706  16.740  0.1286 -0.2045 -0.0222
 6613TIP3   OH241253   4.081   6.062   0.375  0.2264 -0.1288  0.1516
 6613TIP3    H141254   4.026   6.129   0.334 -0.3584 -1.1764 -0.8570
 6613TIP3    H241255   4.077   6.080   0.469 -0.9164  0.5001 -0.0116
 6614TIP3   OH241256   1.737   3.866   0.982  0.5766  0.0358  0.3260
 6614TIP3    H141257   1.807   3.926   1.008  0.9248  0.3544 -1.2619
 6614TIP3    H241258   1.715   3.819   1.063  1.2288  1.3284  1.3006
 6615TIP3   OH241259   2.232   0.863  17.203 -0.3095  0.2832 -0.4070
 6615TIP3    H141260   2.165   0.930  17.216 -1.0168 -0.4928  0.0375
 6615TIP3    H241261   2.299   0.883  17.269 -1.1259 -0.1753  0.5931
 6616TIP3   OH241262   3.084   2.425   3.964 -0.0533 -0.4192  0.4517
 6616TIP3    H141263   3.068   2.510   4.005 -0.7901 -0.2653 -0.1441
 6616TIP3    H241264   3.011   2.413   3.904 -0.0823 -1.5879  0.7035
 6617TIP3   OH241265   5.412   1.039   1.119  0.6747 -0.5230 -0.3127
 6617TIP3    H141266   5.492   1.062   1.167 -0.9683  4.9937  0.4669
 6617TIP3    H241267   5.353   1.004   1.185  0.3682  1.6369  0.6405
 6618TIP3   OH241268   2.523   2.025   0.027 -0.0562 -0.1768 -0.1976
 6618TIP3    H141269   2.606   2.063  -0.001  0.2715 -0.8039 -0.0942
 6618TIP3    H241270   2.478   2.003  -0.055  0.3660 -0.8660 -0.2498
 6619TIP3   OH241271   2.501   0.837  15.685 -0.1520 -0.4616  0.5634
 6619TIP3    H141272   2.454   0.879  15.757 -0.2248 -2.1023  1.5235
 6619TIP3    H241273   2.567   0.782  15.728  2.4646  1.4712 -0.7295
 6620TIP3   OH241274   6.311   1.928  13.204  0.3590 -0.0380 -0.2407
 6620TIP3    H141275   6.312   1.976  13.287 -0.7910 -1.3926  0.6137
 6620TIP3    H241276   6.218   1.914  13.186  0.6439 -1.8917 -0.4619
 6621TIP3   OH241277   5.004   4.400  17.076  0.7378 -0.7496 -0.0690
 6621TIP3    H141278   5.062   4.428  17.147  1.1391 -0.2317 -0.5905
 6621TIP3    H241279   4.916   4.419  17.108  0.9911  1.2905 -0.4566
 6622TIP3   OH241280   3.420   1.991   4.605  0.2865  0.6039 -0.4007
 6622TIP3    H141281   3.325   1.987   4.619  0.3255 -0.4035 -0.3352
 6622TIP3    H241282   3.430   2.008   4.512  0.0434  2.2729 -0.1460
 6623TIP3   OH241283   5.403   4.264   1.261 -0.1240 -0.0205  0.2962
 6623TIP3    H141284   5.480   4.264   1.318 -0.5077  0.2095  0.8117
 6623TIP3    H241285   5.428   4.320   1.188  0.2717 -0.1094  0.3563
 6624TIP3   OH241286   3.442   3.237  10.954  0.2637  0.4351  0.1447
 6624TIP3    H141287   3.488   3.293  10.891 -0.0777  0.4106 -0.1333
 6624TIP3    H241288   3.362   3.211  10.908  0.1392  0.1974  0.4926
 6625TIP3   OH241289   0.781   4.575  14.598 -0.6686  0.2443 -0.3674
 6625TIP3    H141290   0.729   4.584  14.678  1.3604 -0.3036  1.0976
 6625TIP3    H241291   0.792   4.665  14.566 -0.7051  0.5725  0.5223
 6626TIP3   OH241292   3.616   6.031   2.872 -0.7007  0.2719 -0.3113
 6626TIP3    H141293   3.535   6.073   2.843 -0.9710  0.3626  0.5705
 6626TIP3    H241294   3.610   6.028   2.967 -0.5944 -1.5972 -0.3376
 6627TIP3   OH241295   1.776   1.269  17.022  0.1567  0.0208  0.5209
 6627TIP3    H141296   1.864   1.240  16.998 -0.0609  0.1884 -0.5243
 6627TIP3    H241297   1.723   1.189  17.019  0.0319  0.1205 -0.0571
 6628TIP3   OH241298   1.941   1.915   1.203  0.3026  0.0385 -0.2374
 6628TIP3    H141299   1.989   1.926   1.121 -2.7208  1.4910 -1.9947
 6628TIP3    H241300   1.848   1.920   1.178 -0.9167 -3.0813  2.8198
 6629TIP3   OH241301   0.104   5.178  15.190  0.2240  0.2629  0.6834
 6629TIP3    H141302   0.085   5.236  15.263  2.2912  2.3054 -0.2435
 6629TIP3    H241303   0.052   5.212  15.117  1.1850  0.8036  0.2221
 6630TIP3   OH241304   2.250   3.566   2.976  0.2045 -0.6330  0.2142
 6630TIP3    H141305   2.331   3.601   2.940  0.1017 -1.9330 -1.4557
 6630TIP3    H241306   2.271   3.475   2.999 -0.4867 -0.6487  0.8084
 6631TIP3   OH241307   2.764   3.975   5.895  0.2424 -0.3424 -1.0169
 6631TIP3    H141308   2.681   4.024   5.902  0.9881  1.0755 -1.6183
 6631TIP3    H241309   2.816   4.008   5.969  0.3190 -1.1709 -0.6896
 6632TIP3   OH241310   4.527   2.379   6.255 -0.5688 -0.6247 -0.5185
 6632TIP3    H141311   4.479   2.449   6.211 -0.4743  0.2162  0.6849
 6632TIP3    H241312   4.596   2.354   6.193  2.0298  3.1584  0.5160
 6633TIP3   OH241313   4.783   6.243  13.452 -0.0803 -0.3707 -0.5389
 6633TIP3    H141314   4.779   6.179  13.523  0.6177 -1.1196 -1.1550
 6633TIP3    H241315   4.823   6.196  13.379  2.5411  1.3646 -0.3519
 6634TIP3   OH241316   4.399   1.361   3.829  0.3274 -0.7263 -0.3360
 6634TIP3    H141317   4.348   1.435   3.861 -1.6497 -2.0241 -0.3430
 6634TIP3    H241318   4.479   1.401   3.792  1.0757  1.1021  2.9051
 6635TIP3   OH241319   1.256   0.414   1.357 -0.6555 -0.5649 -0.3846
 6635TIP3    H141320   1.328   0.360   1.326  0.2275 -0.1037  0.7944
 6635TIP3    H241321   1.217   0.364   1.429 -0.6173 -0.1954 -0.1010
 6636TIP3   OH241322   3.083   5.679  14.903  0.0060  0.1737  0.5127
 6636TIP3    H141323   3.124   5.598  14.873 -0.1488  0.1291  0.4234
 6636TIP3    H241324   3.062   5.727  14.823  0.3251  0.4163  0.5703
 6637TIP3   OH241325   5.267   1.399  11.925  0.8095 -0.6123  0.0612
 6637TIP3    H141326   5.182   1.441  11.935  0.8356 -0.2957 -0.9998
 6637TIP3    H241327   5.248   1.305  11.931  0.1929 -0.6003 -1.4572
 6638TIP3   OH241328   2.887   0.478  16.420 -0.2946  0.4114 -0.2243
 6638TIP3    H141329   2.926   0.533  16.353 -0.0642 -1.0524 -1.3565
 6638TIP3    H241330   2.801   0.453  16.383  0.8866 -2.5571 -1.3103
 6639TIP3   OH241331   2.492   6.146  11.422  0.0442  0.1153 -0.0166
 6639TIP3    H141332   2.565   6.156  11.484  0.9172  1.5190 -1.2068
 6639TIP3    H241333   2.494   6.225  11.369 -1.3121 -0.5877 -1.1909
 6640TIP3   OH241334   6.582   3.779   4.755  0.0189 -0.0153  0.0685
 6640TIP3    H141335   6.560   3.828   4.675  1.2945  0.3525 -0.0818
 6640TIP3    H241336   6.595   3.689   4.726  1.3252  0.2777 -0.3069
 6641TIP3   OH241337   6.304   6.207  12.365 -0.0404  0.0938 -0.0348
 6641TIP3    H141338   6.248   6.260  12.421 -1.3143  1.4735 -2.4100
 6641TIP3    H241339   6.393   6.236  12.385 -0.6305  2.3169 -0.3546
 6642TIP3   OH241340   6.663   3.444   1.650  0.0386 -0.7079 -0.3028
 6642TIP3    H141341   6.651   3.531   1.690  0.4764 -0.9700  0.4152
 6642TIP3    H241342   6.596   3.440   1.583 -0.9129 -0.3599  0.5950
 6643TIP3   OH241343   1.220   6.661  15.245 -1.0318 -0.0841  0.5042
 6643TIP3    H141344   1.242   6.713  15.168 -2.7572 -0.0648 -0.0373
 6643TIP3    H241345   1.300   6.613  15.266 -0.8358 -1.0400 -2.0662
 6644TIP3   OH241346   5.196   2.668   6.464  0.0727  0.5971 -0.4725
 6644TIP3    H141347   5.231   2.738   6.517 -2.0179  1.6416 -0.3595
 6644TIP3    H241348   5.121   2.707   6.419 -0.8930 -1.4342 -0.7454
 6645TIP3   OH241349   0.892   5.699  11.229  0.3150  0.0067  0.2859
 6645TIP3    H141350   0.839   5.778  11.240 -1.0654 -0.7361 -0.7615
 6645TIP3    H241351   0.872   5.668  11.140  1.7643 -0.8608  0.2157
 6646TIP3   OH241352   5.525   0.421   0.953  0.3808 -0.5352 -0.1189
 6646TIP3    H141353   5.494   0.336   0.923  0.2743 -1.5042  2.4295
 6646TIP3    H241354   5.447   0.467   0.983  0.7769 -1.1094  1.9778
 6647TIP3   OH241355   0.619   2.876   0.618 -0.5179 -0.2308  0.0065
 6647TIP3    H141356   0.701   2.911   0.583 -1.1843  1.9362  0.4086
 6647TIP3    H241357   0.561   2.952   0.622 -2.0106 -1.3705  1.2905
 6648TIP3   OH241358   2.482   0.709   5.793  0.3477  0.4058 -0.3654
 6648TIP3    H141359   2.492   0.619   5.760 -0.3630  0.4948 -0.8333
 6648TIP3    H241360   2.570   0.746   5.786  0.7617 -0.4168  0.3271
 6649TIP3   OH241361   6.750   3.307   5.452  0.1008 -0.0950  0.0655
 6649TIP3    H141362   6.809   3.238   5.423 -0.2336  0.7958 -3.1095
 6649TIP3    H241363   6.772   3.383   5.397 -0.5967  1.8749  2.3261
 6650TIP3   OH241364   1.453   4.557   1.151  0.1101 -0.1049  0.5705
 6650TIP3    H141365   1.499   4.476   1.130 -0.2241  0.1362 -1.2160
 6650TIP3    H241366   1.384   4.564   1.086  1.5396  2.7512 -0.8387
 6651TIP3   OH241367   5.805   6.700  17.140 -0.0077  0.0463 -0.1994
 6651TIP3    H141368   5.830   6.608  17.147  1.1030  0.3034 -0.5863
 6651TIP3    H241369   5.864   6.737  17.074 -2.0471  0.4916 -1.8806
 6652TIP3   OH241370   0.376   1.809   0.511  0.2114  0.2546  0.3146
 6652TIP3    H141371   0.371   1.899   0.481 -2.9766 -0.0716 -0.5034
 6652TIP3    H241372   0.404   1.759   0.435  1.6707  0.4706  0.6829
 6653TIP3   OH241373   5.474   1.092   0.700  0.2501 -0.6037 -0.3709
 6653TIP3    H141374   5.523   1.040   0.763  0.9064  1.0973  0.5711
 6653TIP3    H241375   5.491   1.183   0.724 -1.3522  0.0752 -1.5793
 6654TIP3   OH241376   1.421   0.342   3.210  0.0438  0.1176 -0.3814
 6654TIP3    H141377   1.488   0.317   3.275  0.6889  1.0689 -0.6502
 6654TIP3    H241378   1.442   0.433   3.189 -0.2696 -0.1276 -1.8020
 6655TIP3   OH241379   3.797   3.105  11.716 -0.5436 -0.1842  0.4942
 6655TIP3    H141380   3.849   3.083  11.639  1.1607  0.0268  1.5467
 6655TIP3    H241381   3.818   3.038  11.780 -1.4606  0.0007  1.0154
 6656TIP3   OH241382   3.601   1.423  10.652  0.3140 -0.5622  0.6102
 6656TIP3    H141383   3.605   1.328  10.638  0.0683 -0.3965 -0.7848
 6656TIP3    H241384   3.690   1.448  10.675  1.0467 -0.7874 -1.7273
 6657TIP3   OH241385   4.930   4.994   2.056  0.0362  0.4164  0.5839
 6657TIP3    H141386   5.005   5.052   2.046  0.4937 -0.2049  0.3670
 6657TIP3    H241387   4.871   5.040   2.116  0.0751  1.4172 -0.1116
 6658TIP3   OH241388   6.627   0.892   5.558  0.6448  0.1332  0.1142
 6658TIP3    H141389   6.663   0.924   5.640  0.0988 -1.4985  1.0309
 6658TIP3    H241390   6.690   0.922   5.491  1.3906  0.9942  1.1713
 6659TIP3   OH241391   2.932   4.018  12.894 -0.5395  0.5359  0.0564
 6659TIP3    H141392   2.844   4.041  12.923 -0.5536  1.3611 -0.6010
 6659TIP3    H241393   2.963   4.095  12.847 -0.4582 -0.6138 -1.9370
 6660TIP3   OH241394   3.391   0.534  13.380  0.0350  0.7586  0.0949
 6660TIP3    H141395   3.344   0.536  13.463  1.2975  1.6200  0.8205
 6660TIP3    H241396   3.404   0.441  13.362 -1.7471  0.4923 -0.0546
 6661TIP3   OH241397   5.341   1.878   5.542 -0.1700  0.0249  0.1619
 6661TIP3    H141398   5.272   1.944   5.543 -0.8204 -0.6422  0.5327
 6661TIP3    H241399   5.380   1.883   5.630  0.2526  0.3948 -0.0439
 6662TIP3   OH241400   3.501   2.191   3.597  0.5070  0.0438  0.2267
 6662TIP3    H141401   3.416   2.174   3.637  0.6356  0.7237  0.8043
 6662TIP3    H241402   3.486   2.176   3.504 -0.4756  0.9748  0.2078
 6663TIP3   OH241403   1.977   0.469   3.572  0.1441  0.0472  0.1998
 6663TIP3    H141404   1.970   0.561   3.546 -0.8108  0.0368  0.3665
 6663TIP3    H241405   1.888   0.434   3.561  0.8921 -1.3989 -1.8072
 6664TIP3   OH241406   4.947   3.694  12.330 -0.1631  0.4773  0.3929
 6664TIP3    H141407   5.022   3.640  12.305 -0.3739  0.9966 -1.5191
 6664TIP3    H241408   4.976   3.742  12.408  1.0025 -0.3019  0.4603
 6665TIP3   OH241409   0.347   2.720  12.741  0.4959 -0.1270  0.1858
 6665TIP3    H141410   0.428   2.705  12.692  1.1140  3.5558 -0.1498
 6665TIP3    H241411   0.284   2.748  12.674 -0.6747 -1.4787  0.6708
 6666TIP3   OH241412   0.844   2.283  14.951  0.3494  0.2966  0.4781
 6666TIP3    H141413   0.866   2.305  15.042 -0.0991  0.2122  0.6094
 6666TIP3    H241414   0.751   2.262  14.954 -0.0037  1.6843 -0.2662
 6667TIP3   OH241415   1.264   5.416  11.145  0.0344 -1.0273  0.2019
 6667TIP3    H141416   1.244   5.348  11.209  1.1348 -2.0474 -0.4918
 6667TIP3    H241417   1.196   5.408  11.078 -0.0810 -1.1653  0.3386
 6668TIP3   OH241418   6.663   2.006  16.244 -0.9275 -1.3065 -0.0600
 6668TIP3    H141419   6.703   1.922  16.223  0.1578 -0.1948 -2.9847
 6668TIP3    H241420   6.575   1.983  16.275 -0.0047 -3.5560  1.1317
 6669TIP3   OH241421   3.541   5.814   0.359 -0.0516 -0.0920 -0.5627
 6669TIP3    H141422   3.449   5.841   0.369 -0.1084 -0.2262 -0.7204
 6669TIP3    H241423   3.591   5.887   0.396 -0.2514 -0.5890  0.7484
 6670TIP3   OH241424   2.046   5.693   4.395 -0.2083 -0.0987 -0.3406
 6670TIP3    H141425   2.067   5.726   4.307 -0.9178 -0.7573 -0.7677
 6670TIP3    H241426   2.108   5.622   4.409  0.0701  0.1675 -0.1954
 6671TIP3   OH241427   2.533   6.452  12.029  0.4645 -0.1959 -0.1406
 6671TIP3    H141428   2.499   6.375  12.075  0.2608  0.4548  0.8406
 6671TIP3    H241429   2.579   6.417  11.954 -1.4983 -1.1730 -0.9574
 6672TIP3   OH241430   0.878   0.782  16.384  0.0254  0.4304  0.5747
 6672TIP3    H141431   0.928   0.707  16.354  0.0223  1.0888 -1.2291
 6672TIP3    H241432   0.944   0.847  16.410  0.0418  0.2217  1.0686
 6673TIP3   OH241433   0.288   5.477  12.144  0.6937  0.0883 -0.2120
 6673TIP3    H141434   0.310   5.386  12.166 -3.2878 -0.8667  0.4918
 6673TIP3    H241435   0.267   5.474  12.050 -0.0001  0.1330 -0.0615
 6674TIP3   OH241436   0.341   3.260  13.842 -0.1830  0.2200 -0.5645
 6674TIP3    H141437   0.253   3.283  13.813 -0.4999  0.1403  0.2937
 6674TIP3    H241438   0.399   3.318  13.792 -0.8722  1.8879  0.4551
 6675TIP3   OH241439   0.646   1.778   5.630 -0.3931 -0.1169  0.2528
 6675TIP3    H141440   0.551   1.776   5.620 -0.5287  1.3429  1.0150
 6675TIP3    H241441   0.678   1.815   5.548 -0.5647  0.4021  0.4206
 6676TIP3   OH241442   1.505   4.874  12.129 -0.1027 -0.3998  0.0900
 6676TIP3    H141443   1.449   4.927  12.072 -0.9305 -0.6195  0.6774
 6676TIP3    H241444   1.444   4.835  12.192  0.8417  0.1052  1.3390
 6677TIP3   OH241445   0.646   5.527   5.632  0.2192  0.2755 -0.0117
 6677TIP3    H141446   0.638   5.609   5.681  0.0978 -0.4445  1.2333
 6677TIP3    H241447   0.593   5.465   5.683 -0.2911 -0.3963 -1.3370
 6678TIP3   OH241448   6.512   1.958   0.446  0.3677 -0.1371  0.1331
 6678TIP3    H141449   6.494   1.947   0.539  0.4738 -0.3460  0.1300
 6678TIP3    H241450   6.578   1.891   0.427  0.5519  0.0885 -0.0284
 6679TIP3   OH241451   0.893   2.808   5.637 -0.4518  0.2660  0.0321
 6679TIP3    H141452   0.919   2.824   5.547 -0.8212  0.4086 -0.0515
 6679TIP3    H241453   0.975   2.804   5.686 -0.2943  2.4274  0.0615
 6680TIP3   OH241454   2.600   2.966   1.433  0.4349 -0.1052  0.1457
 6680TIP3    H141455   2.617   3.041   1.491  0.1431 -0.7524  1.0894
 6680TIP3    H241456   2.687   2.933   1.410  0.5508 -0.2019  0.7029
 6681TIP3   OH241457   0.147   1.876   0.715  0.2082 -0.2514  0.1964
 6681TIP3    H141458   0.221   1.824   0.684 -1.7243 -2.0929 -1.5989
 6681TIP3    H241459   0.091   1.814   0.762 -1.1985  0.6369 -0.2497
 6682TIP3   OH241460   0.691   4.826  14.574  0.4360 -0.2765  0.0441
 6682TIP3    H141461   0.698   4.920  14.593  0.8297  0.2992 -2.5847
 6682TIP3    H241462   0.601   4.803  14.599 -0.2842  1.2651 -0.9949
 6683TIP3   OH241463   5.700   0.112  10.991  0.3806 -0.1837  0.3859
 6683TIP3    H141464   5.690   0.205  11.009  0.1033 -0.0140 -0.5775
 6683TIP3    H241465   5.790   0.103  10.960  0.1753 -0.0947 -0.2629
 6684TIP3   OH241466   6.726   3.026  12.515  0.2274 -0.5726  0.0575
 6684TIP3    H141467   6.751   3.119  12.513 -2.4066  0.2139 -1.0021
 6684TIP3    H241468   6.792   2.982  12.461  0.7327  0.9232 -0.5974
 6685TIP3   OH241469   1.104   3.744  12.432  0.2097  0.5392 -0.3405
 6685TIP3    H141470   1.058   3.706  12.507 -0.5531  0.1049 -1.0015
 6685TIP3    H241471   1.050   3.720  12.357  0.2118  2.1251 -0.8925
 6686TIP3   OH241472   1.311   5.201  13.055  0.0404 -0.4254 -0.2527
 6686TIP3    H141473   1.403   5.195  13.028  0.1950  0.2538  0.0951
 6686TIP3    H241474   1.266   5.136  13.001  0.9546 -1.8159  0.6018
 6687TIP3   OH241475   4.028   0.426  15.181  0.0017 -0.0829 -0.2878
 6687TIP3    H141476   3.949   0.478  15.169  0.3555  0.6850  0.6980
 6687TIP3    H241477   4.086   0.480  15.234  0.4451 -1.3950  0.6269
 6688TIP3   OH241478   5.379   6.036   2.939 -0.1474 -0.7402 -0.5839
 6688TIP3    H141479   5.403   6.079   3.021 -0.8606 -0.8852 -0.2881
 6688TIP3    H241480   5.460   6.034   2.888 -0.3440  2.2555 -1.2190
 6689TIP3   OH241481   4.278   6.305  13.578  0.0159 -0.3870  0.1050
 6689TIP3    H141482   4.261   6.233  13.517  0.9013 -2.1559  1.8240
 6689TIP3    H241483   4.365   6.336  13.555 -0.1060 -0.2925 -0.2331
 6690TIP3   OH241484   1.596   6.793   1.148  0.2604 -0.0511  0.6102
 6690TIP3    H141485   1.535   6.849   1.100  0.6287 -0.2547 -0.0994
 6690TIP3    H241486   1.548   6.770   1.228 -0.7725 -0.5614 -0.1349
 6691TIP3   OH241487   0.469   3.618  16.480  0.0150 -0.1589  0.1070
 6691TIP3    H141488   0.553   3.651  16.446 -0.6413 -1.5595 -3.3542
 6691TIP3    H241489   0.482   3.524  16.488 -0.7485 -0.1856  1.2471
 6692TIP3   OH241490   3.370   0.683   4.483  0.5595 -0.5780 -0.5872
 6692TIP3    H141491   3.328   0.642   4.560  1.6058 -0.1415  0.2390
 6692TIP3    H241492   3.297   0.704   4.425 -0.2085 -1.4751  0.0097
 6693TIP3   OH241493   0.257   1.942  16.520 -0.0278  0.2079 -0.3346
 6693TIP3    H141494   0.216   1.862  16.487 -1.5044  1.4484 -1.6534
 6693TIP3    H241495   0.304   1.914  16.599 -0.6846 -1.9027 -0.6319
 6694TIP3   OH241496   5.943   4.180   5.035 -0.3388 -0.2853 -0.0559
 6694TIP3    H141497   5.921   4.117   5.104 -0.3528  1.2797  1.4401
 6694TIP3    H241498   5.921   4.135   4.953 -1.1779 -1.8755  0.9921
 6695TIP3   OH241499   5.585   6.658  12.584  0.4680 -0.4480  0.0391
 6695TIP3    H141500   5.544   6.684  12.501  0.2139  0.4470  0.4309
 6695TIP3    H241501   5.512   6.626  12.638  0.2832  0.9554  0.6637
 6696TIP3   OH241502   3.068   5.935  11.898 -0.3211 -0.6040 -0.4614
 6696TIP3    H141503   3.045   6.012  11.951  0.6976 -0.8823  0.4271
 6696TIP3    H241504   3.003   5.934  11.828  0.9986  2.4227 -1.9066
 6697TIP3   OH241505   5.473   4.502  13.623  0.7416 -0.3897 -0.6961
 6697TIP3    H141506   5.522   4.420  13.628 -1.1870 -1.5859 -0.2001
 6697TIP3    H241507   5.454   4.513  13.529  2.3848  0.4069 -0.9710
 6698TIP3   OH241508   3.976   5.830  16.905 -0.0741 -0.2500  0.2741
 6698TIP3    H141509   3.968   5.864  16.994 -1.8976 -0.5331  0.2604
 6698TIP3    H241510   4.063   5.858  16.876  0.3269  0.3228  1.9330
 6699TIP3   OH241511   0.378   5.645   0.363  0.0651  0.5084  0.7235
 6699TIP3    H141512   0.352   5.724   0.316 -0.8291 -1.0741 -1.6229
 6699TIP3    H241513   0.462   5.621   0.325 -0.2155 -0.2791  0.5834
 6700TIP3   OH241514   5.671   3.516  11.909  0.5335  0.5004 -0.4813
 6700TIP3    H141515   5.637   3.475  11.829 -0.2596 -1.9956  0.9934
 6700TIP3    H241516   5.763   3.489  11.912  1.1402  2.2698 -1.4695
 6701TIP3   OH241517   1.249   4.027   3.279  0.2251  0.3042 -0.4712
 6701TIP3    H141518   1.311   3.956   3.295 -1.5148 -1.3435 -0.7228
 6701TIP3    H241519   1.249   4.078   3.360 -0.6661 -1.7476  0.8947
 6702TIP3   OH241520   4.858   3.528   1.584  0.1123  0.0078  0.6337
 6702TIP3    H141521   4.848   3.541   1.490 -0.2315 -0.5859  0.5857
 6702TIP3    H241522   4.799   3.456   1.605 -0.5119  0.7290  1.4525
 6703TIP3   OH241523   1.989   3.529   5.728  0.1486 -0.0645 -0.1873
 6703TIP3    H141524   2.024   3.595   5.669  0.3988 -0.2701 -0.2690
 6703TIP3    H241525   2.044   3.452   5.714 -0.7377 -0.5956 -0.7934
 6704TIP3   OH241526   6.408   4.087  14.706  0.4421 -0.4240  0.5430
 6704TIP3    H141527   6.483   4.028  14.717  0.1079 -0.5756  2.3416
 6704TIP3    H241528   6.343   4.054  14.768 -1.2716 -0.5044 -1.2364
 6705TIP3   OH241529   3.243   3.832   4.605 -0.4109  0.4455  0.0910
 6705TIP3    H141530   3.291   3.755   4.636  0.1909  1.1463  0.9549
 6705TIP3    H241531   3.308   3.882   4.556 -0.9334  0.1688 -0.9166
 6706TIP3   OH241532   5.835   3.294  13.085  0.4344 -0.1318 -0.1785
 6706TIP3    H141533   5.824   3.203  13.114 -0.2267 -0.6740 -1.9949
 6706TIP3    H241534   5.849   3.288  12.991 -0.3953  1.6988 -0.4746
 6707TIP3   OH241535   2.534   3.965  16.265  0.2305  0.3745  0.3028
 6707TIP3    H141536   2.589   3.967  16.343 -0.7155 -0.1213  1.0066
 6707TIP3    H241537   2.570   3.894  16.212  0.3003  0.0699  0.7496
 6708TIP3   OH241538   5.350   0.288  11.280 -0.6736 -0.1444 -0.2290
 6708TIP3    H141539   5.367   0.379  11.302 -0.5617  0.0191 -0.9912
 6708TIP3    H241540   5.298   0.255  11.354  0.7940  0.0251  0.9387
 6709TIP3   OH241541   1.259   5.025  11.249 -0.1207  0.4903 -0.4492
 6709TIP3    H141542   1.257   4.996  11.340 -0.4676  0.7341 -0.3757
 6709TIP3    H241543   1.350   5.011  11.221 -0.3088 -0.7895 -0.4697
 6710TIP3   OH241544   4.670   0.662   3.039 -0.0020  0.2127  0.0945
 6710TIP3    H141545   4.583   0.625   3.025  0.6654 -1.6700  0.5897
 6710TIP3    H241546   4.669   0.693   3.130 -0.2267  0.4504  0.0136
 6711TIP3   OH241547   6.145   4.672   4.051  0.1761  0.4986  0.5158
 6711TIP3    H141548   6.124   4.756   4.093  0.2295  0.9951 -0.4077
 6711TIP3    H241549   6.106   4.680   3.963 -2.0392 -1.4358  1.2178
 6712TIP3   OH241550   3.609   0.185   1.568  0.3406  0.6061 -0.3359
 6712TIP3    H141551   3.681   0.124   1.585 -0.7069 -0.9252 -1.0978
 6712TIP3    H241552   3.611   0.199   1.473  0.5515  1.7781 -0.1756
 6713TIP3   OH241553   5.788   5.360   3.270 -0.5625 -0.0408  0.1084
 6713TIP3    H141554   5.824   5.297   3.332  1.5649 -0.3945 -1.3855
 6713TIP3    H241555   5.825   5.444   3.298 -1.6479  0.2253  0.7965
 6714TIP3   OH241556   0.656   5.505  16.359  0.4150  0.3613 -0.6340
 6714TIP3    H141557   0.587   5.502  16.425  0.0515 -0.3213 -1.0320
 6714TIP3    H241558   0.726   5.556  16.400  0.8468 -1.3542  0.9251
 6715TIP3   OH241559   4.706   1.804   5.671  0.6997  0.0691  0.8611
 6715TIP3    H141560   4.768   1.843   5.732  1.1794  0.8055 -0.0826
 6715TIP3    H241561   4.736   1.831   5.585  0.8352 -2.0486  0.1700
 6716TIP3   OH241562   3.498   0.030   0.477 -0.2308 -0.6467 -0.0987
 6716TIP3    H141563   3.487   0.124   0.491  0.3129 -0.6654  0.4976
 6716TIP3    H241564   3.411  -0.007   0.492 -0.1362 -0.4018  1.1338
 6717TIP3   OH241565   1.293   3.808   1.799  0.2176 -0.3809  0.4976
 6717TIP3    H141566   1.203   3.779   1.787 -0.0166  0.8822 -1.3402
 6717TIP3    H241567   1.286   3.902   1.816  1.1714 -0.3827  0.9748
 6718TIP3   OH241568   5.661   3.120  12.557  0.8084 -0.1078  0.2905
 6718TIP3    H141569   5.610   3.128  12.638 -0.2223 -0.2719 -0.3276
 6718TIP3    H241570   5.681   3.210  12.532 -1.2338  0.1251 -0.7145
 6719TIP3   OH241571   6.568   3.426  13.286  0.3353 -0.5029 -0.4687
 6719TIP3    H141572   6.610   3.345  13.258  0.9292 -0.4969  0.3582
 6719TIP3    H241573   6.636   3.493  13.274  0.0996 -0.2581 -0.4473
 6720TIP3   OH241574   5.226   3.358   4.865  0.1544 -0.4273  0.5386
 6720TIP3    H141575   5.165   3.403   4.806  1.4286  1.6187  0.6850
 6720TIP3    H241576   5.203   3.266   4.857 -1.3192  0.0331 -1.2925
 6721TIP3   OH241577   0.941   6.481   5.094 -0.0913 -0.3365 -0.1758
 6721TIP3    H141578   0.955   6.405   5.037  1.7316  0.0093 -0.2309
 6721TIP3    H241579   0.846   6.492   5.094 -0.3576 -2.1497 -0.7677
 6722TIP3   OH241580   6.767   5.982   2.156  0.6933  0.3090 -0.0693
 6722TIP3    H141581   6.731   5.894   2.149  0.5063  0.4316 -0.7175
 6722TIP3    H241582   6.724   6.020   2.233  0.7973 -0.1704  0.2303
 6723TIP3   OH241583   5.901   6.144   6.510  0.1694  0.2018  0.2520
 6723TIP3    H141584   5.967   6.168   6.574  0.9050  0.3431 -0.5352
 6723TIP3    H241585   5.927   6.057   6.481  0.1622  0.3603 -0.2419
 6724TIP3   OH241586   3.734   0.653   5.802  0.3574 -0.3467 -0.8527
 6724TIP3    H141587   3.761   0.685   5.888  0.9108  0.0143 -1.1600
 6724TIP3    H241588   3.651   0.698   5.785 -0.6323 -1.6868  0.2188
 6725TIP3   OH241589   4.586   4.123   4.420 -0.1065 -0.6204  0.1047
 6725TIP3    H141590   4.578   4.034   4.452 -1.5417  0.5748  3.5571
 6725TIP3    H241591   4.496   4.155   4.414  0.0642 -0.3874 -4.7373
 6726TIP3   OH241592   2.140   1.815  12.235  0.2846 -0.1350  0.6111
 6726TIP3    H141593   2.136   1.884  12.168  0.6872  0.2168  0.9454
 6726TIP3    H241594   2.192   1.853  12.305  0.1135 -0.6145  1.0011
 6727TIP3   OH241595   1.759   6.190  12.673 -0.6479 -0.2793 -0.8259
 6727TIP3    H141596   1.762   6.228  12.585 -0.1826  2.1194  0.1427
 6727TIP3    H241597   1.667   6.172  12.689 -0.6890 -1.2076 -1.9372
 6728TIP3   OH241598   3.659   5.317  15.529  0.3995 -0.7687 -0.8003
 6728TIP3    H141599   3.646   5.267  15.609 -1.5856  1.6274  0.5104
 6728TIP3    H241600   3.594   5.281  15.468 -0.3584 -0.4591 -0.1906
 6729TIP3   OH241601   0.249   5.108  16.568 -0.2167  0.2776 -0.6435
 6729TIP3    H141602   0.286   5.032  16.613  0.6259  1.2879  0.4284
 6729TIP3    H241603   0.317   5.135  16.506 -0.3667  0.3938 -0.7595
 6730TIP3   OH241604   1.150   3.544  11.285  0.3401 -0.1371 -0.0574
 6730TIP3    H141605   1.148   3.638  11.266  0.3421 -0.4230 -1.5829
 6730TIP3    H241606   1.151   3.502  11.199 -2.8617 -1.6429  0.4925
 6731TIP3   OH241607   3.574   2.688  13.118  0.0866  0.0757  0.1258
 6731TIP3    H141608   3.507   2.696  13.187 -0.7954  4.3329 -0.9363
 6731TIP3    H241609   3.526   2.658  13.041  0.1998 -0.5188  0.2825
 6732TIP3   OH241610   5.493   1.542   4.823 -0.2483 -0.2904  0.1597
 6732TIP3    H141611   5.579   1.582   4.815 -0.5562  0.1103 -1.5402
 6732TIP3    H241612   5.501   1.459   4.777 -0.8219 -0.1632 -0.1803
 6733TIP3   OH241613   1.333   5.400  16.914  0.3973 -0.4187 -0.0315
 6733TIP3    H141614   1.255   5.368  16.868  0.2022 -0.4768  0.3380
 6733TIP3    H241615   1.352   5.484  16.872 -0.5872  0.1751  0.6895
 6734TIP3   OH241616   6.579   4.153  14.366  0.4878  0.2428 -0.2511
 6734TIP3    H141617   6.515   4.214  14.401 -2.5954 -0.8506 -3.4190
 6734TIP3    H241618   6.592   4.180  14.275  0.8415 -2.3389 -1.0770
 6735TIP3   OH241619   5.825   4.299   3.085  0.1985 -0.5298  1.1390
 6735TIP3    H141620   5.759   4.236   3.116  1.4645 -2.1244  0.7057
 6735TIP3    H241621   5.780   4.383   3.087 -2.4633 -1.7560 -0.7576
 6736TIP3   OH241622   0.960   1.935  15.000 -0.1998  0.2605 -0.0284
 6736TIP3    H141623   0.927   2.025  15.002 -0.3676  0.1876  1.0426
 6736TIP3    H241624   0.917   1.893  15.075  0.0600 -0.6458 -0.3846
 6737TIP3   OH241625   0.707   2.426   0.311  0.4306  0.8243  0.1837
 6737TIP3    H141626   0.650   2.379   0.372  1.7678  1.1249  1.7185
 6737TIP3    H241627   0.721   2.511   0.352  1.3455  1.0516 -0.5661
 6738TIP3   OH241628   4.909   0.883   4.277 -0.6684  0.5789  0.0485
 6738TIP3    H141629   4.918   0.966   4.323  1.0048  1.0832 -1.1116
 6738TIP3    H241630   4.934   0.817   4.342 -0.4214  1.1069  0.4892
 6739TIP3   OH241631   4.560   1.771  12.417 -0.1602  0.6120 -0.6639
 6739TIP3    H141632   4.654   1.780  12.435  0.0685  0.2701 -1.6433
 6739TIP3    H241633   4.525   1.731  12.497  0.9373 -1.4707 -1.1481
 6740TIP3   OH241634   6.059   4.100   0.806  0.0682 -0.1442  0.2585
 6740TIP3    H141635   6.060   4.005   0.796  0.1716 -0.1997  0.7703
 6740TIP3    H241636   5.966   4.122   0.811  0.0713 -0.4314  2.0016
 6741TIP3   OH241637   2.771   4.500  16.157  0.1131 -0.1046 -0.2338
 6741TIP3    H141638   2.794   4.550  16.235  0.4760 -0.4756 -0.0963
 6741TIP3    H241639   2.712   4.557  16.108 -0.5687 -0.0882  0.5850
 6742TIP3   OH241640   4.635   0.598  14.609 -0.0121  0.2125  0.5513
 6742TIP3    H141641   4.616   0.522  14.554 -1.2488  0.6469  0.3218
 6742TIP3    H241642   4.729   0.611  14.601  0.0320 -0.5579 -0.3926
 6743TIP3   OH241643   6.254   6.190  15.509 -0.2192 -0.6762 -0.3251
 6743TIP3    H141644   6.292   6.125  15.568  0.8673  0.9604  0.8704
 6743TIP3    H241645   6.167   6.208  15.545 -2.3054 -4.2247 -2.9100
 6744TIP3   OH241646   0.237   5.180   3.745  0.3007 -0.4090 -0.1119
 6744TIP3    H141647   0.257   5.115   3.678  1.8047 -0.2323  0.1401
 6744TIP3    H241648   0.322   5.201   3.785 -0.3394  0.7135  0.7203
 6745TIP3   OH241649   0.171   0.483  15.192 -0.3782 -0.2018  0.2542
 6745TIP3    H141650   0.197   0.392  15.178 -1.1137 -0.1808 -1.5761
 6745TIP3    H241651   0.232   0.534  15.137 -0.9952  0.2617 -0.0149
 6746TIP3   OH241652   1.151   1.567  13.181 -0.0734 -0.1238  0.2500
 6746TIP3    H141653   1.078   1.619  13.149  0.4478 -0.4800 -1.6182
 6746TIP3    H241654   1.226   1.595  13.129  0.9036 -0.5450  1.3666
 6747TIP3   OH241655   0.448   3.404   2.135 -0.3738 -0.3678 -0.2327
 6747TIP3    H141656   0.492   3.466   2.077  0.4104 -0.6204  0.0779
 6747TIP3    H241657   0.509   3.331   2.142 -0.1831 -0.0964  1.3628
 6748TIP3   OH241658   0.373   4.288   0.302  0.2283  0.3160  0.2576
 6748TIP3    H141659   0.458   4.293   0.258  1.4812 -0.1589  2.5110
 6748TIP3    H241660   0.310   4.282   0.230  2.2172 -1.5241 -1.4674
 6749TIP3   OH241661   6.661   5.619   2.883 -0.2316  0.1774  0.1097
 6749TIP3    H141662   6.708   5.684   2.935  0.8616 -0.6469  0.1895
 6749TIP3    H241663   6.665   5.652   2.793 -1.8113  1.4216  0.4496
 6750TIP3   OH241664   5.577   3.608  11.129  0.0339  0.1491  0.4195
 6750TIP3    H141665   5.583   3.541  11.198 -0.6739 -1.3181 -0.8638
 6750TIP3    H241666   5.553   3.558  11.050  0.0703  1.8663 -0.7212
 6751TIP3   OH241667   4.972   1.565  16.446  0.1403 -0.5604  0.5329
 6751TIP3    H141668   4.957   1.513  16.525  0.5842  0.5848  1.4032
 6751TIP3    H241669   5.057   1.606  16.460 -0.5126  0.9852  0.2164
 6752TIP3   OH241670   3.233   5.526  10.470 -0.3703 -0.3949 -0.8744
 6752TIP3    H141671   3.199   5.438  10.452 -0.0017 -0.5737 -0.7304
 6752TIP3    H241672   3.326   5.521  10.445 -0.4258  0.0561 -1.1881
 6753TIP3   OH241673   2.292   0.631   6.002 -0.6721 -0.5618 -0.2589
 6753TIP3    H141674   2.360   0.655   5.938 -0.4086  0.5873  0.4390
 6753TIP3    H241675   2.215   0.613   5.948 -0.2568 -0.3302 -0.9536
 6754TIP3   OH241676   0.253   5.731  15.308 -0.2064 -0.2308 -0.1864
 6754TIP3    H141677   0.271   5.796  15.240 -0.5586  0.5883  0.4974
 6754TIP3    H241678   0.253   5.647  15.261 -1.2590  0.3920 -1.3488
 6755TIP3   OH241679   5.783   5.822  16.985 -0.4575  0.2507 -0.3687
 6755TIP3    H141680   5.724   5.781  16.922  0.4178 -0.2271 -0.9084
 6755TIP3    H241681   5.870   5.791  16.959  0.1582  1.8685 -0.3300
 6756TIP3   OH241682   5.474   1.466  16.962 -0.3075 -0.0923 -0.3759
 6756TIP3    H141683   5.516   1.463  16.876  1.7350  0.2586  0.5666
 6756TIP3    H241684   5.489   1.379  16.999 -0.4205  0.0376 -0.0232
 6757TIP3   OH241685   3.963   3.081  15.326  0.1435 -0.1053  0.4237
 6757TIP3    H141686   3.981   3.174  15.312  0.1422 -0.2627 -0.7249
 6757TIP3    H241687   3.972   3.041  15.240 -0.8533 -1.0168  0.7159
 6758TIP3   OH241688   5.019   6.546   3.210 -0.5753  0.8584  0.3315
 6758TIP3    H141689   4.930   6.536   3.244 -0.0535  1.0446  1.8131
 6758TIP3    H241690   5.070   6.577   3.285  0.6577  1.1610 -0.6047
 6759TIP3   OH241691   3.587   1.028   5.347 -0.4138  0.1960 -0.1712
 6759TIP3    H141692   3.504   1.045   5.391 -1.1327  1.0839 -1.7738
 6759TIP3    H241693   3.633   1.112   5.349  0.1172 -0.0923  0.0168
 6760TIP3   OH241694   4.749   2.772  14.637 -0.0368 -0.0917  0.1883
 6760TIP3    H141695   4.660   2.737  14.642  0.0177 -0.3254 -0.4674
 6760TIP3    H241696   4.738   2.867  14.645 -0.2761 -0.1636  0.8213
 6761TIP3   OH241697   2.044   1.816   2.619  0.3556 -0.5964  0.0304
 6761TIP3    H141698   2.009   1.827   2.531 -0.0899 -0.1121  0.2552
 6761TIP3    H241699   1.975   1.850   2.676  0.0441 -2.1743  0.6497
 6762TIP3   OH241700   5.017   1.505  11.970 -0.2655 -0.1118 -0.0421
 6762TIP3    H141701   4.954   1.540  12.033  0.4388  0.2961  0.4461
 6762TIP3    H241702   4.970   1.506  11.887 -0.6101  1.0298  0.1479
 6763TIP3   OH241703   0.026   2.903   2.858 -0.0364 -0.3970 -0.1713
 6763TIP3    H141704   0.111   2.941   2.878  0.0370 -0.7865  0.2879
 6763TIP3    H241705  -0.023   2.973   2.816 -0.2772  0.5541  1.5984
 6764TIP3   OH241706   3.894   5.489  16.407 -0.1523 -0.4744  0.1871
 6764TIP3    H141707   3.901   5.446  16.492 -0.2358  0.2898  0.5939
 6764TIP3    H241708   3.804   5.474  16.379 -1.0435  1.6933  1.6021
 6765TIP3   OH241709   5.478   3.615   3.699  0.1686 -0.5228  0.4798
 6765TIP3    H141710   5.400   3.563   3.682  1.1458 -1.6173 -0.8311
 6765TIP3    H241711   5.493   3.607   3.793 -1.5632  0.1384  0.8432
 6766TIP3   OH241712   3.995   6.711   1.054  0.3908  0.2881 -0.1800
 6766TIP3    H141713   3.993   6.708   0.959  0.7828 -2.4467 -0.1756
 6766TIP3    H241714   4.081   6.677   1.077 -0.4632 -1.1169  1.1421
 6767TIP3   OH241715   3.422   6.725  12.024 -0.2100 -0.2056 -0.1293
 6767TIP3    H141716   3.355   6.665  11.995 -0.5886 -0.5427  1.3287
 6767TIP3    H241717   3.381   6.812  12.022  0.0329 -0.1109 -1.3300
 6768TIP3   OH241718   1.885   2.574   1.255 -0.6399 -0.3597 -0.0539
 6768TIP3    H141719   1.865   2.482   1.235 -1.3638 -0.0046 -1.0028
 6768TIP3    H241720   1.851   2.623   1.181 -2.1214  0.8806  1.3805
 6769TIP3   OH241721   0.941   3.382  13.111  0.2910  0.1710  0.5090
 6769TIP3    H141722   0.905   3.294  13.120  0.2795 -0.4327 -3.6223
 6769TIP3    H241723   1.021   3.371  13.060 -0.8693  2.5901 -2.1577
 6770TIP3   OH241724   6.528   1.143   3.025 -0.1145 -0.0043  0.2883
 6770TIP3    H141725   6.612   1.106   3.051 -0.4520  0.9750  3.1001
 6770TIP3    H241726   6.508   1.207   3.094 -3.0175 -0.0032 -0.4475
 6771TIP3   OH241727   5.739   2.929  11.411  0.0569  0.0597 -0.7168
 6771TIP3    H141728   5.731   2.879  11.330  1.9837 -2.7412  0.6646
 6771TIP3    H241729   5.828   2.913  11.441 -0.1105  2.2149  1.2417
 6772TIP3   OH241730   1.828   5.355  11.140 -0.6009 -0.4418 -0.0289
 6772TIP3    H141731   1.796   5.276  11.097 -1.0906 -0.9924  1.2808
 6772TIP3    H241732   1.803   5.344  11.232  1.8999 -0.1313  0.7673
 6773TIP3   OH241733   1.495   2.409  14.236 -0.0755 -0.6637  0.0004
 6773TIP3    H141734   1.566   2.366  14.189  0.1824 -0.9220  0.6189
 6773TIP3    H241735   1.417   2.356  14.218 -0.1436 -0.3206 -0.7637
 6774TIP3   OH241736   3.955   1.563   1.315  0.8042 -0.1212 -0.3457
 6774TIP3    H141737   3.934   1.470   1.320 -2.8250  0.5956  0.3874
 6774TIP3    H241738   3.925   1.589   1.228  1.0353  0.5298 -0.2345
 6775TIP3   OH241739   1.737   5.124  13.158  0.4224 -0.6847  0.2077
 6775TIP3    H141740   1.686   5.063  13.104  0.9760 -0.8853 -0.0986
 6775TIP3    H241741   1.716   5.210  13.124 -1.3911 -0.5527  1.4809
 6776TIP3   OH241742   6.353   4.642  11.466  0.0890  0.3804 -0.2270
 6776TIP3    H141743   6.443   4.626  11.438 -0.2626 -0.5693 -0.8554
 6776TIP3    H241744   6.318   4.702  11.399  0.2079  0.6457 -0.0541
 6777TIP3   OH241745   5.628   4.471  13.069 -0.1789  0.2694  0.5474
 6777TIP3    H141746   5.709   4.482  13.019  0.1658 -0.6933  0.8599
 6777TIP3    H241747   5.576   4.548  13.047  0.2134  0.1853 -0.8083
 6778TIP3   OH241748   1.367   1.125  14.129 -0.3695 -0.3555 -0.1431
 6778TIP3    H141749   1.332   1.214  14.121 -0.5592 -0.4619 -0.4937
 6778TIP3    H241750   1.428   1.117  14.056  3.4361  1.1969  2.4992
 6779TIP3   OH241751   0.708   4.934   0.420  0.2188  0.7395 -0.0237
 6779TIP3    H141752   0.788   4.970   0.382  0.3496 -0.4526 -0.9359
 6779TIP3    H241753   0.639   4.959   0.359  0.1982  0.1169 -0.2619
 6780TIP3   OH241754   3.564   2.964  12.091 -0.3528 -0.2399  0.6924
 6780TIP3    H141755   3.583   3.018  12.168 -0.8641  0.1986  0.5242
 6780TIP3    H241756   3.594   3.016  12.017 -0.7099 -0.2504  0.5368
 6781TIP3   OH241757   3.251   4.989  15.110  0.4571  0.3180  0.5608
 6781TIP3    H141758   3.332   5.026  15.073  1.9105 -1.0046  2.2064
 6781TIP3    H241759   3.216   5.060  15.165 -0.2366  1.3272 -1.0968
 6782TIP3   OH241760   5.963   6.661   4.740  0.2204 -0.4159 -0.0246
 6782TIP3    H141761   5.931   6.581   4.697 -0.8034 -0.4988  0.8359
 6782TIP3    H241762   5.891   6.686   4.799  0.8120  0.7565  0.2194
 6783TIP3   OH241763   0.547   0.873   3.541  0.1902  0.1716 -0.2027
 6783TIP3    H141764   0.606   0.909   3.608  0.0451  0.1326 -0.0522
 6783TIP3    H241765   0.556   0.932   3.467  0.2128  0.3224 -0.0801
 6784TIP3   OH241766   6.660   6.261  12.084 -0.0268  0.1591 -0.4970
 6784TIP3    H141767   6.699   6.185  12.128  1.3498  1.3938  0.5180
 6784TIP3    H241768   6.606   6.223  12.015 -1.1226 -1.8154  1.3252
 6785TIP3   OH241769   5.172   2.030   3.300 -0.6440 -0.4509  0.0523
 6785TIP3    H141770   5.169   2.121   3.330 -0.1935  0.2951 -2.0057
 6785TIP3    H241771   5.256   1.997   3.330  0.4377  0.7328 -1.5289
 6786TIP3   OH241772   1.628   1.904   3.312 -0.1093 -0.2967  0.0938
 6786TIP3    H141773   1.610   1.943   3.226 -0.0100  2.4641  1.2187
 6786TIP3    H241774   1.551   1.852   3.331 -0.4727 -0.3315 -1.3288
 6787TIP3   OH241775   2.052   2.913   4.084 -0.0875 -0.1067  0.7467
 6787TIP3    H141776   1.987   2.843   4.086 -1.8195  1.4176  1.4056
 6787TIP3    H241777   2.009   2.985   4.037  2.2132  0.0386 -1.3240
 6788TIP3   OH241778   6.402   6.293  11.483 -0.3100  0.6406 -0.6344
 6788TIP3    H141779   6.396   6.307  11.389  0.0271  2.8703 -0.3820
 6788TIP3    H241780   6.329   6.235  11.504  0.4765 -1.1235 -2.4351
 6789TIP3   OH241781   0.226   0.696   1.065 -0.3980  0.2492 -0.2516
 6789TIP3    H141782   0.286   0.763   1.034 -0.4790  0.9895  1.1416
 6789TIP3    H241783   0.272   0.653   1.137 -0.9091 -0.2471 -0.2140
 6790TIP3   OH241784   2.144   6.494  13.870 -0.1255  0.2380  0.0569
 6790TIP3    H141785   2.159   6.522  13.780 -0.0788  0.2709  0.0748
 6790TIP3    H241786   2.216   6.533  13.920  0.7499 -1.0699 -0.1401
 6791TIP3   OH241787   3.294   3.644   5.462  0.4223 -0.1955  0.3150
 6791TIP3    H141788   3.224   3.666   5.524  1.8040 -0.5306  2.0775
 6791TIP3    H241789   3.279   3.552   5.440  0.0546 -0.1379  0.3157
 6792TIP3   OH241790   5.558   1.880  16.481  0.3954  0.2519 -0.4461
 6792TIP3    H141791   5.616   1.852  16.552 -0.0668 -1.1183 -0.5765
 6792TIP3    H241792   5.569   1.813  16.414 -1.1823  0.0577 -0.5491
 6793TIP3   OH241793   3.703   0.762   4.330  0.6020  0.7792  0.2415
 6793TIP3    H141794   3.650   0.770   4.410 -0.4067  2.0018 -0.5112
 6793TIP3    H241795   3.751   0.680   4.341 -0.1466  0.5074  1.7316
 6794TIP3   OH241796   2.780   6.422  15.335 -0.2214  0.4880  0.0067
 6794TIP3    H141797   2.736   6.499  15.372  0.2099  0.5747  0.3551
 6794TIP3    H241798   2.864   6.456  15.303 -0.4836  0.3663 -0.8368
 6795TIP3   OH241799   4.821   0.450  13.600  1.1025 -0.7171  0.3126
 6795TIP3    H141800   4.830   0.437  13.694 -0.1304  0.7122  0.6482
 6795TIP3    H241801   4.780   0.536  13.590  2.0354 -0.4116 -1.5619
 6796TIP3   OH241802   6.014   5.575  12.602 -0.5385  0.2943  0.1811
 6796TIP3    H141803   6.039   5.502  12.660 -0.8566 -0.5035 -0.6705
 6796TIP3    H241804   5.993   5.533  12.519  1.1838  1.5384 -0.9377
 6797TIP3   OH241805   1.831   5.509   5.439 -0.2089 -0.3653  0.0860
 6797TIP3    H141806   1.749   5.483   5.482  1.0948  0.6731  3.5766
 6797TIP3    H241807   1.824   5.604   5.431  0.1084 -0.4170 -0.8893
 6798TIP3   OH241808   1.956   5.482  16.172  0.1473  0.4248  0.2815
 6798TIP3    H141809   1.943   5.543  16.100  1.8006  0.4809 -0.0161
 6798TIP3    H241810   1.901   5.516  16.242 -0.8101  0.8727 -0.6547
 6799TIP3   OH241811   5.423   4.055  15.723  0.0492  0.3694 -0.4030
 6799TIP3    H141812   5.511   4.034  15.754  0.3201  0.8938 -0.8113
 6799TIP3    H241813   5.408   4.145  15.751  0.1967  0.7673 -1.5368
 6800TIP3   OH241814   6.106   4.110   3.434 -0.4125  0.4159 -0.1768
 6800TIP3    H141815   6.049   4.053   3.383 -0.1736  1.1610 -1.3058
 6800TIP3    H241816   6.076   4.198   3.414  1.2979  0.8415 -1.0273
 6801TIP3   OH241817   3.977   5.617  15.467  0.2987 -0.1618  0.2713
 6801TIP3    H141818   3.948   5.670  15.540 -0.1620  1.1058 -0.7960
 6801TIP3    H241819   3.955   5.527  15.492 -3.0307  0.5407  0.2671
 6802TIP3   OH241820   3.145   2.236  13.006  0.4347 -0.2317  0.4782
 6802TIP3    H141821   3.124   2.143  13.002  0.1630 -0.1400 -0.5754
 6802TIP3    H241822   3.060   2.280  13.008  0.5327  0.0360 -0.6257
 6803TIP3   OH241823   5.056   5.813   5.794  0.2639 -0.1492  0.4256
 6803TIP3    H141824   5.099   5.768   5.868  0.3995 -1.4175 -0.3814
 6803TIP3    H241825   5.020   5.892   5.832  0.8784 -0.4559  1.7301
 6804TIP3   OH241826   3.241   4.621  14.625 -0.1993  0.1123 -0.2180
 6804TIP3    H141827   3.281   4.648  14.708  0.0421  0.1268 -0.3369
 6804TIP3    H241828   3.195   4.540  14.646  1.3562 -0.8845 -0.4478
 6805TIP3   OH241829   1.239   0.859   5.570 -0.5855 -0.2163 -0.5700
 6805TIP3    H141830   1.150   0.858   5.606 -0.4823 -1.3921 -0.2784
 6805TIP3    H241831   1.228   0.845   5.476 -0.7074 -0.4784 -0.5166
 6806TIP3   OH241832   2.207   0.505   1.270 -0.1648 -0.5291 -0.5249
 6806TIP3    H141833   2.143   0.475   1.206 -0.2156  3.2442 -2.5660
 6806TIP3    H241834   2.154   0.538   1.343 -0.2509 -1.9693  0.0870
 6807TIP3   OH241835   5.930   3.143  16.532 -0.3529 -0.0375 -0.1763
 6807TIP3    H141836   6.018   3.127  16.496 -0.1170  0.5962  0.1065
 6807TIP3    H241837   5.918   3.237  16.523 -0.4015  0.0987  1.1568
 6808TIP3   OH241838   3.576   1.533   2.468 -0.1203  0.0720  0.3180
 6808TIP3    H141839   3.571   1.438   2.455  1.4525 -0.0704  0.5067
 6808TIP3    H241840   3.646   1.545   2.532 -0.1328  1.3823  0.1163
 6809TIP3   OH241841   2.897   0.480  16.953  0.1237 -0.0337  0.1117
 6809TIP3    H141842   2.914   0.491  16.859 -0.7815 -1.5928 -0.2635
 6809TIP3    H241843   2.982   0.456  16.989  0.8930  2.3237  0.0445
 6810TIP3   OH241844   5.298   0.719  12.888  0.2452  0.3099  0.4732
 6810TIP3    H141845   5.301   0.786  12.956 -1.9028 -0.1601  1.0959
 6810TIP3    H241846   5.206   0.710  12.867  0.6757 -1.0438 -1.0353
 6811TIP3   OH241847   6.455   6.692   3.239  0.1584  0.0739 -0.2013
 6811TIP3    H141848   6.456   6.786   3.259  0.3914  0.0867 -0.2679
 6811TIP3    H241849   6.546   6.664   3.249  0.6257  0.3996 -2.7265
 6812TIP3   OH241850   3.936   2.236   0.414 -0.4359  0.5810  0.1399
 6812TIP3    H141851   3.847   2.271   0.420 -0.0349  1.6562 -0.0481
 6812TIP3    H241852   3.954   2.230   0.320 -0.6711 -0.5885  0.1627
 6813TIP3   OH241853   4.957   2.203  16.576 -0.2152  0.3544 -0.4136
 6813TIP3    H141854   4.924   2.285  16.614  2.7079  2.0068 -1.1256
 6813TIP3    H241855   4.917   2.200  16.489 -0.9298  0.6220 -0.1059
 6814TIP3   OH241856   5.736   6.042  13.185 -0.0649  0.2747  0.2901
 6814TIP3    H141857   5.664   6.047  13.123 -0.6402  0.0385  0.9276
 6814TIP3    H241858   5.815   6.053  13.132 -0.5286 -0.2348 -0.5239
 6815TIP3   OH241859   4.066   5.060  10.893  0.3240 -0.1073 -0.6141
 6815TIP3    H141860   4.049   5.153  10.879  1.1176 -0.0938 -1.5375
 6815TIP3    H241861   4.161   5.051  10.883  0.6163 -0.6074  1.8813
 6816TIP3   OH241862   4.379   2.274   0.026 -0.1504 -0.2283  0.5600
 6816TIP3    H141863   4.423   2.354   0.054  4.2016 -1.9409 -0.5769
 6816TIP3    H241864   4.374   2.281  -0.069 -0.7710 -0.8764  0.5311
 6817TIP3   OH241865   4.159   0.567  15.373  0.2183  0.5734  0.2233
 6817TIP3    H141866   4.241   0.587  15.419 -0.1953  2.2515  0.3073
 6817TIP3    H241867   4.091   0.599  15.432 -0.5632 -1.2417  0.3711
 6818TIP3   OH241868   1.065   1.106   4.748  0.0561 -0.4408  0.0793
 6818TIP3    H141869   1.129   1.035   4.742  0.8084  0.1786  0.6071
 6818TIP3    H241870   0.982   1.066   4.722 -0.0236 -2.1905  2.6613
 6819TIP3   OH241871   4.724   1.259  14.906 -0.3862 -0.1031 -0.1950
 6819TIP3    H141872   4.643   1.298  14.938  0.3336  0.7404  0.6660
 6819TIP3    H241873   4.696   1.199  14.836 -1.7303  0.2046  0.0494
 6820TIP3   OH241874   5.297   3.075   2.134 -0.0273  0.1606  0.6176
 6820TIP3    H141875   5.235   3.143   2.160 -2.1298 -1.1157 -0.7118
 6820TIP3    H241876   5.261   3.040   2.053  2.2454 -0.9794  0.0297
 6821TIP3   OH241877   1.604   4.178  15.999  0.2032  0.0928  0.1095
 6821TIP3    H141878   1.509   4.165  15.996  0.1508 -0.4300  2.1879
 6821TIP3    H241879   1.635   4.147  15.914 -1.3667 -0.9897 -0.1249
 6822TIP3   OH241880   3.426   4.174   1.707 -0.3219 -0.2513  0.4210
 6822TIP3    H141881   3.348   4.140   1.662  1.6020 -3.6554 -0.6998
 6822TIP3    H241882   3.393   4.245   1.762 -3.8911 -0.3434 -1.3398
 6823TIP3   OH241883   1.575   2.128   4.671 -0.6206 -0.2767  0.2146
 6823TIP3    H141884   1.536   2.112   4.585  0.5822 -2.2299 -0.0206
 6823TIP3    H241885   1.655   2.076   4.672 -0.8956 -0.7979  2.7330
 6824TIP3   OH241886   2.260   0.772   1.411  0.5428 -0.3108  0.1770
 6824TIP3    H141887   2.319   0.698   1.393  1.8420  0.4216  1.2312
 6824TIP3    H241888   2.198   0.739   1.475 -0.0354 -1.0048 -0.7169
 6825TIP3   OH241889   4.066   2.198   3.311 -1.0249 -0.4742  0.1238
 6825TIP3    H141890   4.005   2.165   3.246 -1.0321  1.2202 -0.7850
 6825TIP3    H241891   4.023   2.276   3.347  0.4695  0.6414 -0.3901
 6826TIP3   OH241892   5.703   5.714  12.391 -0.1642 -0.3989 -0.2067
 6826TIP3    H141893   5.681   5.629  12.352  2.1302 -2.6107  2.7794
 6826TIP3    H241894   5.783   5.741  12.346  0.1310 -0.7993  0.0672
 6827TIP3   OH241895   6.093   1.127  13.598 -0.7570  0.7315  0.1502
 6827TIP3    H141896   6.132   1.064  13.538 -1.2171  1.0345 -0.4809
 6827TIP3    H241897   6.035   1.076  13.653 -0.1394  0.4114  0.5083
 6828TIP3   OH241898   0.223   2.214  13.281  0.5833 -0.3884  0.3867
 6828TIP3    H141899   0.302   2.216  13.227  0.4924  0.4366  0.2775
 6828TIP3    H241900   0.156   2.179  13.223  0.9118 -1.3263  0.5525
 6829TIP3   OH241901   5.349   5.242  12.306  0.4243  0.3745  0.1669
 6829TIP3    H141902   5.392   5.287  12.377  0.6816  0.5315 -0.0877
 6829TIP3    H241903   5.368   5.294  12.228  0.8714 -0.2528 -0.1605
 6830TIP3   OH241904   3.865   6.653   5.354 -0.0001 -0.5315 -0.1369
 6830TIP3    H141905   3.909   6.668   5.438  0.3502 -2.6192  0.1087
 6830TIP3    H241906   3.936   6.650   5.290 -0.2238  0.5635 -0.4532
 6831TIP3   OH241907   4.110   5.816  14.897 -0.0634  0.6515 -0.2382
 6831TIP3    H141908   4.133   5.830  14.989  0.3517  2.0864 -0.5313
 6831TIP3    H241909   4.017   5.797  14.898  0.3957 -1.9800  0.6783
 6832TIP3   OH241910   1.466   1.145  15.089  0.4410 -0.0776 -0.0518
 6832TIP3    H141911   1.413   1.149  15.010 -1.7469 -1.4976  1.2268
 6832TIP3    H241912   1.553   1.117  15.059 -0.5237 -1.3047 -1.8782
 6833TIP3   OH241913   0.861   4.235   0.911 -0.1282 -0.0336 -0.0074
 6833TIP3    H141914   0.828   4.147   0.895  1.1181 -0.4993 -0.1479
 6833TIP3    H241915   0.807   4.269   0.982  0.8713 -1.8318  1.7102
 6834TIP3   OH241916   4.610   2.961   0.455  0.8195  0.2281 -0.3506
 6834TIP3    H141917   4.583   3.021   0.386  2.2909  0.9352 -0.3508
 6834TIP3    H241918   4.699   2.934   0.430  1.6181  0.9513  1.5272
 6835TIP3   OH241919   2.320   4.774  16.043 -0.2732 -0.7249  0.2766
 6835TIP3    H141920   2.264   4.728  15.980  0.5332 -1.0135 -0.2423
 6835TIP3    H241921   2.291   4.742  16.129 -1.0463 -0.7041  0.0292
 6836TIP3   OH241922   5.180   5.424  15.439 -0.2031  0.2611  0.0003
 6836TIP3    H141923   5.233   5.500  15.464  1.3726 -0.4646 -1.0087
 6836TIP3    H241924   5.201   5.357  15.504 -0.7353  0.3154  0.2332
 6837TIP3   OH241925   6.659   1.374  16.341 -0.0514  0.3693 -0.3552
 6837TIP3    H141926   6.594   1.443  16.325  0.2108  0.7032 -0.0014
 6837TIP3    H241927   6.697   1.356  16.255  0.4033  1.1925 -0.3289
 6838TIP3   OH241928   6.002   6.463  14.654  0.0436  0.3264  0.1657
 6838TIP3    H141929   5.911   6.437  14.668 -0.0114  1.4244  2.1423
 6838TIP3    H241930   6.035   6.399  14.591 -2.1147 -0.0032 -0.7389
 6839TIP3   OH241931   1.723   3.205   6.255  0.8696 -0.1011  0.0209
 6839TIP3    H141932   1.747   3.129   6.307  1.5909 -0.5732 -0.9743
 6839TIP3    H241933   1.805   3.250   6.238  0.5124  0.6152  0.1520
 6840TIP3   OH241934   4.356   6.753  17.079  0.0096 -0.0032 -0.7062
 6840TIP3    H141935   4.404   6.835  17.095  1.1546 -1.1253  2.3916
 6840TIP3    H241936   4.419   6.684  17.101 -1.4641 -1.6968 -1.5355
 6841TIP3   OH241937   1.917   4.263  12.303 -0.0699  0.0258  0.3454
 6841TIP3    H141938   1.970   4.321  12.248 -1.2412 -1.2003 -2.2137
 6841TIP3    H241939   1.837   4.314  12.321 -0.4213 -0.1784 -0.5782
 6842TIP3   OH241940   4.906   5.136   2.878  0.0437  0.2406  0.4024
 6842TIP3    H141941   4.954   5.090   2.809 -0.1193  0.5423  0.0870
 6842TIP3    H241942   4.946   5.223   2.881  0.2973  0.1128  0.9448
 6843TIP3   OH241943   3.986   3.077   0.737 -0.0329 -0.5183 -0.7091
 6843TIP3    H141944   4.045   3.111   0.805 -1.2198  1.4477 -0.5781
 6843TIP3    H241945   3.957   2.992   0.771  2.7995 -1.6725 -0.8822
 6844TIP3   OH241946   5.201   0.426  16.972 -0.2316  0.5857 -0.4837
 6844TIP3    H141947   5.220   0.517  16.997  0.9576  0.2882 -0.2344
 6844TIP3    H241948   5.162   0.388  17.051  2.1791  0.0484  0.5589
 6845TIP3   OH241949   5.600   0.755  12.633 -0.5416  0.0798  0.2052
 6845TIP3    H141950   5.512   0.779  12.605 -1.0763 -1.9913 -0.0091
 6845TIP3    H241951   5.646   0.839  12.642 -2.4134  1.1719 -0.0086
 6846TIP3   OH241952   3.018   0.163  15.588  0.1217 -0.5661  0.0131
 6846TIP3    H141953   2.961   0.234  15.618  0.9342 -0.7118  2.0622
 6846TIP3    H241954   3.022   0.174  15.493 -0.7307  1.3987  0.1602
 6847TIP3   OH241955   0.702   2.249  10.854  0.0024  0.5066  0.6721
 6847TIP3    H141956   0.750   2.239  10.772  1.2906  2.8725  1.0656
 6847TIP3    H241957   0.769   2.251  10.922 -1.0144 -1.0784  1.8255
 6848TIP3   OH241958   4.861   0.307   5.383  0.3717 -0.3305 -0.3498
 6848TIP3    H141959   4.878   0.301   5.289  0.4593 -1.4654 -0.2717
 6848TIP3    H241960   4.788   0.370   5.390  1.3041  0.8694 -1.0441
 6849TIP3   OH241961   1.441   0.816   2.613 -0.1169  0.1606 -0.0917
 6849TIP3    H141962   1.481   0.739   2.573 -0.5470 -0.1616  0.0882
 6849TIP3    H241963   1.454   0.886   2.550  2.8133  0.6490  0.9366
 6850TIP3   OH241964   5.375   2.042   3.612  0.2461  0.5159  0.5937
 6850TIP3    H141965   5.367   2.120   3.557 -2.5986  0.3785  0.6538
 6850TIP3    H241966   5.403   1.973   3.553 -0.5456  0.8668 -0.2098
 6851TIP3   OH241967   2.032   0.909   0.347  0.2826 -0.3344 -0.5709
 6851TIP3    H141968   2.012   0.893   0.440 -1.5534  0.5982 -0.7414
 6851TIP3    H241969   2.105   0.971   0.349  0.5686 -0.6728  0.2347
 6852TIP3   OH241970   3.504   3.650  13.503  0.1627  0.1416 -0.5185
 6852TIP3    H141971   3.409   3.653  13.517  0.1295 -0.9692 -0.4742
 6852TIP3    H241972   3.521   3.727  13.448 -0.6590  0.7325  0.0211
 6853TIP3   OH241973   5.402   6.535  12.225  0.2489  0.6535  0.3829
 6853TIP3    H141974   5.427   6.627  12.232 -2.1394  1.4272 -0.3546
 6853TIP3    H241975   5.429   6.509  12.136  0.6016  0.7349  0.4641
 6854TIP3   OH241976   0.849   1.981  12.888  0.4219 -0.3596 -0.1220
 6854TIP3    H141977   0.846   1.899  12.838 -0.2823 -0.9147  0.8068
 6854TIP3    H241978   0.938   1.984  12.924 -0.4909 -2.5010  2.6784
 6855TIP3   OH241979   4.769   1.094   0.959 -0.3631  0.2423  0.3699
 6855TIP3    H141980   4.683   1.054   0.948  0.4400 -1.1791 -1.2640
 6855TIP3    H241981   4.772   1.119   1.051 -2.7514  0.9536  0.3277
 6856TIP3   OH241982   6.787   5.162  11.458 -0.6815 -0.2421  0.0354
 6856TIP3    H141983   6.696   5.145  11.481 -0.5591 -1.0709 -0.0548
 6856TIP3    H241984   6.810   5.093  11.396 -0.2102  0.3969 -0.5250
 6857TIP3   OH241985   1.171   3.680  10.682 -0.1398  0.2596  0.0619
 6857TIP3    H141986   1.224   3.601  10.674 -0.2572  0.1726  0.1453
 6857TIP3    H241987   1.082   3.652  10.662 -0.0394  0.5648 -0.8259
 6858TIP3   OH241988   1.274   4.758  10.922  0.4479  0.6752  0.7163
 6858TIP3    H141989   1.340   4.715  10.977  2.3263  2.7805  0.2421
 6858TIP3    H241990   1.311   4.756  10.834 -0.5510  1.1046  0.2732
 6859TIP3   OH241991   1.354   6.302   0.327  0.0630  0.0316  0.0500
 6859TIP3    H141992   1.402   6.380   0.356  0.1279 -0.6284  1.8568
 6859TIP3    H241993   1.350   6.310   0.231  0.0374  2.2531  0.1814
 6860TIP3   OH241994   2.273   1.895   0.850 -0.5426  0.0461  0.2639
 6860TIP3    H141995   2.185   1.922   0.825  0.1177  1.4923 -0.6516
 6860TIP3    H241996   2.303   1.840   0.778 -0.8393 -0.7959  0.7749
 6861TIP3   OH241997   5.628   6.370   5.389 -0.2454  0.5509 -0.2721
 6861TIP3    H141998   5.671   6.284   5.395 -1.2949  0.1074  2.5638
 6861TIP3    H241999   5.663   6.420   5.463 -2.7024  1.0052  0.7056
 6862TIP3   OH242000   2.218   1.273   5.602  0.1682 -0.1742 -0.6251
 6862TIP3    H142001   2.162   1.201   5.631 -0.7691  0.2680 -1.2493
 6862TIP3    H242002   2.284   1.232   5.547 -0.4073 -0.5627 -1.0405
 6863TIP3   OH242003   6.037   3.575   0.021 -0.4404 -0.0419  0.1519
 6863TIP3    H142004   6.017   3.482   0.026 -0.4905 -0.0484 -0.1855
 6863TIP3    H242005   5.956   3.619   0.046 -1.0229 -0.0598 -1.5807
 6864TIP3   OH242006   5.605   1.699  11.819 -0.4404  0.2648  0.2280
 6864TIP3    H142007   5.595   1.611  11.854 -1.5982  0.3231  0.0999
 6864TIP3    H242008   5.597   1.756  11.896 -1.1223  0.3081  0.1356
 6865TIP3   OH242009   1.182   6.747  12.342 -0.2391  0.1391 -0.3631
 6865TIP3    H142010   1.207   6.654  12.345 -1.9645 -0.4887 -2.8280
 6865TIP3    H242011   1.264   6.793  12.327  0.5359 -1.0592  0.0455
 6866TIP3   OH242012   5.932   6.237   4.526 -0.2056  0.4321  0.3503
 6866TIP3    H142013   6.027   6.236   4.532 -0.2639  0.6086  1.7051
 6866TIP3    H242014   5.913   6.243   4.432  1.1040  0.2053  0.0574
 6867TIP3   OH242015   4.672   3.891  15.324  0.6807  0.6487  0.4739
 6867TIP3    H142016   4.626   3.822  15.373 -0.9946  0.6291 -1.0380
 6867TIP3    H242017   4.717   3.845  15.254  1.5511  0.8771  0.8634
 6868TIP3   OH242018   4.009   4.908   3.760 -0.2805 -0.2003 -0.4263
 6868TIP3    H142019   4.036   4.825   3.801 -1.8448 -0.0255  1.0650
 6868TIP3    H242020   3.979   4.882   3.672 -2.0568 -1.5030  0.4852
 6869TIP3   OH242021   0.919   5.163   0.025 -0.1123  0.4330 -0.1398
 6869TIP3    H142022   0.889   5.075   0.046  2.9431 -0.7710 -0.2974
 6869TIP3    H242023   0.844   5.205  -0.017 -2.2277 -1.4373  1.5357
 6870TIP3   OH242024   2.030   4.061  15.933 -0.4108 -0.0432  0.2612
 6870TIP3    H142025   2.091   3.992  15.907  1.3107  0.8197  1.8060
 6870TIP3    H242026   1.999   4.034  16.019 -1.8036 -0.1618 -0.2465
 6871TIP3   OH242027   4.821   2.452   1.849  0.6249 -0.3591 -0.9034
 6871TIP3    H142028   4.841   2.542   1.877  1.4482 -1.3954  2.2454
 6871TIP3    H242029   4.870   2.441   1.767 -1.4855  2.7572 -2.8262
 6872TIP3   OH242030   1.702   5.934   1.931  0.2472 -0.1520 -0.6258
 6872TIP3    H142031   1.736   5.960   2.017  1.8641 -1.2412 -0.8789
 6872TIP3    H242032   1.775   5.886   1.891 -1.8224 -3.2357 -0.9940
 6873TIP3   OH242033   6.202   0.063   6.424  0.3420 -0.0922  0.3820
 6873TIP3    H142034   6.196  -0.023   6.465 -0.0845 -0.0564  0.3972
 6873TIP3    H242035   6.294   0.088   6.434  0.1399  0.1819  1.8447
 6874TIP3   OH242036   5.342   6.775  14.720 -0.0872  0.1710 -0.4971
 6874TIP3    H142037   5.344   6.718  14.643 -0.5484  0.9021 -1.0674
 6874TIP3    H242038   5.272   6.838  14.702 -1.3202 -0.6301  1.2444
 6875TIP3   OH242039   2.098   4.215   1.792 -0.2289  0.0460  0.1825
 6875TIP3    H142040   2.051   4.298   1.798  1.8656  1.2569  1.1371
 6875TIP3    H242041   2.094   4.179   1.881  0.9479  0.3813  0.3883
 6876TIP3   OH242042   4.497   2.194   0.730 -0.3354  0.0020  0.0563
 6876TIP3    H142043   4.439   2.269   0.718  0.5304  0.5896 -0.5563
 6876TIP3    H242044   4.565   2.205   0.664  0.8230 -0.3437  1.1352
 6877TIP3   OH242045   0.159   4.727  14.242  0.3915  0.0979  0.2667
 6877TIP3    H142046   0.205   4.748  14.323 -0.2615 -1.6906  1.1462
 6877TIP3    H242047   0.217   4.664  14.198 -0.4950 -1.0099  0.6577
 6878TIP3   OH242048   5.941   2.227  11.112 -0.6318  0.0153 -0.2785
 6878TIP3    H142049   5.985   2.293  11.166  0.6308 -0.3871 -0.7657
 6878TIP3    H242050   5.963   2.251  11.022 -0.5660 -0.7762 -0.4811
 6879TIP3   OH242051   3.858   3.550  14.516 -0.0676 -0.2314  0.2045
 6879TIP3    H142052   3.809   3.468  14.517 -3.9071  1.8053  1.8415
 6879TIP3    H242053   3.862   3.575  14.424  1.2504 -2.2203 -0.3205
 6880TIP3   OH242054   3.019   0.938   2.479 -0.1105 -0.2489 -1.1478
 6880TIP3    H142055   2.949   0.913   2.418 -0.1530  0.1377 -1.2646
 6880TIP3    H242056   2.983   0.921   2.566  0.5005 -2.2467 -1.2343
 6881TIP3   OH242057   4.964   5.364  14.160  0.2647  0.0504  0.7742
 6881TIP3    H142058   4.982   5.371  14.067  1.3930  0.0212  0.9722
 6881TIP3    H242059   4.880   5.408  14.173 -0.3969 -0.8240 -0.3993
 6882TIP3   OH242060   6.213   0.367   1.036  0.4684 -0.3220  0.5992
 6882TIP3    H142061   6.240   0.292   0.983  3.3512 -0.1424  1.6236
 6882TIP3    H242062   6.197   0.330   1.123 -0.1455 -0.0394  0.6074
 6883TIP3   OH242063   1.974   2.918  13.165  0.0386  0.0037  0.2571
 6883TIP3    H142064   2.022   3.000  13.173 -0.1524  0.1004  0.4391
 6883TIP3    H242065   1.920   2.928  13.087  1.1168 -0.5283 -0.5844
 6884TIP3   OH242066   3.159   1.648   4.224 -0.6499 -0.0433  0.5320
 6884TIP3    H142067   3.097   1.720   4.209 -0.8214  0.1366  1.9926
 6884TIP3    H242068   3.106   1.569   4.215 -0.6992  0.0433  0.0231
 6885TIP3   OH242069   6.239   6.690  13.972  0.3294 -0.4893 -0.6685
 6885TIP3    H142070   6.245   6.638  14.052 -1.8591  0.1908 -0.0080
 6885TIP3    H242071   6.182   6.763  13.994  0.5232  0.3014 -2.5718
 6886TIP3   OH242072   4.286   1.658  17.132  0.4584 -0.0694 -0.0800
 6886TIP3    H142073   4.268   1.622  17.045  1.2414 -0.0186 -0.2730
 6886TIP3    H242074   4.210   1.713  17.151 -1.0446 -2.2261  0.4723
 6887TIP3   OH242075   5.488   2.877  16.532 -0.0044  0.2600 -0.4027
 6887TIP3    H142076   5.545   2.802  16.516  0.1170  0.3338 -0.3143
 6887TIP3    H242077   5.547   2.945  16.564  0.2829  1.1195 -2.5768
 6888TIP3   OH242078   6.661   5.011   3.613  0.1649  0.0946  0.0098
 6888TIP3    H142079   6.668   5.038   3.522 -2.8727 -2.3517 -1.1205
 6888TIP3    H242080   6.588   5.062   3.648 -1.3686 -1.8375 -0.2369
 6889TIP3   OH242081   1.914   5.180   4.517 -0.0197  0.0355 -0.2658
 6889TIP3    H142082   1.915   5.093   4.476  0.2670 -0.2810  0.3901
 6889TIP3    H242083   1.827   5.215   4.499 -0.0879 -0.3302 -0.6573
 6890TIP3   OH242084   3.164   1.218   0.402 -0.8812 -0.0284 -0.3869
 6890TIP3    H142085   3.217   1.142   0.375 -0.4163  0.6881 -1.5915
 6890TIP3    H242086   3.224   1.292   0.396 -1.1803  0.3795  1.3354
 6891TIP3   OH242087   0.650   1.905  17.201 -0.2245  0.2886  0.1906
 6891TIP3    H142088   0.662   1.955  17.120  1.4428  1.5365  1.1583
 6891TIP3    H242089   0.608   1.966  17.262 -1.3425 -0.6025  0.3615
 6892TIP3   OH242090   3.250   4.361   4.907  0.1731  0.5491  0.5555
 6892TIP3    H142091   3.286   4.282   4.867 -0.1692 -0.5099  2.2628
 6892TIP3    H242092   3.195   4.399   4.839 -1.1913 -1.7303  0.2837
 6893TIP3   OH242093   4.048   5.397  14.193  0.8391  0.1786  0.3474
 6893TIP3    H142094   4.007   5.373  14.110 -0.4402 -0.2480  1.0789
 6893TIP3    H242095   4.106   5.325  14.213  3.4466  1.5723 -1.5835
 6894TIP3   OH242096   3.933   6.254  16.883 -0.2282  0.0069 -0.1184
 6894TIP3    H142097   3.922   6.217  16.795 -0.8665 -0.0543 -0.0140
 6894TIP3    H242098   3.999   6.198  16.924 -2.4302 -2.1717  0.6579
 6895TIP3   OH242099   2.867   1.511   5.127 -0.3944  0.2761 -0.6887
 6895TIP3    H142100   2.855   1.577   5.059 -3.1694  0.6077  0.0144
 6895TIP3    H242101   2.924   1.554   5.192  0.7844  0.6102 -1.9079
 6896TIP3   OH242102   2.679   5.759   4.633 -0.6186 -0.2560  0.8476
 6896TIP3    H142103   2.636   5.686   4.678 -2.9219  0.2650 -0.3456
 6896TIP3    H242104   2.670   5.739   4.540 -0.2893  0.9887  0.5225
 6897TIP3   OH242105   1.005   0.423  15.861 -0.2918  0.0638 -0.1900
 6897TIP3    H142106   1.087   0.392  15.899 -0.5661  0.4999  0.7834
 6897TIP3    H242107   0.946   0.433  15.936 -0.5722  1.7749 -0.5937
 6898TIP3   OH242108   5.058   3.183   0.946  0.3432 -0.0211  0.6395
 6898TIP3    H142109   5.022   3.220   1.027 -1.9085 -0.1346 -0.2334
 6898TIP3    H242110   5.021   3.237   0.877 -1.1664 -2.3731 -0.5305
 6899TIP3   OH242111   5.187   3.969   4.661 -0.1800  0.2297  0.1070
 6899TIP3    H142112   5.102   3.988   4.620  0.4744  0.7570 -1.0706
 6899TIP3    H242113   5.197   4.037   4.728 -0.5651  0.3338  0.0625
 6900TIP3   OH242114   6.284   1.685   3.537 -0.2899 -0.2290 -0.1026
 6900TIP3    H142115   6.295   1.702   3.631 -2.5405  0.1313  0.1535
 6900TIP3    H242116   6.248   1.597   3.532 -0.4836 -0.1249 -0.6085
 6901TIP3   OH242117   1.796   0.491  15.183  0.2486  0.1651  0.3384
 6901TIP3    H142118   1.792   0.492  15.279 -1.3985  1.6158  0.3141
 6901TIP3    H242119   1.730   0.427  15.157  1.1907 -0.7512  0.1585
 6902TIP3   OH242120   0.775   4.301  11.867  0.2892  0.3093 -0.1757
 6902TIP3    H142121   0.782   4.208  11.888 -0.7048  0.0013 -1.1121
 6902TIP3    H242122   0.794   4.306  11.773  1.4956  1.2219  0.0813
 6903TIP3   OH242123   4.278   0.721  14.722  0.5063 -0.1360  0.2624
 6903TIP3    H142124   4.353   0.686  14.771  1.4341  0.1670 -0.9037
 6903TIP3    H242125   4.276   0.814  14.745 -0.8834 -0.5228  1.9807
 6904TIP3   OH242126   5.765   3.338  16.820 -0.5717 -0.2112 -0.3445
 6904TIP3    H142127   5.848   3.319  16.863  0.0985 -1.4750 -2.0737
 6904TIP3    H242128   5.699   3.299  16.877  0.0138  0.4958  0.8679
 6905TIP3   OH242129   6.752   4.542  14.132  0.3833  0.0941  0.5704
 6905TIP3    H142130   6.819   4.591  14.181  0.1970  0.3449  0.5768
 6905TIP3    H242131   6.774   4.558  14.040  0.1290  0.4635  0.5712
 6906TIP3   OH242132   3.899   0.540   0.808 -0.0091 -0.3070  0.4343
 6906TIP3    H142133   3.914   0.504   0.895 -1.5438  0.6291  1.1213
 6906TIP3    H242134   3.890   0.634   0.821 -0.7608 -0.2012 -0.6388
 6907TIP3   OH242135   6.366   3.354  15.548  0.4218  0.0229 -0.7360
 6907TIP3    H142136   6.459   3.335  15.534  0.6546 -0.5330  1.1605
 6907TIP3    H242137   6.337   3.396  15.467  2.6713  1.4678 -0.8876
 6908TIP3   OH242138   2.225   2.605  11.609 -0.0880 -0.1723 -0.0655
 6908TIP3    H142139   2.138   2.597  11.648  0.9935 -2.0491  2.2024
 6908TIP3    H242140   2.274   2.660  11.670  0.3371  1.0517 -1.4326
 6909TIP3   OH242141   5.112   3.710  14.480  0.1081  0.2652 -0.1572
 6909TIP3    H142142   5.058   3.640  14.516  0.7925 -0.3775 -0.3571
 6909TIP3    H242143   5.064   3.790  14.500 -0.7599 -0.2669 -0.0508
 6910TIP3   OH242144   6.776   5.171  13.717  0.1793 -0.1460 -0.6619
 6910TIP3    H142145   6.726   5.253  13.713  1.5343  0.6512 -3.3835
 6910TIP3    H242146   6.717   5.106  13.678 -0.6918 -0.4260  1.0164
 6911TIP3   OH242147   3.695   6.170   3.855 -0.1459  0.2674  0.1591
 6911TIP3    H142148   3.677   6.257   3.820 -1.1534  0.6690  1.6015
 6911TIP3    H242149   3.613   6.121   3.844 -0.0768  0.0012  0.7453
 6912TIP3   OH242150   2.494   0.500   2.275  0.2254  0.2233  0.0853
 6912TIP3    H142151   2.460   0.555   2.346  0.2978 -0.2137  0.4603
 6912TIP3    H242152   2.439   0.523   2.199  0.3425  0.9099  0.1987
 6913TIP3   OH242153   3.985   4.991  11.487  0.0784  0.6183 -0.0238
 6913TIP3    H142154   4.042   5.055  11.530 -0.7892  1.2519  0.1908
 6913TIP3    H242155   4.005   4.908  11.530  0.4983  0.9225  0.3732
 6914TIP3   OH242156   2.988   1.903   3.855  0.2338  0.1950 -0.0844
 6914TIP3    H142157   3.021   1.860   3.934  1.4029  3.9539  1.7412
 6914TIP3    H242158   3.059   1.897   3.792  0.0008 -1.2810 -0.2311
 6915TIP3   OH242159   5.399   2.655  14.735 -0.2645  0.3872  0.0216
 6915TIP3    H142160   5.362   2.616  14.814 -1.2069  1.9727  0.4193
 6915TIP3    H242161   5.340   2.728  14.715  1.2321  1.3997 -0.8462
 6916TIP3   OH242162   2.498   4.522   4.704  0.4369  0.0628 -0.7898
 6916TIP3    H142163   2.408   4.531   4.734  0.8222 -1.1947  0.8556
 6916TIP3    H242164   2.551   4.560   4.774  1.2675 -1.1927 -0.7083
 6917TIP3   OH242165   5.016   4.059  16.992  0.1446  0.3075  0.2469
 6917TIP3    H142166   4.962   4.092  16.921 -0.8356  2.0601  1.7188
 6917TIP3    H242167   4.986   3.969  17.006 -0.5890  0.4110 -0.6475
 6918TIP3   OH242168   0.075   5.469  13.775 -0.4679  0.0974  0.2188
 6918TIP3    H142169   0.067   5.380  13.809  1.5492  0.2595  1.2764
 6918TIP3    H242170   0.132   5.460  13.698 -1.5934  0.2887 -0.6643
 6919TIP3   OH242171   4.228   5.189   2.023 -0.2337  0.0258  0.0135
 6919TIP3    H142172   4.154   5.179   1.964 -0.0979  1.3241 -0.4033
 6919TIP3    H242173   4.298   5.137   1.984 -0.5383 -0.1830 -0.2574
 6920TIP3   OH242174   1.153   3.009  15.942 -0.0067 -0.1263 -0.8256
 6920TIP3    H142175   1.169   3.103  15.950  0.3140 -0.1520 -1.1773
 6920TIP3    H242176   1.227   2.968  15.986  0.4156 -0.2269 -1.6100
 6921TIP3   OH242177   3.747   0.858  16.438 -0.0492  0.1349  0.2062
 6921TIP3    H142178   3.680   0.907  16.486  1.0907 -0.2720  2.2989
 6921TIP3    H242179   3.706   0.773  16.421 -0.4103  0.2207  0.6152
 6922TIP3   OH242180   0.969   1.938   0.845 -0.7901 -0.2540 -0.3491
 6922TIP3    H142181   1.036   1.906   0.906 -1.7130 -1.7707 -0.0903
 6922TIP3    H242182   0.995   2.028   0.827 -0.1062  0.0275  1.7642
 6923TIP3   OH242183   2.610   3.762  16.092  0.2921  0.6136 -0.1042
 6923TIP3    H142184   2.701   3.742  16.072  0.6674  1.2908  0.8199
 6923TIP3    H242185   2.561   3.686  16.061  1.5344 -1.3840  2.4249
 6924TIP3   OH242186   3.213   3.858  12.397  0.9343 -0.2549  0.0138
 6924TIP3    H142187   3.196   3.845  12.304 -0.3545 -2.1754  0.4476
 6924TIP3    H242188   3.128   3.844  12.439  1.7826 -0.9646  1.5888
 6925TIP3   OH242189   4.117   3.390   2.145 -0.5699  0.0687 -0.1500
 6925TIP3    H142190   4.207   3.363   2.127 -0.5527  0.4008 -0.5737
 6925TIP3    H242191   4.118   3.486   2.135 -0.6446  0.2413  1.2373
 6926TIP3   OH242192   2.514   5.083  11.447  0.1761 -0.3842  0.7494
 6926TIP3    H142193   2.446   5.147  11.426  1.1144  0.7673  1.1429
 6926TIP3    H242194   2.485   5.003  11.403 -0.2280  0.7172 -1.1151
 6927TIP3   OH242195   5.143   5.251  14.545  0.4391  0.1582  0.2494
 6927TIP3    H142196   5.220   5.193  14.549 -0.6535 -1.3890  0.0156
 6927TIP3    H242197   5.162   5.310  14.472  0.9740 -0.9149 -0.5311
 6928TIP3   OH242198   0.626   0.263  12.963  0.5120  0.1713 -0.4903
 6928TIP3    H142199   0.698   0.292  13.019  0.1675 -0.2766  0.1998
 6928TIP3    H242200   0.666   0.249  12.877  1.2057  0.1198 -0.1641
 6929TIP3   OH242201   2.459   5.795  16.204 -0.4475 -0.2382  0.3622
 6929TIP3    H142202   2.429   5.806  16.114  1.2248 -0.3314 -0.2515
 6929TIP3    H242203   2.412   5.863  16.254 -0.6786  0.4477 -0.7604
 6930TIP3   OH242204   2.017   0.248  11.677  0.2456  0.1515  0.0629
 6930TIP3    H142205   2.044   0.317  11.737  0.5869  0.9617 -0.9759
 6930TIP3    H242206   2.063   0.170  11.707  0.2500  0.4851  0.9540
 6931TIP3   OH242207   6.377   3.797   1.306  0.1461  0.1451  0.0387
 6931TIP3    H142208   6.361   3.783   1.399  0.1536 -0.3541 -0.0342
 6931TIP3    H242209   6.397   3.710   1.271  0.8727  0.4286 -0.2847
 6932TIP3   OH242210   3.777   6.737   1.549 -0.7524 -0.4423  0.7324
 6932TIP3    H142211   3.794   6.671   1.482 -3.2792 -2.7923  2.2034
 6932TIP3    H242212   3.830   6.710   1.624  1.3025  1.6170  0.1453
 6933TIP3   OH242213   5.431   4.312   2.676 -0.1489  0.4467  0.3219
 6933TIP3    H142214   5.436   4.386   2.736 -0.5746 -1.3649  2.7341
 6933TIP3    H242215   5.346   4.271   2.694  1.3350 -2.4554  1.4473
 6934TIP3   OH242216   0.481   2.770   5.541  0.3809  0.3190  0.0222
 6934TIP3    H142217   0.546   2.742   5.477  2.7517  2.9755  1.0426
 6934TIP3    H242218   0.408   2.802   5.488  0.3676 -1.5314 -1.1812
 6935TIP3   OH242219   2.907   1.987   0.320 -0.3164 -0.2880 -0.2452
 6935TIP3    H142220   3.001   1.971   0.311 -0.0338  0.1034  1.5473
 6935TIP3    H242221   2.901   2.081   0.336 -0.8367 -0.5683  1.3603
 6936TIP3   OH242222   1.974   4.776  16.689 -0.3141  1.0414  0.4797
 6936TIP3    H142223   2.032   4.733  16.751 -1.9282 -0.5676  0.9630
 6936TIP3    H242224   1.960   4.863  16.726 -0.0278  0.6416  1.5592
 6937TIP3   OH242225   6.194   4.574   2.563 -0.0522  0.2662  0.0179
 6937TIP3    H142226   6.136   4.649   2.568 -0.2104  0.0905  0.8261
 6937TIP3    H242227   6.144   4.508   2.515 -0.4717  0.1639  0.5880
 6938TIP3   OH242228   1.389   0.692   3.223 -0.6073  0.1736 -0.3414
 6938TIP3    H142229   1.460   0.666   3.163 -1.1730  1.6679 -1.7287
 6938TIP3    H242230   1.359   0.776   3.189 -0.8969  1.1314  2.1482
 6939TIP3   OH242231   2.931   2.093  14.326  0.6110  0.3731 -0.3122
 6939TIP3    H142232   2.955   2.093  14.419  1.1617 -1.6835 -0.3970
 6939TIP3    H242233   2.910   2.002  14.307 -0.7873  0.9795 -1.9098
 6940TIP3   OH242234   3.950   2.587   5.594  0.3951  0.2683 -0.4777
 6940TIP3    H142235   3.908   2.649   5.653  0.2174 -0.9079  0.6606
 6940TIP3    H242236   3.914   2.502   5.618 -0.4372 -0.1682 -2.9427
 6941TIP3   OH242237   3.101   2.151  13.364 -0.8283  0.1572  0.2527
 6941TIP3    H142238   3.179   2.188  13.323 -0.1140 -0.8305  0.6788
 6941TIP3    H242239   3.105   2.180  13.455 -0.8778 -0.0113  0.3092
 6942TIP3   OH242240   4.095   3.927   1.600 -0.0103 -0.2155  0.9311
 6942TIP3    H142241   4.118   3.991   1.668  1.0603 -0.4517  0.8067
 6942TIP3    H242242   4.135   3.961   1.520 -0.7606 -0.2478  0.5303
 6943TIP3   OH242243   3.929   6.615   5.626 -0.4697  0.1441  0.0664
 6943TIP3    H142244   3.999   6.644   5.685 -1.4091 -1.8550  2.3552
 6943TIP3    H242245   3.851   6.663   5.656 -1.0237 -1.1211  0.7282
 6944TIP3   OH242246   6.240   2.770  14.547  0.3015 -0.4231 -0.2840
 6944TIP3    H142247   6.202   2.697  14.596  0.1825  0.8098  1.6084
 6944TIP3    H242248   6.314   2.732  14.500 -0.8095 -2.0743 -0.7897
 6945TIP3   OH242249   5.368   5.117  10.696 -0.2181  0.4553 -0.0783
 6945TIP3    H142250   5.395   5.129  10.605 -1.2963 -0.9571 -0.6191
 6945TIP3    H242251   5.374   5.022  10.710  2.3714  0.8186  2.1275
 6946TIP3   OH242252   0.588   6.314  16.600 -0.2100 -0.2967  0.1342
 6946TIP3    H142253   0.545   6.232  16.626  1.8077 -0.7637  2.2933
 6946TIP3    H242254   0.517   6.378  16.597 -1.2379 -1.1900  2.7877
 6947TIP3   OH242255   5.154   4.406  12.732 -0.1920  0.8158 -0.1703
 6947TIP3    H142256   5.096   4.464  12.781 -1.1587 -0.5755  0.3837
 6947TIP3    H242257   5.205   4.361  12.799  2.6265  2.9877 -0.6563
 6948TIP3   OH242258   0.169   4.846  16.336 -0.1655  0.1098  0.0673
 6948TIP3    H142259   0.104   4.911  16.365  0.1550 -0.4291  2.1636
 6948TIP3    H242260   0.241   4.899  16.301 -1.2092  0.7482 -1.2188
 6949TIP3   OH242261   5.536   1.069  13.147 -0.6303  0.5821  0.2123
 6949TIP3    H142262   5.529   1.131  13.220  2.3708  0.7278  0.5049
 6949TIP3    H242263   5.565   1.122  13.073 -0.4687 -0.0784 -0.2061
 6950TIP3   OH242264   0.597   6.127  12.093  0.3283  0.2562  0.0599
 6950TIP3    H142265   0.575   6.171  12.011 -0.2337 -0.1458 -0.0124
 6950TIP3    H242266   0.628   6.041  12.067  0.9462  0.4193  0.2306
 6951TIP3   OH242267   2.617   1.164   4.759 -0.2637 -0.3189 -0.5602
 6951TIP3    H142268   2.628   1.078   4.799  2.4118 -0.2352 -0.9039
 6951TIP3    H242269   2.660   1.224   4.821 -1.3672  0.6666 -0.7214
 6952TIP3   OH242270   4.373   5.350  16.585 -0.0755  0.4724 -0.2021
 6952TIP3    H142271   4.391   5.406  16.660  1.5222 -0.7809  0.4209
 6952TIP3    H242272   4.310   5.285  16.618  0.1629  0.2857 -0.1077
 6953TIP3   OH242273   4.112   4.376   5.142  0.6142 -0.3893 -0.3915
 6953TIP3    H142274   4.099   4.281   5.140  1.3276 -0.4849 -1.5115
 6953TIP3    H242275   4.114   4.399   5.235  1.0784 -1.5687 -0.0998
 6954TIP3   OH242276   1.269   5.611  16.697 -0.2672  0.2170  0.3838
 6954TIP3    H142277   1.291   5.703  16.686  0.5598 -0.0162 -0.0334
 6954TIP3    H242278   1.328   5.565  16.636 -1.3096 -0.5126 -0.1117
 6955TIP3   OH242279   4.087   1.740   5.186 -0.0039 -0.2588  0.6255
 6955TIP3    H142280   4.079   1.669   5.123 -1.1181  0.2867  0.1241
 6955TIP3    H242281   4.119   1.698   5.266  0.5919 -1.0980 -0.0428
 6956TIP3   OH242282   0.281   4.021  12.474 -0.1459  0.2320  0.0257
 6956TIP3    H142283   0.337   3.987  12.543  0.6028 -2.8158 -1.8619
 6956TIP3    H242284   0.337   4.024  12.397 -1.8293 -0.2045 -1.2965
 6957TIP3   OH242285   4.134   6.202   0.076 -0.0479  0.9234 -1.1506
 6957TIP3    H142286   4.100   6.248   0.152 -0.7915  0.2733 -1.0791
 6957TIP3    H242287   4.059   6.195   0.016  0.4709  1.2435 -1.8570
 6958TIP3   OH242288   1.202   0.194  17.137  0.1408 -0.5448 -0.0430
 6958TIP3    H142289   1.288   0.167  17.169  0.6539  0.1133 -0.8166
 6958TIP3    H242290   1.163   0.242  17.211  1.3607  1.0664 -0.3852
 6959TIP3   OH242291   5.309   5.564   3.857 -0.1597  0.1902 -0.3868
 6959TIP3    H142292   5.299   5.573   3.762  0.3795 -0.3386 -0.4982
 6959TIP3    H242293   5.290   5.472   3.874 -0.3938  0.3160  0.0384
 6960TIP3   OH242294   0.284   5.429   4.537  0.2422 -0.1795 -0.0567
 6960TIP3    H142295   0.266   5.394   4.450 -0.3600 -1.1815  0.4475
 6960TIP3    H242296   0.247   5.517   4.536 -0.7113 -0.5733 -0.4897
 6961TIP3   OH242297   1.499   0.903  14.599 -0.2692 -0.5693 -0.3893
 6961TIP3    H142298   1.520   0.988  14.638 -0.1999 -0.6674 -0.2136
 6961TIP3    H242299   1.498   0.920  14.505 -1.3987 -0.1068 -0.3095
 6962TIP3   OH242300   6.664   4.439  14.418 -0.6528 -0.0800  0.2304
 6962TIP3    H142301   6.637   4.519  14.464  0.3554 -0.4499  1.5310
 6962TIP3    H242302   6.697   4.470  14.334  1.3954  1.1142  1.3971
 6963TIP3   OH242303   2.807   2.528   4.035  0.0607  0.0920 -0.3315
 6963TIP3    H142304   2.847   2.454   3.989  2.4085  0.7646  0.5004
 6963TIP3    H242305   2.798   2.498   4.125  0.2785  0.5350 -0.1594
 6964TIP3   OH242306   1.658   6.146  14.678 -0.3641  0.6123 -0.4360
 6964TIP3    H142307   1.591   6.214  14.672  0.5676  1.5727 -0.2975
 6964TIP3    H242308   1.738   6.193  14.701  0.3335 -0.5238 -0.4469
 6965TIP3   OH242309   1.224   4.807   5.496  0.0837  0.3345 -0.3343
 6965TIP3    H142310   1.268   4.892   5.487 -1.4256  1.0761 -1.0594
 6965TIP3    H242311   1.131   4.828   5.500 -0.3799 -1.3409 -1.2481
 6966TIP3   OH242312   1.451   6.775  11.899  0.0113 -0.2498  0.2991
 6966TIP3    H142313   1.384   6.707  11.901 -0.8674  0.6012  1.4243
 6966TIP3    H242314   1.404   6.856  11.880  0.1850  0.8188  3.6717
 6967TIP3   OH242315   2.731   1.517  16.874  0.1269 -0.5061  0.2616
 6967TIP3    H142316   2.715   1.422  16.874  0.9335 -0.6900  2.5601
 6967TIP3    H242317   2.772   1.535  16.958 -1.8331  2.2227  0.7820
 6968TIP3   OH242318   1.132   3.958   4.750  0.3112  0.2401  0.7029
 6968TIP3    H142319   1.055   3.901   4.751  0.8224 -0.6757 -2.4910
 6968TIP3    H242320   1.207   3.898   4.752  0.9158  0.9655  0.4187
 6969TIP3   OH242321   5.958   5.893   3.088  0.2809  0.1139  0.1924
 6969TIP3    H142322   5.964   5.801   3.115 -0.9003  0.0485  0.2910
 6969TIP3    H242323   5.865   5.914   3.097  0.5256  1.2955  0.0806
 6970TIP3   OH242324   0.179   4.115  10.711 -0.2003 -0.2944  0.0973
 6970TIP3    H142325   0.095   4.114  10.759  0.2149 -1.0857  0.8443
 6970TIP3    H242326   0.165   4.176  10.639 -2.3925 -2.4913 -1.5277
 6971TIP3   OH242327   4.209   1.820   2.758  0.4965  0.6559 -0.4447
 6971TIP3    H142328   4.292   1.782   2.730  0.0893  0.4472 -1.4421
 6971TIP3    H242329   4.232   1.882   2.827  1.7513  2.1971 -2.1350
 6972TIP3   OH242330   1.200   2.789   2.329 -0.0794 -0.5766 -0.5158
 6972TIP3    H142331   1.132   2.740   2.375 -0.1377  0.1581  0.1897
 6972TIP3    H242332   1.281   2.743   2.349 -0.1186 -0.3258  0.2456
 6973TIP3   OH242333   6.611   1.937   1.151  0.5545  0.2468  0.1661
 6973TIP3    H142334   6.525   1.952   1.190  1.0112  0.8764  0.9716
 6973TIP3    H242335   6.629   2.018   1.103  1.0187  0.4316  0.6395
 6974TIP3   OH242336   5.893   3.543   3.048 -0.0034  0.0192 -0.0244
 6974TIP3    H142337   5.903   3.630   3.010 -0.1225 -0.0752 -0.2742
 6974TIP3    H242338   5.833   3.498   2.988  0.1718 -0.2819  0.0262
 6975TIP3   OH242339   0.662   1.345   1.259  0.4950  0.1741 -0.0832
 6975TIP3    H142340   0.709   1.283   1.203 -0.9570  0.7950 -2.1182
 6975TIP3    H242341   0.592   1.294   1.300 -0.9173  0.4367 -2.0271
 6976TIP3   OH242342   5.574   6.296   2.719 -0.0157  0.0907  0.0912
 6976TIP3    H142343   5.529   6.331   2.797 -0.9597  0.5918 -0.6523
 6976TIP3    H242344   5.503   6.269   2.661  0.6581  0.4928 -0.9458
 6977TIP3   OH242345   2.136   5.687   1.523  0.5004 -0.5049 -0.4745
 6977TIP3    H142346   2.178   5.719   1.603  2.4695 -1.3735 -1.0861
 6977TIP3    H242347   2.153   5.755   1.458  1.0568 -0.8874 -0.7402
 6978TIP3   OH242348   1.948   2.426  16.175 -0.0161 -0.2544  0.2736
 6978TIP3    H142349   2.034   2.424  16.215  0.2677  1.3958 -0.1508
 6978TIP3    H242350   1.937   2.339  16.136  0.5742 -1.1747  2.0412
 6979TIP3   OH242351   0.624   2.721  11.080 -0.0012 -0.1846  0.0801
 6979TIP3    H142352   0.671   2.655  11.129  0.6533  0.1182 -0.1281
 6979TIP3    H242353   0.661   2.805  11.109 -1.4054  0.1548  0.9662
 6980TIP3   OH242354   0.318   0.345   4.424  0.1127  0.8569 -0.2180
 6980TIP3    H142355   0.271   0.361   4.506 -2.6126 -1.1601 -1.2370
 6980TIP3    H242356   0.404   0.383   4.438 -0.5427  1.3975  3.2359
 6981TIP3   OH242357   3.264   2.989  13.795  0.0955  0.0103  0.5114
 6981TIP3    H142358   3.314   2.984  13.876 -0.4059 -2.2274  0.7482
 6981TIP3    H242359   3.175   2.962  13.820 -0.0923 -0.6015 -0.7504
 6982TIP3   OH242360   0.759   3.811   0.547  0.1623  0.0646 -0.0393
 6982TIP3    H142361   0.802   3.891   0.517  0.3634  1.0917  2.6931
 6982TIP3    H242362   0.670   3.817   0.513  0.5882  0.7148 -1.0764
 6983TIP3   OH242363   5.724   0.705   4.518  0.1746 -0.5870  0.7871
 6983TIP3    H142364   5.723   0.615   4.551  0.4938 -2.3362 -3.3382
 6983TIP3    H242365   5.653   0.749   4.565 -0.6294 -3.2589  2.2587
 6984TIP3   OH242366   4.504   1.637   5.549 -0.9909  0.0814  0.4259
 6984TIP3    H142367   4.420   1.625   5.592 -0.7486  1.2703  1.2716
 6984TIP3    H242368   4.555   1.690   5.610  1.3431 -2.7769  1.1732
 6985TIP3   OH242369   3.522   2.595  17.189  0.0418 -0.0304  0.1399
 6985TIP3    H142370   3.549   2.517  17.142 -0.9136  0.0488 -0.5780
 6985TIP3    H242371   3.561   2.668  17.140 -1.7107  0.1104 -1.1514
 6986TIP3   OH242372   3.110   0.418  14.339 -0.0921 -0.7454 -0.0409
 6986TIP3    H142373   3.161   0.361  14.396  1.1447  1.2802  0.9763
 6986TIP3    H242374   3.057   0.471  14.398  0.1379  0.3897 -0.8121
 6987TIP3   OH242375   0.281   4.415  16.416  0.2639 -0.4910 -0.0892
 6987TIP3    H142376   0.348   4.480  16.437 -0.5366  0.6315 -0.9043
 6987TIP3    H242377   0.199   4.464  16.418 -0.2928 -1.3390 -1.3226
 6988TIP3   OH242378   5.872   2.581   3.769  0.5742  0.0733  0.3738
 6988TIP3    H142379   5.954   2.627   3.787  0.5839  0.1364  0.1782
 6988TIP3    H242380   5.822   2.641   3.713  0.2686  0.1547  0.7370
 6989TIP3   OH242381   0.938   6.089   1.268 -0.3558 -0.4007  0.0190
 6989TIP3    H142382   0.861   6.059   1.315  0.1949 -1.0062  0.5596
 6989TIP3    H242383   1.011   6.075   1.329  0.2024 -0.0152 -0.5453
 6990TIP3   OH242384   5.773   4.692   5.581  0.4157 -0.1803  0.2730
 6990TIP3    H142385   5.778   4.602   5.549 -1.0960 -0.7011  1.3697
 6990TIP3    H242386   5.765   4.684   5.676 -0.0793  1.0965  0.3673
 6991TIP3   OH242387   5.344   4.593  14.331  0.6633 -0.1271 -1.1449
 6991TIP3    H142388   5.277   4.546  14.380  1.0424  1.5859  1.1982
 6991TIP3    H242389   5.304   4.611  14.246 -2.1401  1.3261  0.3307
 6992TIP3   OH242390   4.709   1.837   0.928 -0.2786  0.1997  0.0862
 6992TIP3    H142391   4.794   1.879   0.919 -0.3573  0.5536  0.8919
 6992TIP3    H242392   4.648   1.909   0.944 -0.7728 -0.0301 -0.6861
 6993TIP3   OH242393   3.885   0.229   5.823 -0.5676  0.4631 -0.1032
 6993TIP3    H142394   3.942   0.257   5.895 -0.9890 -2.0081  1.3106
 6993TIP3    H242395   3.940   0.232   5.745  0.8799  0.0973  0.8756
 6994TIP3   OH242396   0.720   3.966  16.250  0.2593 -0.1386  0.0324
 6994TIP3    H142397   0.738   3.895  16.312  0.9663 -0.4708 -0.5293
 6994TIP3    H242398   0.629   3.953  16.225  0.5044 -1.1469 -0.4059
 6995TIP3   OH242399   1.340   3.207  14.003  0.6223  0.2272 -0.2409
 6995TIP3    H142400   1.407   3.275  13.996 -1.7674  2.7619 -0.2723
 6995TIP3    H242401   1.326   3.178  13.913 -0.5601  2.1284 -0.7345
 6996TIP3   OH242402   6.243   4.545  14.254  0.2262  0.1196 -0.1378
 6996TIP3    H142403   6.225   4.566  14.345 -0.0152 -1.6931  0.2596
 6996TIP3    H242404   6.209   4.620  14.205  0.2135  1.0463  1.2329
 6997TIP3   OH242405   0.789   2.801  12.835  0.0615 -0.2155 -0.2687
 6997TIP3    H142406   0.743   2.885  12.826 -1.6197 -1.2402 -2.0356
 6997TIP3    H242407   0.729   2.745  12.884  0.5175 -0.8465 -0.4115
 6998TIP3   OH242408   0.954   6.176  14.957 -0.0092  0.2209 -0.0151
 6998TIP3    H142409   1.027   6.225  14.995 -1.0419  0.7142  1.4332
 6998TIP3    H242410   0.980   6.084  14.964  1.2600  0.4557 -1.2654
 6999TIP3   OH242411   4.720   6.476   4.810  0.3463 -0.6647 -0.6869
 6999TIP3    H142412   4.701   6.410   4.743  1.6321 -0.7668 -0.9693
 6999TIP3    H242413   4.804   6.450   4.846 -0.3147 -0.6082  0.9870
 7000TIP3   OH242414   2.608   5.770   0.638  0.3701  0.1016 -0.2325
 7000TIP3    H142415   2.599   5.676   0.653  0.0146 -0.4581 -3.1822
 7000TIP3    H242416   2.701   5.782   0.617  0.5044  0.5027  0.5623
 7001TIP3   OH242417   3.806   6.088  12.502  0.1710  0.9282 -0.5640
 7001TIP3    H142418   3.772   6.124  12.420 -1.7166  2.0005  0.6227
 7001TIP3    H242419   3.851   6.160  12.544  4.4900 -0.5160 -2.2027
 7002TIP3   OH242420   3.604   4.721  15.033 -0.5497  0.0070 -0.1600
 7002TIP3    H142421   3.678   4.702  15.090  0.0634  1.6457 -0.3408
 7002TIP3    H242422   3.527   4.692  15.082  0.0757  0.0270  0.8581
 7003TIP3   OH242423   2.005   1.457  14.474  0.1639  0.2552  0.1486
 7003TIP3    H142424   1.944   1.482  14.544 -0.3500  0.5340 -0.3979
 7003TIP3    H242425   2.008   1.362  14.478  1.0657  0.2920  1.3309
 7004TIP3   OH242426   4.966   0.476   2.389 -0.0376 -0.5748 -0.4875
 7004TIP3    H142427   4.885   0.474   2.338 -0.4151  0.2381  0.0625
 7004TIP3    H242428   5.029   0.520   2.333 -0.5257  0.5587 -0.1696
 7005TIP3   OH242429   5.866   0.235  16.659 -0.2615 -0.5857  0.3177
 7005TIP3    H142430   5.933   0.212  16.595  0.3373 -1.1599  1.1281
 7005TIP3    H242431   5.910   0.228  16.744 -1.1939 -0.4117  0.8336
 7006TIP3   OH242432   4.331   3.349  14.743  0.0550 -0.0827 -0.0160
 7006TIP3    H142433   4.298   3.349  14.833 -0.6824 -2.3883 -0.2158
 7006TIP3    H242434   4.289   3.424  14.701 -3.9802 -2.0170  0.1492
 7007TIP3   OH242435   1.470   1.874   3.673 -0.2369 -0.6621  0.0019
 7007TIP3    H142436   1.375   1.883   3.663 -0.1588 -1.3086 -1.8424
 7007TIP3    H242437   1.497   1.823   3.596  1.6735 -0.0774  0.2336
 7008TIP3   OH242438   3.062   2.161  15.804 -0.4365  0.2627 -0.1637
 7008TIP3    H142439   3.134   2.102  15.829  0.7843  1.5528 -0.4672
 7008TIP3    H242440   3.015   2.113  15.736 -1.2531 -1.5368  1.5960
 7009TIP3   OH242441   3.772   5.436  12.727 -0.1740  0.0549 -0.3445
 7009TIP3    H142442   3.742   5.439  12.818  1.0559  0.8770  0.0674
 7009TIP3    H242443   3.756   5.525  12.694  2.9880  1.0420  0.3665
 7010TIP3   OH242444   0.119   2.002   4.194 -0.0644  0.6224 -0.0113
 7010TIP3    H142445   0.071   1.984   4.113 -0.7685  0.7767  0.3644
 7010TIP3    H242446   0.211   2.007   4.167 -0.0752 -1.2473 -0.4965
 7011TIP3   OH242447   6.454   0.118   6.083 -0.1909  0.2121 -0.5335
 7011TIP3    H142448   6.369   0.092   6.118 -0.2465 -0.0641 -0.8709
 7011TIP3    H242449   6.472   0.202   6.125 -0.9261  0.5868 -0.9436
 7012TIP3   OH242450   3.518   5.765  10.622 -0.4250 -0.6913  0.0289
 7012TIP3    H142451   3.516   5.735  10.713 -1.4778 -1.7420 -0.3303
 7012TIP3    H242452   3.491   5.690  10.571  0.3423 -0.1634 -1.1898
 7013TIP3   OH242453   4.754   2.919  16.618 -0.0896 -0.0257 -0.1925
 7013TIP3    H142454   4.818   2.963  16.561 -0.4448  0.0977 -0.5030
 7013TIP3    H242455   4.773   2.952  16.706  0.0072  0.3272 -0.3440
 7014TIP3   OH242456   4.989   4.159   3.929  0.4718 -0.0164  0.3083
 7014TIP3    H142457   5.017   4.073   3.899  1.9518  0.0876  1.2723
 7014TIP3    H242458   5.060   4.188   3.986 -0.0004  1.8555 -0.0100
 7015TIP3   OH242459   3.421   4.444  15.215  0.5444  0.1219  0.2703
 7015TIP3    H142460   3.399   4.493  15.136  2.4737  1.7432  0.6548
 7015TIP3    H242461   3.337   4.410  15.247 -0.3933  0.1911 -1.9421
 7016TIP3   OH242462   4.505   4.343  14.859 -0.6525 -0.4560  0.1176
 7016TIP3    H142463   4.458   4.403  14.801 -1.5381  0.8079  2.0694
 7016TIP3    H242464   4.438   4.306  14.915  0.1916 -1.6185  0.4065
 7017TIP3   OH242465   3.695   5.360  16.249  0.1708 -0.1068 -0.1181
 7017TIP3    H142466   3.621   5.359  16.188 -0.5454  1.2111  0.6877
 7017TIP3    H242467   3.729   5.270  16.248 -0.2812 -0.2947 -1.8768
 7018TIP3   OH242468   1.601   3.688   0.529 -0.3695  0.1130  0.4754
 7018TIP3    H142469   1.532   3.623   0.516  0.7034 -0.7375 -1.3517
 7018TIP3    H242470   1.563   3.771   0.499 -0.5981 -0.3626 -0.5762
 7019TIP3   OH242471   0.246   1.017  11.659  0.2060  0.3030  0.1103
 7019TIP3    H142472   0.248   0.988  11.567  2.5918 -0.4851  0.3272
 7019TIP3    H242473   0.234   1.111  11.654  0.0183  0.2330 -1.0111
 7020TIP3   OH242474   1.516   0.895   5.212  0.0352  0.0759  0.1218
 7020TIP3    H142475   1.612   0.885   5.212 -0.0444 -0.9804  1.3568
 7020TIP3    H242476   1.501   0.981   5.250  0.4996  0.1828  0.0672
 7021TIP3   OH242477   3.790   5.249   1.548  0.1427  0.6509  0.4107
 7021TIP3    H142478   3.797   5.260   1.453 -2.0425  0.9816  0.2205
 7021TIP3    H242479   3.880   5.242   1.578  0.9087  0.7415 -1.6598
 7022TIP3   OH242480   1.673   1.817  13.765 -0.1008 -0.2333 -0.1697
 7022TIP3    H142481   1.753   1.771  13.790 -0.0731  0.4044  0.9881
 7022TIP3    H242482   1.670   1.810  13.670  1.3589 -0.2371 -0.2415
 7023TIP3   OH242483   4.429   1.762   1.836  0.3026 -0.2846 -0.3141
 7023TIP3    H142484   4.470   1.848   1.843 -0.1925 -0.0804  0.1207
 7023TIP3    H242485   4.354   1.775   1.778  0.7200 -0.6179 -0.9544
 7024TIP3   OH242486   6.380   4.253   2.643  0.3270  0.0147  0.3631
 7024TIP3    H142487   6.306   4.198   2.619 -1.1200  1.3686  1.4981
 7024TIP3    H242488   6.424   4.273   2.560  0.6620 -2.4264 -0.1162
 7025TIP3   OH242489   5.729   5.953   5.309 -0.0486 -0.6826  0.3725
 7025TIP3    H142490   5.791   5.887   5.278 -0.7981 -1.3437  0.2740
 7025TIP3    H242491   5.643   5.915   5.294 -0.4903 -1.3475  3.7920
 7026TIP3   OH242492   3.424   5.190   4.724 -0.1955  0.0362  0.3025
 7026TIP3    H142493   3.342   5.235   4.745 -0.9298 -1.3345  0.4639
 7026TIP3    H242494   3.414   5.103   4.763  1.5291 -0.0124  0.7237
 7027TIP3   OH242495   0.783   2.263   3.174  0.1361 -0.1670  0.2184
 7027TIP3    H142496   0.840   2.186   3.168 -2.0110 -1.8755  0.3914
 7027TIP3    H242497   0.751   2.262   3.265 -2.8627 -1.4394 -0.7027
 7028TIP3   OH242498   5.141   0.516   3.027  0.2376 -0.5579  0.9082
 7028TIP3    H142499   5.148   0.611   3.028  0.6803 -0.5766  2.4824
 7028TIP3    H242500   5.048   0.498   3.015 -0.2959  0.1562  3.4648
 7029TIP3   OH242501   0.164   0.206  13.283  0.1413 -0.5562 -0.6563
 7029TIP3    H142502   0.132   0.123  13.248  0.1640 -1.2910  0.9829
 7029TIP3    H242503   0.106   0.225  13.356  0.8438  0.2994 -0.3025
 7030TIP3   OH242504   5.641   2.145   5.830 -0.4481  0.7007 -0.4726
 7030TIP3    H142505   5.683   2.117   5.911  1.1838  0.2502 -1.4248
 7030TIP3    H242506   5.664   2.237   5.822 -0.7472  0.7868 -0.3438
 7031TIP3   OH242507   4.803   4.205  12.898 -0.3398 -0.5043 -0.4331
 7031TIP3    H142508   4.750   4.202  12.978 -1.1719  1.3524 -0.8393
 7031TIP3    H242509   4.892   4.184  12.927 -0.6275  0.1228  0.9907
 7032TIP3   OH242510   3.347   3.364   1.284  0.1026  0.7597  0.0999
 7032TIP3    H142511   3.441   3.351   1.274  0.0352  0.6017 -0.3656
 7032TIP3    H242512   3.309   3.321   1.207 -0.3611  0.6645  0.3799
 7033TIP3   OH242513   5.652   3.739  15.192  0.5846 -0.7865 -0.3921
 7033TIP3    H142514   5.618   3.658  15.154 -3.2973 -0.0739  1.0709
 7033TIP3    H242515   5.636   3.729  15.286  1.0233  1.2377 -0.0662
 7034TIP3   OH242516   1.519   1.969   0.634  0.0939  0.2937  0.1612
 7034TIP3    H142517   1.515   2.008   0.721 -0.9280  1.0463 -0.1883
 7034TIP3    H242518   1.524   1.875   0.649 -1.3277  0.3269  1.0582
 7035TIP3   OH242519   3.658   3.568  12.593  0.7630 -0.1094 -0.0511
 7035TIP3    H142520   3.596   3.533  12.657 -1.5356  0.5960 -1.8036
 7035TIP3    H242521   3.622   3.544  12.508  2.7278  0.6466 -1.1714
 7036TIP3   OH242522   2.228   6.128  16.184 -1.0571  0.3835 -0.0126
 7036TIP3    H142523   2.307   6.183  16.185  0.2321 -1.3506 -0.5041
 7036TIP3    H242524   2.177   6.158  16.259  0.3415  1.2321  0.6519
 7037TIP3   OH242525   4.191   1.896   4.150 -0.2132  0.2696 -0.2375
 7037TIP3    H142526   4.108   1.849   4.159 -0.2121  0.2103 -0.5336
 7037TIP3    H242527   4.258   1.830   4.168 -0.1788 -0.0939 -1.6151
 7038TIP3   OH242528   5.685   0.116   0.038  0.3355  0.1239  0.2612
 7038TIP3    H142529   5.734   0.049  -0.010  0.5450  0.6392 -0.2522
 7038TIP3    H242530   5.665   0.182  -0.028 -0.1471  0.4133  0.6981
 7039TIP3   OH242531   6.310   3.290  15.806 -0.0151  0.0136 -0.0891
 7039TIP3    H142532   6.320   3.313  15.714 -0.1595 -0.6677 -0.2850
 7039TIP3    H242533   6.359   3.208  15.815 -0.4764 -0.2236  0.3079
 7040TIP3   OH242534   2.857   4.364  15.205 -0.1862 -0.0863 -0.1203
 7040TIP3    H142535   2.856   4.400  15.294 -1.4364 -0.2919 -0.0293
 7040TIP3    H242536   2.873   4.271  15.216  0.0474 -0.0472 -0.1346
 7041TIP3   OH242537   6.454   3.799   3.558 -0.2491  0.1103 -0.3214
 7041TIP3    H142538   6.516   3.776   3.628 -0.4881 -0.6811 -0.3533
 7041TIP3    H242539   6.509   3.805   3.479  0.0165  0.9799 -0.0817
 7042TIP3   OH242540   2.878   3.442   1.469  0.1496  0.0466 -0.2159
 7042TIP3    H142541   2.882   3.454   1.374 -0.1997 -0.8444 -0.3444
 7042TIP3    H242542   2.925   3.360   1.486  0.4409  0.3325  0.4137
 7043TIP3   OH242543   1.887   6.058   0.189  0.4914 -0.8021 -0.1353
 7043TIP3    H142544   1.862   6.146   0.217 -1.6246 -1.7951  1.4151
 7043TIP3    H242545   1.958   6.033   0.249  1.0145 -0.2075 -0.5009
 7044TIP3   OH242546   2.553   0.721  12.428 -0.8341 -0.1394 -0.1494
 7044TIP3    H142547   2.482   0.760  12.479  0.7567  0.4511  1.7121
 7044TIP3    H242548   2.563   0.778  12.352 -1.0017  0.9573  0.6366
 7045TIP3   OH242549   0.408   0.178  15.481 -0.3281 -0.4146  0.2431
 7045TIP3    H142550   0.400   0.158  15.388 -1.6508 -0.0942  0.2554
 7045TIP3    H242551   0.320   0.209  15.506 -0.3253 -1.5382  1.8412
 7046TIP3   OH242552   4.352   5.411   2.335 -0.3006  0.2169 -0.1454
 7046TIP3    H142553   4.410   5.456   2.396  0.3438 -0.6281 -0.1210
 7046TIP3    H242554   4.393   5.326   2.321 -0.5751  0.2939 -1.5696
 7047TIP3   OH242555   2.457   6.248  14.109 -0.1708  0.2083 -0.3977
 7047TIP3    H142556   2.539   6.234  14.061 -0.1975  1.3045 -0.8046
 7047TIP3    H242557   2.449   6.172  14.166  1.2376  0.1792 -0.1977
 7048TIP3   OH242558   1.384   5.155  14.646  0.5558  0.1889 -0.1614
 7048TIP3    H142559   1.461   5.139  14.592  1.8120  0.3021  1.5190
 7048TIP3    H242560   1.352   5.241  14.617 -0.1307 -0.6824 -2.1727
 7049TIP3   OH242561   0.459   4.976  11.684 -0.0574 -0.1784 -0.3152
 7049TIP3    H142562   0.545   5.020  11.685 -0.1051 -0.0508 -1.1492
 7049TIP3    H242563   0.424   4.994  11.596 -0.7972 -0.5054 -0.0927
 7050TIP3   OH242564   6.691   6.384  11.610  0.3456 -0.2107 -0.1859
 7050TIP3    H142565   6.602   6.363  11.583  0.4048 -2.5132  1.1597
 7050TIP3    H242566   6.746   6.325  11.558  1.0674  0.7836 -0.5800
 7051TIP3   OH242567   4.599   2.090   5.452 -0.2041  0.2658  0.4894
 7051TIP3    H142568   4.655   2.054   5.383 -0.6038 -1.4427  1.0051
 7051TIP3    H242569   4.518   2.113   5.407 -0.1393  0.0069  0.2364
 7052TIP3   OH242570   0.549   6.034   4.184 -0.7186  0.3734 -0.0950
 7052TIP3    H142571   0.468   6.033   4.134 -0.6435  0.9008 -0.2371
 7052TIP3    H242572   0.588   6.119   4.165 -0.3192  0.2786  0.2705
 7053TIP3   OH242573   6.160   3.903   0.352  0.0243  0.0055 -0.4976
 7053TIP3    H142574   6.086   3.843   0.345  0.3911 -0.6623  0.9081
 7053TIP3    H242575   6.190   3.893   0.442  0.4458  1.9179 -0.3827
 7054TIP3   OH242576   2.748   0.279   3.735 -0.5904  0.0094 -0.2324
 7054TIP3    H142577   2.707   0.200   3.701  0.6799 -0.3810 -0.9392
 7054TIP3    H242578   2.838   0.252   3.757 -0.7781  0.7358  1.5947
 7055TIP3   OH242579   6.623   6.324   3.172 -0.1197  0.0092  0.4109
 7055TIP3    H142580   6.636   6.364   3.086  0.9135 -0.0745  0.5154
 7055TIP3    H242581   6.637   6.230   3.158 -0.4931 -0.0710  0.5647
 7056TIP3   OH242582   3.545   3.918   1.258  0.1336  0.0890  0.1668
 7056TIP3    H142583   3.626   3.878   1.289  0.0365  0.5296  1.0158
 7056TIP3    H242584   3.479   3.850   1.268  0.0395  0.3221  1.2654
 7057TIP3   OH242585   6.771   6.291  16.794 -0.2452  0.0019 -0.3607
 7057TIP3    H142586   6.855   6.247  16.811  0.7130  1.9956  0.3900
 7057TIP3    H242587   6.705   6.222  16.804  1.2639 -1.5096 -0.4846
 7058TIP3   OH242588   4.501   5.273  13.157  0.0905  0.1659 -0.0284
 7058TIP3    H142589   4.542   5.259  13.071  0.3214 -1.0203  0.2602
 7058TIP3    H242590   4.453   5.192  13.174 -1.2924  1.0120  0.2502
 7059TIP3   OH242591   2.325   5.163   3.247 -0.1224 -1.1374 -0.1038
 7059TIP3    H142592   2.243   5.115   3.262 -0.8385  0.5175  1.7154
 7059TIP3    H242593   2.363   5.173   3.334  1.1390 -0.3818 -0.7183
 7060TIP3   OH242594   1.316   3.613   2.852 -0.4263 -0.4222  0.4881
 7060TIP3    H142595   1.251   3.546   2.876 -1.0258  0.6335  1.9547
 7060TIP3    H242596   1.327   3.665   2.931 -0.9938  2.0666 -0.9462
 7061TIP3   OH242597   1.983   5.300   3.382  0.1095  0.6125  0.8634
 7061TIP3    H142598   2.043   5.231   3.411 -0.0049  0.9616  1.9536
 7061TIP3    H242599   1.956   5.272   3.294  0.2656 -0.6000  1.1818
 7062TIP3   OH242600   6.603   5.840   4.851  0.0041  0.2277 -0.0739
 7062TIP3    H142601   6.657   5.777   4.804  1.4192  1.1504  0.2468
 7062TIP3    H242602   6.544   5.876   4.785  0.7619  0.2337 -0.7621
 7063TIP3   OH242603   5.962   2.980   3.629 -0.4565 -0.2663 -0.5524
 7063TIP3    H142604   6.023   3.050   3.605  0.7873 -0.0238  2.8021
 7063TIP3    H242605   5.905   3.019   3.695 -0.9240 -1.8917  0.0591
 7064TIP3   OH242606   3.533   5.561  13.568  0.1924  0.5925 -0.3300
 7064TIP3    H142607   3.527   5.519  13.654  0.2024  1.8213  0.2818
 7064TIP3    H242608   3.613   5.612  13.571  1.2196 -0.8212 -1.7659
 7065TIP3   OH242609   3.906   4.347   3.024 -0.0010 -0.4408 -0.4214
 7065TIP3    H142610   3.855   4.304   3.092  0.0874 -0.8585 -0.6162
 7065TIP3    H242611   3.997   4.325   3.044  0.0126 -0.7347 -0.7834
 7066TIP3   OH242612   0.517   0.876  15.475  0.0121  0.4700 -0.4208
 7066TIP3    H142613   0.587   0.814  15.493 -0.3871 -0.0445 -0.6180
 7066TIP3    H242614   0.450   0.856  15.540 -0.1037  0.7142 -0.4655
 7067TIP3   OH242615   0.547   3.036   2.448  0.2488  0.6075  0.2972
 7067TIP3    H142616   0.629   3.005   2.485 -1.4483 -0.8504  3.1776
 7067TIP3    H242617   0.500   2.956   2.423 -0.1141  1.4306 -1.8805
 7068TIP3   OH242618   0.855   0.743   4.784  0.6740  0.2127 -0.2405
 7068TIP3    H142619   0.907   0.734   4.864  1.2444  0.1357 -0.6247
 7068TIP3    H242620   0.785   0.805   4.809  0.2783 -0.5483  0.5969
 7069TIP3   OH242621   2.936   4.084  16.818 -0.0120 -0.3204 -0.0887
 7069TIP3    H142622   2.897   4.141  16.752  0.0503  0.9651  0.9551
 7069TIP3    H242623   2.866   4.072  16.883  0.5556  0.0567  0.6025
 7070TIP3   OH242624   2.689   3.351  13.956 -0.0950 -0.2134  0.1790
 7070TIP3    H142625   2.681   3.429  14.011 -0.5052 -1.1000  1.4215
 7070TIP3    H242626   2.622   3.363  13.888 -0.9870 -0.0175  1.0604
 7071TIP3   OH242627   2.199   0.006   2.149  0.4096 -0.6514 -0.0709
 7071TIP3    H142628   2.166  -0.074   2.108  0.3555  0.1308 -1.6092
 7071TIP3    H242629   2.133   0.072   2.130  0.4733 -0.2024  1.1507
 7072TIP3   OH242630   5.762   3.477   1.266 -0.1303 -0.0036 -0.4321
 7072TIP3    H142631   5.843   3.491   1.217 -0.9464  1.4897 -1.4343
 7072TIP3    H242632   5.751   3.382   1.269  1.0602 -0.1830 -1.2688
 7073TIP3   OH242633   1.227   2.364  11.063 -0.0542 -0.1249  0.3075
 7073TIP3    H142634   1.198   2.453  11.082  0.4895  0.5402 -1.6755
 7073TIP3    H242635   1.178   2.340  10.985 -0.5711 -1.7864  1.1127
 7074TIP3   OH242636   4.414   0.049  11.858 -0.4764 -0.7609  0.0451
 7074TIP3    H142637   4.375   0.125  11.902 -1.8645 -1.6559  0.4425
 7074TIP3    H242638   4.401  -0.023  11.920  2.1803 -1.0833  0.3368
 7075TIP3   OH242639   3.455   1.256   6.028  0.3480 -0.3547 -0.3835
 7075TIP3    H142640   3.499   1.216   6.104  1.5026  1.5185  0.0044
 7075TIP3    H242641   3.363   1.233   6.039  0.4466  0.0265  1.7402
 7076TIP3   OH242642   0.364   1.267   3.186 -0.0601 -0.5076  0.1963
 7076TIP3    H142643   0.319   1.187   3.157  1.5135  0.0092 -4.3074
 7076TIP3    H242644   0.412   1.239   3.264 -1.0731 -3.4113 -0.0873
 7077TIP3   OH242645   1.732   3.511   5.681 -0.0032 -0.4010 -0.5636
 7077TIP3    H142646   1.732   3.456   5.603  1.1158  0.4091 -1.1549
 7077TIP3    H242647   1.824   3.517   5.707 -0.3339 -0.4967  0.7167
 7078TIP3   OH242648   0.890   1.402   0.574 -0.3866  0.3429  0.2320
 7078TIP3    H142649   0.855   1.474   0.626  0.5653 -0.1163  1.5665
 7078TIP3    H242650   0.855   1.416   0.486 -3.2388  0.3684  1.2713
 7079TIP3   OH242651   4.880   1.050  17.032  0.3110  0.0941  0.1718
 7079TIP3    H142652   4.937   1.107  17.085 -0.4644  1.6764 -0.6444
 7079TIP3    H242653   4.930   1.034  16.952  0.3321  0.0066  0.2017
 7080TIP3   OH242654   1.411   0.014   1.913  0.6016  0.0510 -0.0847
 7080TIP3    H142655   1.500   0.041   1.938  0.3240  1.2556 -0.3479
 7080TIP3    H242656   1.354   0.059   1.976  0.1489 -0.2913 -0.2520
 7081TIP3   OH242657   3.289   6.191  15.463 -0.0018  0.3516 -0.4110
 7081TIP3    H142658   3.316   6.280  15.440 -0.2894  1.6228  3.3819
 7081TIP3    H242659   3.250   6.201  15.550 -0.0883 -3.5304  0.1306
 7082TIP3   OH242660   1.540   2.461   3.685  0.3445 -0.1200 -0.3436
 7082TIP3    H142661   1.608   2.412   3.640 -0.3414  0.3895 -2.0112
 7082TIP3    H242662   1.458   2.422   3.656 -0.1619  1.0912 -0.6395
 7083TIP3   OH242663   2.736   5.884   2.412 -0.2036  0.2007 -0.0275
 7083TIP3    H142664   2.826   5.906   2.436 -0.1770  0.8743 -0.7300
 7083TIP3    H242665   2.717   5.804   2.462  0.6415  0.2776  0.4306
 7084TIP3   OH242666   4.297   2.066  14.516  0.4659  0.2681 -0.2040
 7084TIP3    H142667   4.381   2.020  14.521  0.4290  0.2613  0.3907
 7084TIP3    H242668   4.282   2.077  14.422  0.7393 -0.4451 -0.3394
 7085TIP3   OH242669   4.988   3.561  16.774  0.0924  0.0307 -0.5339
 7085TIP3    H142670   5.081   3.575  16.754  0.1184 -1.5477 -1.7173
 7085TIP3    H242671   4.989   3.500  16.847 -0.0134 -0.2788 -0.7904
 7086TIP3   OH242672   5.457   2.700   2.217  0.3704  0.2418  0.0689
 7086TIP3    H142673   5.419   2.777   2.258 -1.2794  1.0519 -2.7627
 7086TIP3    H242674   5.386   2.661   2.167  2.0916 -0.8952 -1.6541
 7087TIP3   OH242675   4.631   0.065  13.323 -0.4932 -0.0708  0.5098
 7087TIP3    H142676   4.630   0.074  13.418  1.0389 -0.8915  0.6239
 7087TIP3    H242677   4.670   0.147  13.292 -1.1939  0.2892  0.5598
 7088TIP3   OH242678   1.240   2.878   5.403 -0.0886  0.0028 -1.3074
 7088TIP3    H142679   1.280   2.794   5.383 -2.4143 -1.2749 -0.8890
 7088TIP3    H242680   1.146   2.863   5.397 -0.6114  2.3401 -0.3124
 7089TIP3   OH242681   4.787   3.456   4.495 -0.3926  0.1937  0.0202
 7089TIP3    H142682   4.864   3.507   4.470 -2.0656  3.0105  0.1806
 7089TIP3    H242683   4.799   3.439   4.589  0.0787  0.5627  0.0278
 7090TIP3   OH242684   0.649   6.329  15.711 -0.0319 -0.0028 -0.7545
 7090TIP3    H142685   0.682   6.350  15.798 -0.3352  0.3438 -0.7241
 7090TIP3    H242686   0.555   6.342  15.717  0.0982  1.3830 -1.5250
 7091TIP3   OH242687   6.749   6.381   2.893  0.0803  0.4691  0.3140
 7091TIP3    H142688   6.660   6.415   2.883 -0.2122 -0.3645 -0.1188
 7091TIP3    H242689   6.789   6.395   2.807  0.3894  0.9135  0.5328
 7092TIP3   OH242690   6.385   5.166   2.212  0.1380 -0.0928 -0.3611
 7092TIP3    H142691   6.336   5.196   2.136  0.2479 -0.6259 -0.6448
 7092TIP3    H242692   6.471   5.143   2.178 -0.0136 -0.9290 -0.1860
 7093TIP3   OH242693   1.919   1.284  12.955 -0.6894  0.1044  0.0709
 7093TIP3    H142694   1.936   1.290  13.050 -0.4901 -0.3032  0.0600
 7093TIP3    H242695   1.937   1.193  12.933  1.3299  0.6372 -0.7421
 7094TIP3   OH242696   5.476   0.209  15.996 -0.1493 -0.0598 -0.0304
 7094TIP3    H142697   5.453   0.301  16.009  1.8025  0.6195 -1.0308
 7094TIP3    H242698   5.392   0.166  15.978 -1.1574  1.4202  0.8457
 7095TIP3   OH242699   3.171   5.333   6.546 -0.0841  0.1907  0.4489
 7095TIP3    H142700   3.148   5.418   6.509  1.3389  0.8868  1.1129
 7095TIP3    H242701   3.208   5.353   6.632  3.5215 -0.7269 -0.7315
 7096TIP3   OH242702   2.684   3.617   0.508 -0.0693 -0.6193 -0.7328
 7096TIP3    H142703   2.639   3.585   0.586  1.1264  0.0948  0.2679
 7096TIP3    H242704   2.615   3.660   0.457 -0.5566  0.4141  0.7435
 7097TIP3   OH242705   6.304   6.540   1.663 -0.9249  0.3219 -0.2557
 7097TIP3    H142706   6.249   6.496   1.728 -3.1242  0.6542 -1.7485
 7097TIP3    H242707   6.280   6.633   1.671 -0.0903  0.5638 -0.5132
 7098TIP3   OH242708   3.099   5.227  12.391  0.6901  0.0366  0.2457
 7098TIP3    H142709   3.160   5.236  12.318  0.1874 -0.2235 -0.2101
 7098TIP3    H242710   3.127   5.148  12.437  0.0531 -0.6841 -0.5841
 7099TIP3   OH242711   3.046   2.025  14.081 -0.2318  0.2929  0.0314
 7099TIP3    H142712   2.983   2.058  14.146 -1.4200  0.1063 -0.9790
 7099TIP3    H242713   3.033   2.081  14.005  0.7127  0.1288 -0.2583
 7100TIP3   OH242714   3.766   4.222   3.233  0.4033  0.0439 -0.0075
 7100TIP3    H142715   3.699   4.154   3.243  2.0645 -2.0843 -2.0882
 7100TIP3    H242716   3.717   4.303   3.220 -1.6953 -1.1031  0.3339
 7101TIP3   OH242717   5.048   3.219  11.651 -0.3180 -0.1010  0.2238
 7101TIP3    H142718   4.997   3.278  11.707 -0.7382  0.5097 -0.7729
 7101TIP3    H242719   5.076   3.274  11.578 -1.7613 -1.3980 -1.3772
 7102TIP3   OH242720   4.689   5.424   3.303  0.8541 -0.2123  0.5040
 7102TIP3    H142721   4.765   5.373   3.275 -0.4002 -1.9219  0.0567
 7102TIP3    H242722   4.621   5.358   3.320 -0.8538  1.3147 -0.1430
 7103TIP3   OH242723   4.929   2.087   1.697 -0.1089 -0.2571 -0.3230
 7103TIP3    H142724   4.995   2.147   1.730 -2.5231  1.6423  1.4181
 7103TIP3    H242725   4.856   2.143   1.670 -1.8833 -2.2943 -0.0655
 7104TIP3   OH242726   2.260   0.768  12.143 -0.2318  0.0361  0.1936
 7104TIP3    H142727   2.230   0.686  12.104 -1.0612 -0.1058  1.0869
 7104TIP3    H242728   2.355   0.759  12.149 -0.4568 -1.7164  2.1082
 7105TIP3   OH242729   6.406   3.995   3.097  0.2092 -0.2331 -0.1241
 7105TIP3    H142730   6.402   3.990   3.001  0.6774 -1.2392 -0.1074
 7105TIP3    H242731   6.338   4.058   3.120 -0.4487 -0.5641 -1.0781
 7106TIP3   OH242732   1.881   1.772  14.266 -0.0497  0.3903 -0.0997
 7106TIP3    H142733   1.972   1.745  14.271 -0.6768 -1.9598 -0.2618
 7106TIP3    H242734   1.836   1.698  14.224 -2.1829  1.0693  0.8412
 7107TIP3   OH242735   5.632   1.787   6.288  0.1774  0.0256 -0.1682
 7107TIP3    H142736   5.571   1.845   6.334 -0.5654 -0.0910 -0.9937
 7107TIP3    H242737   5.715   1.798   6.336 -0.1600  1.1190  0.2087
 7108TIP3   OH242738   4.004   3.506   0.784 -0.2974  0.2272 -0.0614
 7108TIP3    H142739   4.003   3.593   0.822  0.7417  0.2596 -0.0550
 7108TIP3    H242740   4.096   3.493   0.757 -0.0830 -1.4268  1.2870
 7109TIP3   OH242741   5.307   3.114   0.812  0.9582  0.9541 -0.0580
 7109TIP3    H142742   5.247   3.139   0.882  1.9413  3.2745  0.0298
 7109TIP3    H242743   5.250   3.093   0.738  0.0044  2.2568  0.2798
 7110TIP3   OH242744   5.313   3.415   1.942 -0.1065 -0.5543 -0.2794
 7110TIP3    H142745   5.391   3.447   1.895 -0.6869 -0.2541 -1.0550
 7110TIP3    H242746   5.343   3.405   2.033  0.4321  1.0209 -0.2487
 7111TIP3   OH242747   6.787   2.122   5.872 -0.2741 -0.7625 -0.4580
 7111TIP3    H142748   6.717   2.092   5.930 -0.4896 -0.1606 -0.4020
 7111TIP3    H242749   6.867   2.083   5.908 -0.7146 -2.4230 -1.2043
 7112TIP3   OH242750   0.028   3.810   2.103 -0.1830  0.5216  0.3490
 7112TIP3    H142751   0.112   3.843   2.069 -0.4659  1.0571  0.1633
 7112TIP3    H242752   0.016   3.856   2.186  0.8449 -1.2856  1.5798
 7113TIP3   OH242753   6.768   1.580   3.053  0.2346 -0.1364  0.2521
 7113TIP3    H142754   6.772   1.572   2.957 -1.9039  1.5446 -0.0575
 7113TIP3    H242755   6.840   1.526   3.084  0.0125 -2.0637 -2.2256
 7114TIP3   OH242756   2.857   0.865  16.698  0.9675 -0.6946 -0.6650
 7114TIP3    H142757   2.813   0.789  16.661  0.9825 -2.2954  2.2606
 7114TIP3    H242758   2.808   0.940  16.664 -0.7419 -2.1499 -1.5992
 7115TIP3   OH242759   0.758   6.391   5.673  0.5619  0.3772  0.0502
 7115TIP3    H142760   0.667   6.383   5.702  1.2329  0.0146  2.2322
 7115TIP3    H242761   0.803   6.435   5.745  2.4242 -0.8279 -0.2940
 7116TIP3   OH242762   2.109   3.646  11.802 -0.1793  0.4657  0.4149
 7116TIP3    H142763   2.040   3.622  11.740  1.7520  0.2997 -1.7887
 7116TIP3    H242764   2.134   3.735  11.778 -0.7410  1.1897  2.3216
 7117TIP3   OH242765   0.581   3.115  16.234 -0.0169 -0.0689  0.1097
 7117TIP3    H142766   0.654   3.096  16.293  0.4580  1.5499  0.0967
 7117TIP3    H242767   0.578   3.211  16.229 -1.9395 -0.0933 -0.1530
 7118TIP3   OH242768   3.081   5.249   2.504  0.0470 -0.3695 -0.4140
 7118TIP3    H142769   3.147   5.314   2.481  1.4749 -1.0004  1.6183
 7118TIP3    H242770   3.038   5.284   2.582  1.7668 -2.3571  1.5500
 7119TIP3   OH242771   0.092   0.045  12.108  0.7004  0.2876 -0.2993
 7119TIP3    H142772   0.005   0.054  12.069  0.8546 -1.0913 -1.0193
 7119TIP3    H242773   0.084  -0.028  12.169  0.6889  1.8764  1.6939
 7120TIP3   OH242774   4.767   3.219   0.396  0.2958 -0.0634 -0.1632
 7120TIP3    H142775   4.851   3.239   0.439 -0.0719  0.0766  0.4974
 7120TIP3    H242776   4.760   3.284   0.326  0.2569  0.5830  0.4339
 7121TIP3   OH242777   5.254   3.039   2.896 -0.2527 -0.1376 -0.2419
 7121TIP3    H142778   5.234   3.118   2.947  1.1771 -1.2182  2.1946
 7121TIP3    H242779   5.310   3.070   2.825  0.3230  1.0724  0.6884
 7122TIP3   OH242780   2.361   6.549  16.323  0.1302 -0.2007 -0.1949
 7122TIP3    H142781   2.280   6.534  16.274 -0.8030  1.7244  0.6653
 7122TIP3    H242782   2.344   6.515  16.410  0.4769 -0.3344 -0.1765
 7123TIP3   OH242783   3.302   2.687  10.828 -0.5239  0.4776 -0.0863
 7123TIP3    H142784   3.353   2.606  10.831  0.2717  1.0002  1.4800
 7123TIP3    H242785   3.211   2.658  10.823 -0.2593 -0.5387  0.6997
 7124TIP3   OH242786   0.926   4.439   2.395  0.2378 -0.1079  0.0837
 7124TIP3    H142787   0.845   4.434   2.446 -0.6578  0.6260 -1.2106
 7124TIP3    H242788   0.937   4.351   2.359  0.1224 -0.2631  0.4254
 7125TIP3   OH242789   1.984   3.826  15.696 -0.0820 -0.2721  0.3610
 7125TIP3    H142790   2.078   3.846  15.688 -0.5116  1.3739 -1.8874
 7125TIP3    H242791   1.981   3.741  15.739  2.4635 -0.5371  0.2072
 7126TIP3   OH242792   3.013   3.808   4.439  0.0450  0.9541 -0.7605
 7126TIP3    H142793   3.045   3.736   4.384 -0.7215 -0.6965  0.8528
 7126TIP3    H242794   3.087   3.828   4.496 -0.2908  0.2292 -0.0525
 7127TIP3   OH242795   2.206   0.791  13.227 -0.1282  0.3976  0.3316
 7127TIP3    H142796   2.167   0.877  13.216  1.4368  1.0678 -0.2577
 7127TIP3    H242797   2.148   0.746  13.289 -0.8652  1.9222  0.7991
 7128TIP3   OH242798   4.706   2.723  10.845 -0.4478 -0.3294  0.4446
 7128TIP3    H142799   4.742   2.716  10.934  1.0980 -1.3147 -0.2276
 7128TIP3    H242800   4.745   2.802  10.809  0.2669 -0.8418  0.0724
 7129TIP3   OH242801   2.484   6.185   5.505  0.2732  0.4665  0.4197
 7129TIP3    H142802   2.496   6.222   5.418  0.7095  1.0364  0.7220
 7129TIP3    H242803   2.408   6.231   5.541 -0.4232 -0.3500  0.0334
 7130TIP3   OH242804   4.615   3.626  14.499 -0.7709 -0.0965  0.3236
 7130TIP3    H142805   4.615   3.715  14.463 -0.0540 -0.0516  0.4096
 7130TIP3    H242806   4.559   3.576  14.440 -1.4466  0.4807  0.4576
 7131TIP3   OH242807   2.600   0.593   1.793  0.3334  0.1809 -0.6781
 7131TIP3    H142808   2.613   0.637   1.876  1.4146 -2.4945  0.6842
 7131TIP3    H242809   2.688   0.584   1.756  0.2942 -1.6158 -0.4294
 7132TIP3   OH242810   5.319   5.219   3.500  0.2701 -0.7284  0.0627
 7132TIP3    H142811   5.368   5.173   3.568 -0.2851 -1.2779  0.0952
 7132TIP3    H242812   5.338   5.172   3.419 -2.5257 -2.8827  0.4970
 7133TIP3   OH242813   5.348   6.206   6.346 -0.2978  0.3145 -0.1888
 7133TIP3    H142814   5.313   6.156   6.273 -0.3124  1.7268 -1.1867
 7133TIP3    H242815   5.404   6.272   6.305  1.2919 -0.0909  1.1930
 7134TIP3   OH242816   6.461   6.351  14.262  0.5558 -0.3175  0.4252
 7134TIP3    H142817   6.543   6.380  14.303  0.7748 -2.0968  1.3056
 7134TIP3    H242818   6.485   6.336  14.171  0.8091  0.6536  0.3099
 7135TIP3   OH242819   2.208   3.940   3.772 -0.3593 -0.5330  0.2283
 7135TIP3    H142820   2.273   3.922   3.704  0.1818  0.9584  0.3123
 7135TIP3    H242821   2.223   4.032   3.796 -2.2940 -0.2331  0.4653
 7136TIP3   OH242822   5.050   5.072  12.484 -0.4030  0.2299 -0.1549
 7136TIP3    H142823   5.105   5.128  12.538  0.2844 -1.2063  0.6857
 7136TIP3    H242824   5.105   5.050  12.409 -1.0488  1.4987 -1.0466
 7137TIP3   OH242825   1.982   4.196  16.509 -0.1998  0.5608  0.1008
 7137TIP3    H142826   2.009   4.259  16.576  0.2254  0.9234 -0.4062
 7137TIP3    H242827   2.006   4.111  16.545 -2.7813  0.4535  1.7922
 7138TIP3   OH242828   5.528   1.057  16.757 -0.4754  0.1534  0.8346
 7138TIP3    H142829   5.524   0.971  16.799 -2.7993  0.4916  1.4589
 7138TIP3    H242830   5.621   1.072  16.741  0.1849 -1.5078  2.7220
 7139TIP3   OH242831   4.887   2.379   3.627 -0.4309 -0.2393  0.2502
 7139TIP3    H142832   4.900   2.323   3.703 -0.6737 -1.0220 -0.2685
 7139TIP3    H242833   4.923   2.464   3.653  1.0682 -0.9486  0.6399
 7140TIP3   OH242834   0.602   3.202   5.273 -0.0279 -0.3237  0.0781
 7140TIP3    H142835   0.518   3.160   5.252  0.2377 -1.0233  0.3712
 7140TIP3    H242836   0.593   3.226   5.365 -0.7167  1.5952 -0.4411
 7141TIP3   OH242837   2.103   4.648   0.804 -0.2089  0.2690  0.1305
 7141TIP3    H142838   2.094   4.736   0.840  0.7993  0.4737 -0.0872
 7141TIP3    H242839   2.143   4.661   0.718 -1.8368 -0.2748 -0.7488
 7142TIP3   OH242840   0.328   4.154   3.301 -0.8372  0.7599 -0.3310
 7142TIP3    H142841   0.333   4.240   3.343 -0.8592  1.0452 -0.9017
 7142TIP3    H242842   0.419   4.128   3.287 -0.7740 -0.2672  1.7376
 7143TIP3   OH242843   4.250   4.755  11.303 -0.0855 -0.5778 -0.0778
 7143TIP3    H142844   4.269   4.836  11.255 -0.7989 -0.5703 -0.3559
 7143TIP3    H242845   4.324   4.697  11.283  0.1972 -0.1643 -0.2477
 7144TIP3   OH242846   0.747   4.149  12.718  0.3123  0.4029  0.0070
 7144TIP3    H142847   0.680   4.217  12.709  0.0840  0.3925  1.3327
 7144TIP3    H242848   0.700   4.073  12.754  0.5202 -0.5577 -1.6558
 7145TIP3   OH242849   6.497   6.584  11.992 -0.0331  0.0197  0.1193
 7145TIP3    H142850   6.490   6.537  11.909 -4.1987 -0.0052  0.2628
 7145TIP3    H242851   6.545   6.524  12.050  1.0135 -0.8998 -1.6314
 7146TIP3   OH242852   0.501   0.686  14.165 -0.2318 -0.6945  0.0545
 7146TIP3    H142853   0.575   0.657  14.113  0.8623 -1.1333  1.7900
 7146TIP3    H242854   0.492   0.779  14.144  0.5077 -0.7455 -0.5200
 7147TIP3   OH242855   6.568   6.636  12.502 -0.2155  0.4380 -0.2374
 7147TIP3    H142856   6.581   6.542  12.486 -0.4699  0.0863  1.4248
 7147TIP3    H242857   6.477   6.642  12.531  0.6176  0.7030  2.6343
 7148TIP3   OH242858   5.511   2.256  14.349  0.1209  0.0945  0.4531
 7148TIP3    H142859   5.572   2.204  14.401 -0.0233  0.6806  1.2369
 7148TIP3    H242860   5.460   2.305  14.414 -0.1100  0.8036 -0.2407
 7149TIP3   OH242861   0.584   4.333  11.543 -0.1822  0.2389 -0.0157
 7149TIP3    H142862   0.624   4.415  11.513 -0.7269  0.7210  0.5411
 7149TIP3    H242863   0.490   4.350  11.543 -0.2340  0.1123  1.4692
 7150TIP3   OH242864   5.235   0.487  15.619 -0.0573  0.2488 -0.4734
 7150TIP3    H142865   5.302   0.552  15.600  0.6718  0.6901  2.9176
 7150TIP3    H242866   5.187   0.523  15.694 -1.3481 -1.9261 -0.1696
 7151TIP3   OH242867   0.960   3.603   0.468 -0.3609  0.2080  0.4867
 7151TIP3    H142868   0.906   3.673   0.505  0.3008 -0.3095  2.5872
 7151TIP3    H242869   0.981   3.632   0.380  0.8183  3.2124  1.6335
 7152TIP3   OH242870   2.099   6.570  13.603  0.1054 -0.5015  0.0558
 7152TIP3    H142871   2.005   6.554  13.597 -0.0165  0.7295 -2.6500
 7152TIP3    H242872   2.139   6.493  13.563  0.2539 -0.8421  0.8422
 7153TIP3   OH242873   3.060   2.726  14.736 -0.6451 -0.2108  0.3581
 7153TIP3    H142874   3.047   2.680  14.653  1.5451  0.2052 -0.2866
 7153TIP3    H242875   2.973   2.730  14.776 -1.6480 -0.9422 -1.6365
 7154TIP3   OH242876   6.590   3.861  16.851 -0.0901  0.1483  0.4517
 7154TIP3    H142877   6.678   3.899  16.845  0.0839 -0.3757 -0.6120
 7154TIP3    H242878   6.582   3.808  16.771 -1.7816  1.0707 -0.0297
 7155TIP3   OH242879   0.850   1.922  11.266 -0.1375 -0.9163  0.0117
 7155TIP3    H142880   0.864   1.832  11.237  0.8201 -0.5813 -0.6145
 7155TIP3    H242881   0.788   1.959  11.203 -1.0115 -1.3055  0.6263
 7156TIP3   OH242882   2.442   2.617   3.026 -0.2251  0.2829 -0.0384
 7156TIP3    H142883   2.498   2.567   2.967  0.4369 -0.4952  1.2170
 7156TIP3    H242884   2.362   2.632   2.975  0.1112 -0.8210 -0.9438
 7157TIP3   OH242885   1.911   0.516  17.182 -0.1681  0.2935  0.1928
 7157TIP3    H142886   1.913   0.458  17.106 -0.2135  0.9188 -0.2984
 7157TIP3    H242887   2.003   0.536  17.199 -0.2335  1.6036 -0.8518
 7158TIP3   OH242888   2.197   5.979  11.044 -0.3784  0.4429  0.5721
 7158TIP3    H142889   2.217   5.918  10.974  1.2426  0.5314  0.9171
 7158TIP3    H242890   2.118   6.025  11.015 -1.5473 -1.6658  0.2377
 7159TIP3   OH242891   2.615   1.210  12.904 -0.4905  0.5011  0.3889
 7159TIP3    H142892   2.537   1.166  12.938 -0.4065  0.5880  0.7043
 7159TIP3    H242893   2.642   1.158  12.829  0.2316 -0.6259  1.3841
 7160TIP3   OH242894   3.198   3.586  12.786 -0.3907  0.7808  0.3437
 7160TIP3    H142895   3.112   3.556  12.758 -1.0850  1.8773  1.2167
 7160TIP3    H242896   3.183   3.675  12.818  1.1749  1.2138 -0.0397
 7161TIP3   OH242897   0.424   2.956  16.070 -0.2922 -0.3055  0.4137
 7161TIP3    H142898   0.422   3.038  16.020  0.5933 -0.5665 -0.0736
 7161TIP3    H242899   0.442   2.983  16.160  1.4003 -0.0431  0.0206
 7162TIP3   OH242900   4.891   0.299   4.034  0.2750  0.0909  0.2049
 7162TIP3    H142901   4.810   0.322   3.987 -0.3669 -0.8691  0.7882
 7162TIP3    H242902   4.906   0.372   4.093 -0.6701 -0.1094  0.7098
 7163TIP3   OH242903   3.992   2.068   2.815  0.3446  0.0561 -0.5245
 7163TIP3    H142904   3.941   2.095   2.739  0.0856  0.6212 -0.1569
 7163TIP3    H242905   3.962   1.979   2.834 -0.3269  0.2967 -0.4563
 7164TIP3   OH242906   2.416   2.704   4.908  0.3280 -0.1986 -0.1875
 7164TIP3    H142907   2.412   2.705   5.004 -3.1016  0.3867 -0.1984
 7164TIP3    H242908   2.496   2.657   4.888  0.5469 -1.4302  2.9860
 7165TIP3   OH242909   0.508   3.411   4.934 -0.2817  0.4668 -0.2520
 7165TIP3    H142910   0.493   3.431   5.026 -0.8894  1.7214 -0.5984
 7165TIP3    H242911   0.508   3.496   4.891  1.5559  0.0317 -1.2090
 7166TIP3   OH242912   4.514   0.629   0.570  0.0006  0.0932  0.4243
 7166TIP3    H142913   4.480   0.675   0.647 -2.3313 -0.2547 -0.3370
 7166TIP3    H242914   4.609   0.636   0.579 -0.1653 -0.1953  3.4825
 7167TIP3   OH242915   6.399   1.541   3.995 -0.2462  0.1481 -0.4841
 7167TIP3    H142916   6.315   1.540   4.041 -0.5692  1.4593 -0.9825
 7167TIP3    H242917   6.452   1.475   4.040 -1.6979 -1.0839 -0.5027
 7168TIP3   OH242918   3.322   1.273  11.566  0.3137 -0.1318  0.3746
 7168TIP3    H142919   3.262   1.205  11.534 -0.2293  0.8794 -0.8662
 7168TIP3    H242920   3.268   1.352  11.572  1.2098  0.4821  0.5730
 7169TIP3   OH242921   2.551   6.636   1.209 -0.3797  0.1025  0.1819
 7169TIP3    H142922   2.519   6.716   1.167  2.1595 -0.3268 -2.9418
 7169TIP3    H242923   2.483   6.571   1.190 -1.6952  1.0647  1.3496
 7170TIP3   OH242924   0.670   6.654  16.446 -0.3598 -0.1318 -0.0112
 7170TIP3    H142925   0.601   6.712  16.480  0.2919  0.8291 -0.3019
 7170TIP3    H242926   0.679   6.587  16.513  1.5945  2.2535  2.3378
 7171TIP3   OH242927   3.904   3.171  12.972 -0.2917 -1.0657 -0.1199
 7171TIP3    H142928   3.929   3.138  12.886 -0.3168 -0.9213 -0.1839
 7171TIP3    H242929   3.883   3.263  12.957 -0.6262 -1.1260 -0.0199
 7172TIP3   OH242930   1.917   1.436  13.694  0.2476 -0.5255 -0.1374
 7172TIP3    H142931   1.910   1.388  13.611  1.6091 -1.3873  0.2080
 7172TIP3    H242932   1.953   1.373  13.756 -1.9551 -0.2784  1.5061
 7173TIP3   OH242933   4.013   1.306  15.397  0.2435  0.3907 -0.2607
 7173TIP3    H142934   4.029   1.314  15.491 -0.1669 -1.9015  0.0796
 7173TIP3    H242935   4.099   1.318  15.356  1.5506 -3.4628  0.8778
 7174TIP3   OH242936   0.228   2.665  15.814  0.2448  0.2994 -0.1715
 7174TIP3    H142937   0.223   2.639  15.722  0.2527  0.9908 -0.3741
 7174TIP3    H242938   0.247   2.584  15.861  1.5726  0.1633 -0.9143
 7175TIP3   OH242939   2.608   4.600  13.939  0.1462  0.3256 -0.1564
 7175TIP3    H142940   2.544   4.666  13.965 -0.8237 -0.9034  0.7185
 7175TIP3    H242941   2.556   4.521  13.923  1.4645 -0.8345  0.9922
 7176TIP3   OH242942   6.266   4.641  12.391 -0.8419 -0.0124 -0.0494
 7176TIP3    H142943   6.181   4.661  12.353 -3.3794  0.5513  5.0193
 7176TIP3    H242944   6.249   4.569  12.452  2.7824 -1.1167 -0.0886
 7177TIP3   OH242945   5.697   2.624  13.053  0.1720  0.1623 -0.4246
 7177TIP3    H142946   5.722   2.646  12.964  1.6578  1.6395  0.3023
 7177TIP3    H242947   5.741   2.689  13.107  0.2655 -1.3869  1.4833
 7178TIP3   OH242948   0.841   0.388  14.553  0.1073 -0.1803 -0.3728
 7178TIP3    H142949   0.788   0.432  14.486  1.9595  3.4483  0.3179
 7178TIP3    H242950   0.918   0.356  14.506 -0.4212 -1.2079 -0.5721
 7179TIP3   OH242951   1.489   2.417   5.744 -0.4496  0.5678 -0.3013
 7179TIP3    H142952   1.472   2.505   5.709  2.0457  1.1976 -0.1413
 7179TIP3    H242953   1.437   2.412   5.823 -0.2796  2.1199 -0.0572
 7180TIP3   OH242954   2.272   0.252   0.055  0.5879 -0.0335  0.3829
 7180TIP3    H142955   2.238   0.295   0.134 -1.7215 -0.4731 -0.3017
 7180TIP3    H242956   2.214   0.178   0.042  2.3423 -1.3147 -0.4792
 7181TIP3   OH242957   6.789   1.504   6.601 -0.0062  0.3625 -0.0970
 7181TIP3    H142958   6.855   1.573   6.587  1.5877 -0.9606  0.4969
 7181TIP3    H242959   6.759   1.482   6.513 -0.0781  1.3607 -0.3395
 7182TIP3   OH242960   1.321   5.608   1.212  0.5001  0.0255 -0.0423
 7182TIP3    H142961   1.319   5.516   1.187 -0.5184 -0.3312  1.2557
 7182TIP3    H242962   1.235   5.642   1.186 -0.1319 -0.0665  1.7816
 7183TIP3   OH242963   6.674   5.352   0.376  0.2353 -0.6575  0.1250
 7183TIP3    H142964   6.736   5.409   0.330  0.8784 -0.1913  1.5119
 7183TIP3    H242965   6.642   5.405   0.449 -0.1562 -1.6301  0.6769
 7184TIP3   OH242966   4.821   0.334  14.213 -0.1655  0.2761  0.0777
 7184TIP3    H142967   4.896   0.304  14.162 -0.1323  0.2150  0.1611
 7184TIP3    H242968   4.859   0.373  14.292 -0.2839 -2.7070  1.7352
 7185TIP3   OH242969   3.460   4.990  16.040  0.1996  0.1243  0.0645
 7185TIP3    H142970   3.421   5.039  15.968  1.4884  2.1682  0.6779
 7185TIP3    H242971   3.387   4.968  16.097 -0.5402  0.4338 -0.7442
 7186TIP3   OH242972   3.238   5.788   5.070  0.0532 -0.1554 -0.2220
 7186TIP3    H142973   3.319   5.792   5.122 -0.6143 -0.9503  0.9379
 7186TIP3    H242974   3.230   5.875   5.032 -0.1638  0.9769  2.1983
 7187TIP3   OH242975   4.622   1.882  13.874  0.9047  0.0625 -0.0631
 7187TIP3    H142976   4.557   1.826  13.917  1.2266  0.7497  1.3533
 7187TIP3    H242977   4.705   1.838  13.890  1.2966  1.4065  1.9799
 7188TIP3   OH242978   1.764   5.292  11.379 -0.5573 -0.4039 -0.0341
 7188TIP3    H142979   1.821   5.230  11.425 -0.2001  0.7500  1.1112
 7188TIP3    H242980   1.716   5.337  11.448 -0.1090  1.2631 -0.7681
 7189TIP3   OH242981   5.351   4.600  17.113 -0.0123  0.3334 -0.3473
 7189TIP3    H142982   5.335   4.506  17.109 -2.2774  0.6845 -1.2190
 7189TIP3    H242983   5.444   4.608  17.131  0.5144 -2.0698 -1.6040
 7190TIP3   OH242984   5.869   5.476   0.578 -0.2439  0.2906  0.0329
 7190TIP3    H142985   5.920   5.401   0.609 -1.1654 -0.9934 -1.4335
 7190TIP3    H242986   5.910   5.552   0.621  0.0631 -1.1096  2.3834
 7191TIP3   OH242987   3.538   2.772  14.372  0.0091  0.5298 -0.0761
 7191TIP3    H142988   3.506   2.829  14.442 -2.8514  0.0994 -0.9238
 7191TIP3    H242989   3.556   2.689  14.416 -1.0942  0.4658  0.2948
 7192TIP3   OH242990   0.847   5.226   1.158 -0.3345  0.9285 -0.4499
 7192TIP3    H142991   0.868   5.319   1.165 -0.9818  0.9745  2.4023
 7192TIP3    H242992   0.837   5.198   1.249  0.9194 -2.2157 -1.1733
 7193TIP3   OH242993   1.260   1.717   5.200  0.6670  0.3160 -0.0809
 7193TIP3    H142994   1.261   1.772   5.122 -0.9215 -0.5418 -0.7525
 7193TIP3    H242995   1.211   1.767   5.264 -1.0854 -0.3803 -0.8048
 7194TIP3   OH242996   2.179   6.102  15.899 -0.0898  0.3735  0.2660
 7194TIP3    H142997   2.211   6.110  15.989  0.6732  0.9042 -0.0374
 7194TIP3    H242998   2.253   6.066  15.850 -1.3816 -2.7478  0.3447
 7195TIP3   OH242999   3.043   6.792   1.126 -0.2125  0.0161  0.0111
 7195TIP3    H143000   3.040   6.882   1.093 -0.2224  0.4473  1.1310
 7195TIP3    H243001   2.960   6.782   1.174 -0.8554 -1.0688 -1.2743
 7196TIP3   OH243002   4.721   4.538   3.539 -0.5365  0.2299 -0.0836
 7196TIP3    H143003   4.629   4.553   3.559 -0.6309 -0.6388  0.1999
 7196TIP3    H243004   4.741   4.455   3.582  1.3829  2.1716  3.1492
 7197TIP3   OH243005   6.001   3.218   2.630  0.1509 -0.2205  0.0314
 7197TIP3    H143006   5.932   3.166   2.589 -2.6619  2.7281  0.6658
 7197TIP3    H243007   6.010   3.182   2.718 -0.1953 -0.9500 -0.2246
 7198TIP3   OH243008   0.009   6.495   1.912 -0.2187  0.6294 -0.3891
 7198TIP3    H143009  -0.081   6.464   1.900  0.0954 -1.1649  1.3245
 7198TIP3    H243010   0.055   6.419   1.947  1.2313  2.3650  1.6886
 7199TIP3   OH243011   6.556   5.259  11.715 -0.2918  0.0168  0.6235
 7199TIP3    H143012   6.489   5.231  11.778  0.9701 -0.9739  1.5721
 7199TIP3    H243013   6.612   5.318  11.765 -1.0267  1.7281 -0.4692
 7200TIP3   OH243014   2.818   2.794  16.866  0.0674 -0.1146  0.5066
 7200TIP3    H143015   2.822   2.889  16.852 -3.2218  0.0438 -0.2595
 7200TIP3    H243016   2.903   2.761  16.836  1.3289  2.5593  0.8878
 7201TIP3   OH243017   4.685   1.443  14.660  0.1237  0.5103 -0.1274
 7201TIP3    H143018   4.589   1.443  14.669  0.2715  2.3997  2.9786
 7201TIP3    H243019   4.716   1.405  14.742  2.0703  0.3076 -0.9200
 7202TIP3   OH243020   6.533   0.293   3.177  0.5243  0.5236 -0.2720
 7202TIP3    H143021   6.617   0.292   3.223 -0.6200 -0.4288  1.9936
 7202TIP3    H243022   6.543   0.228   3.107  2.0626  1.3848 -0.8872
 7203TIP3   OH243023   6.686   5.602   4.234 -0.8665  0.3813 -0.1081
 7203TIP3    H143024   6.595   5.587   4.261 -1.1197  1.8504 -0.0553
 7203TIP3    H243025   6.695   5.697   4.232  1.2225  0.2846  1.6551
 7204TIP3   OH243026   5.017   4.109   3.360  0.4920 -0.0373 -0.1351
 7204TIP3    H143027   5.060   4.193   3.342  2.9807 -0.5343  2.7167
 7204TIP3    H243028   4.969   4.124   3.442  0.1574 -1.1448 -0.1197
 7205TIP3   OH243029   4.478   3.895   2.145 -0.2788  0.0485 -0.3182
 7205TIP3    H143030   4.456   3.804   2.122 -3.6579  0.2995  1.3633
 7205TIP3    H243031   4.446   3.946   2.071 -1.0094  0.0624  0.0036
 7206TIP3   OH243032   1.721   0.292   0.525  0.7567 -0.2402 -0.1296
 7206TIP3    H143033   1.671   0.214   0.500 -0.7674  0.7418 -0.2309
 7206TIP3    H243034   1.771   0.265   0.602 -1.1394 -0.8257  0.9528
 7207TIP3   OH243035   6.567   0.392   3.963  0.2541 -0.3337  0.3313
 7207TIP3    H143036   6.589   0.471   4.014  1.5878 -0.1401 -0.4806
 7207TIP3    H243037   6.548   0.326   4.029  0.4456  0.3116  1.0608
 7208TIP3   OH243038   6.442   0.256   4.525  0.2939 -0.5524  0.2738
 7208TIP3    H143039   6.395   0.181   4.561  0.1474 -0.6345 -0.0833
 7208TIP3    H243040   6.388   0.284   4.450 -0.1721  0.4946  0.9629
 7209TIP3   OH243041   0.448   5.418  16.531  0.0739  0.4324  0.2709
 7209TIP3    H143042   0.468   5.392  16.621 -0.3676 -0.3398  0.1545
 7209TIP3    H243043   0.354   5.435  16.531 -0.4638 -2.1781 -0.6266
 7210TIP3   OH243044   1.077   0.094   1.319  0.0131 -0.1022 -0.1202
 7210TIP3    H143045   1.127   0.026   1.363 -0.3354 -1.4023 -1.6449
 7210TIP3    H243046   1.089   0.077   1.226 -1.3359  0.9860 -0.5361
 7211TIP3   OH243047   5.027   5.695  14.871 -0.0165  0.1493 -0.3603
 7211TIP3    H143048   5.107   5.689  14.819 -0.0581  1.3198 -0.5782
 7211TIP3    H243049   5.057   5.683  14.962  0.2667 -0.3093 -0.5080
 7212TIP3   OH243050   4.612   4.191  11.910  0.3480 -0.2036  0.6761
 7212TIP3    H143051   4.704   4.165  11.906  0.1187 -0.8760 -1.5376
 7212TIP3    H243052   4.565   4.117  11.873 -1.1008  0.1656  1.7082
 7213TIP3   OH243053   0.182   6.226   4.586 -0.0693  0.2793  0.2324
 7213TIP3    H143054   0.213   6.136   4.571 -1.7271 -0.3396  0.2222
 7213TIP3    H243055   0.198   6.242   4.679  1.1190  0.3492  0.0270
 7214TIP3   OH243056   4.087   2.380  14.842  0.2525 -1.0128  0.7874
 7214TIP3    H143057   3.996   2.368  14.814  0.0790 -3.7655  2.1914
 7214TIP3    H243058   4.100   2.475  14.841 -1.8698 -0.6343 -1.6531
 7215TIP3   OH243059   1.483   3.833  16.498  0.1608 -0.3244 -0.4099
 7215TIP3    H143060   1.396   3.823  16.537 -0.2201 -0.8849 -1.3510
 7215TIP3    H243061   1.534   3.879  16.564 -1.8202  3.3551 -1.1679
 7216TIP3   OH243062   0.093   6.601   4.088  0.4999 -0.4296  0.2829
 7216TIP3    H143063   0.056   6.559   4.165 -0.8443  0.9459  0.4442
 7216TIP3    H243064   0.028   6.586   4.019  1.0675 -0.5193 -0.2407
 7217TIP3   OH243065   0.253   2.675   0.818  0.5676 -0.0256  0.0029
 7217TIP3    H143066   0.202   2.665   0.738 -0.0318 -0.2831  0.4131
 7217TIP3    H243067   0.340   2.641   0.795  0.3506 -0.2717 -0.4775
 7218TIP3   OH243068   5.383   3.254  13.471  0.1084  0.5532  0.1565
 7218TIP3    H143069   5.465   3.243  13.424 -0.2418  0.0559 -0.3440
 7218TIP3    H243070   5.342   3.167  13.470 -0.9456  1.0418 -0.5807
 7219TIP3   OH243071   6.602   4.741  16.317 -0.4403  0.6138  0.1125
 7219TIP3    H143072   6.584   4.803  16.247  0.7794 -1.1510 -1.8904
 7219TIP3    H243073   6.698   4.734  16.320 -0.5143 -0.4154  0.9795
 7220TIP3   OH243074   3.900   1.816   6.857  0.1354 -0.0625  0.1385
 7220TIP3    H143075   3.871   1.731   6.822  0.7038 -0.7933  1.3824
 7220TIP3    H243076   3.976   1.795   6.911  0.5167  1.3036  0.1656
 7221TIP3   OH243077   5.303   4.996  17.164  0.8098 -0.4065  0.3354
 7221TIP3    H143078   5.397   4.978  17.171  0.6901 -0.8586  0.8053
 7221TIP3    H243079   5.273   5.002  17.255  0.9193  2.6544  0.2892
 7222TIP3   OH243080   0.040   6.646  13.789  0.2015  0.5833  0.1033
 7222TIP3    H143081   0.005   6.558  13.803  1.7597 -0.1954 -0.6155
 7222TIP3    H243082  -0.005   6.678  13.711 -0.1845  0.3276  0.2177
 7223TIP3   OH243083   1.071   5.819   5.603 -0.6195 -0.0500 -0.0008
 7223TIP3    H143084   0.983   5.834   5.637  0.0647 -0.3520  1.9809
 7223TIP3    H243085   1.066   5.847   5.511 -2.2310  1.9365  0.6127
 7224TIP3   OH243086   2.267   0.657  16.356  0.2340  0.5318 -0.4944
 7224TIP3    H143087   2.224   0.738  16.383  0.0327  0.2820 -0.0597
 7224TIP3    H243088   2.200   0.611  16.304  0.4165  0.7321 -0.9150
 7225TIP3   OH243089   6.238   3.725  10.587  0.3083  0.0689  0.1525
 7225TIP3    H143090   6.313   3.675  10.619  0.3563 -0.0644 -0.1572
 7225TIP3    H243091   6.182   3.736  10.663  0.1130 -0.7882  0.1441
 7226TIP3   OH243092   6.559   0.175   1.690  0.3971  0.1519 -0.0975
 7226TIP3    H143093   6.531   0.267   1.691  0.0981  0.0654  1.1374
 7226TIP3    H243094   6.506   0.134   1.622  1.8593  1.2622 -2.0022
 7227TIP3   OH243095   2.735   5.503   1.272  0.0278 -0.2963 -0.0415
 7227TIP3    H143096   2.787   5.583   1.269 -2.4555  1.4427 -3.2579
 7227TIP3    H243097   2.694   5.503   1.359  0.3794  1.7480  0.1640
 7228TIP3   OH243098   4.578   6.450  16.333  0.0404  0.1565  0.4095
 7228TIP3    H143099   4.665   6.478  16.361  0.6992 -0.3412 -1.0481
 7228TIP3    H243100   4.543   6.403  16.409 -0.4716  3.3744  2.3409
 7229TIP3   OH243101   4.882   3.605  13.049  0.1345  0.1534  0.5569
 7229TIP3    H143102   4.973   3.594  13.078 -0.1960 -2.4836  0.8907
 7229TIP3    H243103   4.874   3.548  12.972 -0.8434  1.5959 -0.4476
 7230TIP3   OH243104   6.237   2.302  11.145 -0.2585  0.2773  1.0513
 7230TIP3    H143105   6.265   2.346  11.225 -1.1597 -0.3583  1.7415
 7230TIP3    H243106   6.209   2.373  11.087 -2.7195  0.6689  2.5461
 7231TIP3   OH243107   5.070   6.138  14.279 -0.4409 -0.1767  0.4477
 7231TIP3    H143108   5.152   6.182  14.258 -0.6673 -0.7359 -1.8439
 7231TIP3    H243109   5.080   6.111  14.371  1.3990  0.8773  0.6048
 7232TIP3   OH243110   6.025   5.954   5.342 -0.3927  0.0173 -0.1076
 7232TIP3    H143111   6.100   5.987   5.391  0.6825 -0.7925 -1.1436
 7232TIP3    H243112   5.994   5.878   5.393 -0.7270  0.5503  0.4928
 7233TIP3   OH243113   5.511   2.260  16.716 -0.0859 -0.2299 -0.0724
 7233TIP3    H143114   5.420   2.239  16.696 -0.4683  1.4066 -0.2406
 7233TIP3    H243115   5.557   2.253  16.632 -0.6851  1.7820 -0.6240
 7234TIP3   OH243116   3.558   1.851  14.550 -0.7435 -0.6151 -0.1574
 7234TIP3    H143117   3.610   1.862  14.629 -0.6212  0.2721 -0.3537
 7234TIP3    H243118   3.529   1.760  14.553  3.6359 -2.3474 -1.7057
 7235TIP3   OH243119   3.813   3.366   3.861  0.3252 -0.2782 -0.3833
 7235TIP3    H143120   3.900   3.379   3.898 -0.1067  2.8162 -0.1948
 7235TIP3    H243121   3.827   3.367   3.766  0.5613 -0.5486 -0.3540
 7236TIP3   OH243122   2.825   4.916  11.432 -1.0660 -0.2164 -0.1042
 7236TIP3    H143123   2.909   4.960  11.421 -0.8253 -0.1271  1.8594
 7236TIP3    H243124   2.760   4.986  11.429 -0.8490  0.0382  0.9643
 7237TIP3   OH243125   0.898   4.641   4.930 -0.1012  0.5510  0.2518
 7237TIP3    H143126   0.810   4.604   4.934  0.4284 -0.6301  1.7346
 7237TIP3    H243127   0.931   4.612   4.845 -0.7571  0.0834  0.1437
 7238TIP3   OH243128   1.282   0.526  15.914 -0.4523  0.3569  0.0122
 7238TIP3    H143129   1.316   0.447  15.872 -0.5504  1.0454 -1.4248
 7238TIP3    H243130   1.356   0.559  15.965 -0.0883 -0.0925 -0.2150
 7239TIP3   OH243131   0.169   5.732  15.000  0.0612  0.0818  0.5505
 7239TIP3    H143132   0.136   5.810  14.955 -1.8629 -0.1515  1.4461
 7239TIP3    H243133   0.263   5.747  15.010 -0.1556  1.9465  0.0616
 7240TIP3   OH243134   3.640   0.226   0.815 -0.4274  0.0825  0.2322
 7240TIP3    H143135   3.681   0.169   0.880 -1.3864 -2.2287 -1.0537
 7240TIP3    H243136   3.708   0.241   0.750 -0.8415 -1.8140 -0.7167
 7241TIP3   OH243137   4.155   1.310   6.349  0.3299  0.0858  0.3097
 7241TIP3    H143138   4.075   1.357   6.373  1.3227  1.1027  1.8156
 7241TIP3    H243139   4.226   1.372   6.368  1.4605 -0.5147 -1.6658
 7242TIP3   OH243140   0.294   5.169   1.000  0.1515  0.2063  0.0852
 7242TIP3    H143141   0.257   5.257   0.995  1.4936  0.8108  0.5181
 7242TIP3    H243142   0.385   5.182   1.024  0.3010 -1.3251  0.4586
 7243TIP3   OH243143   6.722   6.186  16.177 -0.3298 -0.2742 -0.3481
 7243TIP3    H143144   6.688   6.229  16.098  1.5920  1.0681 -0.4914
 7243TIP3    H243145   6.681   6.099  16.175 -1.0986  0.0642 -2.2883
 7244TIP3   OH243146   5.585   5.501   2.461  0.4815  0.0825 -0.0758
 7244TIP3    H143147   5.609   5.505   2.554 -1.6786 -2.3687  0.7206
 7244TIP3    H243148   5.523   5.573   2.449 -1.5432 -1.3082  1.2822
 7245TIP3   OH243149   3.475   1.706   5.905 -0.8434 -0.8399  0.6752
 7245TIP3    H143150   3.571   1.715   5.900 -0.9684  0.2707 -0.1453
 7245TIP3    H243151   3.459   1.613   5.891  0.2013 -1.3559  2.5175
 7246TIP3   OH243152   2.116   3.295   0.661 -0.2081  0.1572 -0.4544
 7246TIP3    H143153   2.081   3.259   0.579 -0.1720  0.9098 -0.8113
 7246TIP3    H243154   2.041   3.338   0.702 -0.3495 -0.6518  0.1737
 7247TIP3   OH243155   2.875   1.474   3.089 -0.7282 -0.1216 -0.1581
 7247TIP3    H143156   2.837   1.389   3.069  0.1733 -0.4198 -0.6582
 7247TIP3    H243157   2.833   1.500   3.172 -0.8305 -1.1621  0.1324
 7248TIP3   OH243158   2.057   6.337   0.177  0.4393 -0.2583  0.4344
 7248TIP3    H143159   2.102   6.369   0.099  0.5628  0.1702  0.6797
 7248TIP3    H243160   2.084   6.396   0.247  2.3789 -2.1032  1.3899
 7249TIP3   OH243161   1.784   1.260  12.438  0.3466  0.0753  0.1426
 7249TIP3    H143162   1.714   1.283  12.500  1.6311  2.8704  0.7131
 7249TIP3    H243163   1.860   1.241  12.493  1.1480  1.3225 -0.4802
 7250TIP3   OH243164   2.818   1.100  16.251 -0.3540  0.2830  0.1104
 7250TIP3    H143165   2.783   1.011  16.248 -0.6502  0.3308  1.4429
 7250TIP3    H243166   2.898   1.092  16.304  0.8010  0.4627 -1.5317
 7251TIP3   OH243167   3.476   5.357   1.924 -0.5459 -0.1844 -0.3007
 7251TIP3    H143168   3.387   5.369   1.893 -1.3973 -0.5833  1.7811
 7251TIP3    H243169   3.482   5.414   2.001  0.4047 -1.4084  0.5888
 7252TIP3   OH243170   3.299   5.225   0.228  0.3964  0.1786  0.0579
 7252TIP3    H143171   3.388   5.253   0.208  1.3890 -1.5403  1.7973
 7252TIP3    H243172   3.244   5.274   0.165  2.7932 -1.3068 -3.5273
 7253TIP3   OH243173   0.156   3.741   4.150  0.2831 -0.1748 -0.1839
 7253TIP3    H143174   0.142   3.825   4.106 -1.2611  0.9431  2.2271
 7253TIP3    H243175   0.092   3.682   4.109  0.9168 -0.0215 -1.4312
 7254TIP3   OH243176   2.185   0.257   1.685  0.4297  0.0569 -0.2304
 7254TIP3    H143177   2.203   0.163   1.680  0.8436  0.1717 -1.2676
 7254TIP3    H243178   2.224   0.292   1.605  2.1722  1.4257  1.1597
 7255TIP3   OH243179   2.588   5.026  15.699  0.0737 -0.2235  0.0377
 7255TIP3    H143180   2.560   5.002  15.787  1.0368  0.5397  0.5799
 7255TIP3    H243181   2.588   5.122  15.698  0.5510 -0.2148 -0.6250
 7256TIP3   OH243182   5.689   1.395   0.594 -0.4088  0.2242  0.4225
 7256TIP3    H143183   5.631   1.422   0.666  0.5280 -0.5762  1.5022
 7256TIP3    H243184   5.742   1.473   0.576 -0.0818  0.1840  1.1721
 7257TIP3   OH243185   4.620   3.503   0.899 -0.1270 -0.2765  0.1022
 7257TIP3    H143186   4.597   3.594   0.880 -0.7775 -0.5306 -0.3709
 7257TIP3    H243187   4.714   3.505   0.914 -0.1189  0.4619  0.0109
 7258TIP3   OH243188   1.155   3.976  14.565  0.0297  0.3215 -0.6633
 7258TIP3    H143189   1.110   3.941  14.642 -0.6204  1.9847 -0.2399
 7258TIP3    H243190   1.243   3.996  14.595  0.3126 -0.6391 -0.8294
 7259TIP3   OH243191   6.390   5.856  13.295  0.2470  0.5082 -0.1151
 7259TIP3    H143192   6.450   5.866  13.221  0.2335 -0.4369 -0.2625
 7259TIP3    H243193   6.393   5.941  13.340  1.5867  0.5175 -0.1944
 7260TIP3   OH243194   3.995   0.305  14.930  0.0691 -0.0934 -0.5755
 7260TIP3    H143195   4.013   0.343  15.016  0.2842 -1.4206 -0.0036
 7260TIP3    H243196   3.951   0.375  14.881  2.4532  1.6444 -0.3882
 7261TIP3   OH243197   3.816   5.058   3.132  0.1983  0.0526 -0.2168
 7261TIP3    H143198   3.865   5.098   3.060 -0.0955  0.8331  0.0028
 7261TIP3    H243199   3.795   5.131   3.190  1.4630 -0.7345  1.3057
 7262TIP3   OH243200   6.670   0.036  11.934  0.5200 -0.1506 -0.3024
 7262TIP3    H143201   6.619  -0.042  11.956  0.2303  0.1108 -0.0372
 7262TIP3    H243202   6.637   0.062  11.848  1.0421 -0.6664 -0.6673
 7263TIP3   OH243203   3.450   1.769  16.734 -0.1779  0.0927  0.4870
 7263TIP3    H143204   3.493   1.832  16.793  1.1267 -0.6439  0.3546
 7263TIP3    H243205   3.356   1.780  16.753 -0.0269  2.2509  0.2722
 7264TIP3   OH243206   0.928   1.768   6.211 -0.3998 -0.0815 -0.4740
 7264TIP3    H143207   0.894   1.690   6.255 -0.6002 -0.0874 -0.6360
 7264TIP3    H243208   1.017   1.778   6.244 -0.2288 -0.6177 -0.7694
 7265TIP3   OH243209   1.056   4.763  14.270 -0.1110 -0.2128  0.4164
 7265TIP3    H143210   1.037   4.696  14.204  0.0857 -1.8901  2.0109
 7265TIP3    H243211   1.066   4.844  14.219  0.0427 -1.4460 -1.6058
 7266TIP3   OH243212   2.678   1.738   3.738  0.7169  0.0898 -0.2918
 7266TIP3    H143213   2.688   1.833   3.737  0.1159  0.1550 -0.8339
 7266TIP3    H243214   2.604   1.722   3.796  1.4598 -0.1277  0.6232
 7267TIP3   OH243215   4.041   4.544   6.501 -0.0755 -0.8222 -0.3047
 7267TIP3    H143216   3.985   4.618   6.478 -0.2168 -0.7637  0.2157
 7267TIP3    H243217   3.983   4.469   6.501  0.3117 -1.1752 -2.1165
 7268TIP3   OH243218   5.089   2.439   0.789 -0.1501  0.1571 -0.3209
 7268TIP3    H143219   5.096   2.472   0.878 -2.0539 -1.1916  0.3898
 7268TIP3    H243220   5.014   2.485   0.751 -0.9365 -1.0802 -0.3329
 7269TIP3   OH243221   2.388   1.565   2.086 -0.1191  0.4134 -0.5391
 7269TIP3    H143222   2.351   1.514   2.014 -1.5992  1.6380 -0.7039
 7269TIP3    H243223   2.363   1.518   2.165  0.6881 -0.4345 -0.7865
 7270TIP3   OH243224   4.786   3.896  10.912  0.5194  0.6451 -0.0107
 7270TIP3    H143225   4.766   3.803  10.906 -2.8909  1.2631 -0.7173
 7270TIP3    H243226   4.878   3.903  10.888  0.2766 -2.3147 -2.3507
 7271TIP3   OH243227   0.044   4.247   4.062  0.6759  0.3694  0.2395
 7271TIP3    H143228  -0.030   4.227   4.120  0.7843  0.0820  0.2782
 7271TIP3    H243229   0.122   4.225   4.113  0.7578 -0.4259 -0.2149
 7272TIP3   OH243230   1.181   1.663  16.775  0.4999  0.0134  0.0603
 7272TIP3    H143231   1.170   1.660  16.680  0.3253 -2.0097  0.0864
 7272TIP3    H243232   1.269   1.629  16.790  0.5038  0.2669  0.6286
 7273TIP3   OH243233   5.975   5.415  12.089  0.0680  0.3017  0.5530
 7273TIP3    H143234   6.060   5.415  12.044 -0.0540  3.1008  0.1379
 7273TIP3    H243235   5.915   5.375  12.026  0.1404  3.0412 -1.4398
 7274TIP3   OH243236   6.380   1.947   1.347 -0.6219  0.1927 -0.3637
 7274TIP3    H143237   6.293   1.924   1.317 -0.7114  1.1012 -0.8288
 7274TIP3    H243238   6.384   1.914   1.437 -2.0513  1.5724  0.2574
 7275TIP3   OH243239   0.622   6.676   0.693 -0.2709  0.5279 -0.2340
 7275TIP3    H143240   0.566   6.662   0.769 -0.8049  0.6780 -0.5916
 7275TIP3    H243241   0.691   6.610   0.701 -0.6599  0.1560  0.0695
 7276TIP3   OH243242   4.848   3.000  10.740 -0.2340  0.6177 -0.0789
 7276TIP3    H143243   4.940   3.026  10.752 -0.1192  0.0477  0.2999
 7276TIP3    H243244   4.817   3.056  10.669  0.3658  0.9127 -0.1192
 7277TIP3   OH243245   5.077   4.594  12.489 -0.5630 -0.7936 -0.0373
 7277TIP3    H143246   5.062   4.641  12.571 -3.0150 -0.6836 -0.4590
 7277TIP3    H243247   5.043   4.506  12.505 -0.4081 -0.9825 -0.7092
 7278TIP3   OH243248   5.994   2.072  14.136  0.2316  0.0089  0.1062
 7278TIP3    H143249   5.922   2.015  14.109  0.6512 -0.5091  0.0692
 7278TIP3    H243250   5.981   2.152  14.085 -0.8094  0.2486  0.7476
 7279TIP3   OH243251   2.108   3.671   1.719  0.0296  0.4918  0.1383
 7279TIP3    H143252   2.057   3.600   1.757 -1.5267  0.0520 -2.5096
 7279TIP3    H243253   2.195   3.634   1.704 -0.7785 -0.9633 -1.2764
 7280TIP3   OH243254   0.728   0.708   3.863  0.1917 -0.6356 -0.2936
 7280TIP3    H143255   0.764   0.649   3.929  0.6696 -0.2512 -0.2055
 7280TIP3    H243256   0.719   0.653   3.785  3.7376 -0.1436 -1.2468
 7281TIP3   OH243257   4.283   2.169   1.108  0.8922 -0.4859  1.0155
 7281TIP3    H143258   4.233   2.120   1.043  1.6018 -0.0995  0.1619
 7281TIP3    H243259   4.293   2.256   1.070  0.7472 -0.0486  1.9468
 7282TIP3   OH243260   1.490   5.918  14.281  0.0792 -0.3763 -0.1633
 7282TIP3    H143261   1.579   5.905  14.313 -0.2021  1.6546  1.6517
 7282TIP3    H243262   1.495   5.894  14.188  2.6503  0.2213 -0.2721
 7283TIP3   OH243263   1.689   5.796   5.118  0.1507  0.3622  0.1962
 7283TIP3    H143264   1.655   5.754   5.039 -2.1079  0.4266  1.0578
 7283TIP3    H243265   1.614   5.797   5.178  1.1620  2.3439  1.5141
 7284TIP3   OH243266   2.940   2.482   3.454 -0.1869  0.0047 -0.5636
 7284TIP3    H143267   2.993   2.552   3.417 -0.3329  0.2200 -0.3689
 7284TIP3    H243268   2.853   2.520   3.464 -0.4318 -0.4129 -1.0753
 7285TIP3   OH243269   1.111   5.697   3.525  0.4256 -0.3189  0.4119
 7285TIP3    H143270   1.111   5.601   3.514  0.6386 -0.1954 -0.8322
 7285TIP3    H243271   1.186   5.726   3.472 -0.3268  0.6327 -0.1427
 7286TIP3   OH243272   1.117   6.228  13.344 -0.4612  0.0314  0.0638
 7286TIP3    H143273   1.163   6.301  13.384 -0.1893 -0.6107  0.9459
 7286TIP3    H243274   1.150   6.225  13.254  0.0681  0.5354  0.2385
 7287TIP3   OH243275   6.227   5.536   5.309  0.1899  1.0181 -0.7612
 7287TIP3    H143276   6.244   5.600   5.241  2.0688 -1.8160 -3.2228
 7287TIP3    H243277   6.312   5.521   5.350 -0.7444  2.0273  1.7558
 7288TIP3   OH243278   0.468   2.599  11.487  0.4091  0.0298  0.2968
 7288TIP3    H143279   0.446   2.531  11.424  1.3144  0.2939 -0.3233
 7288TIP3    H243280   0.457   2.557  11.572  1.2158 -0.9829 -0.0827
 7289TIP3   OH243281   3.537   5.504  16.440  0.5220 -0.5288  0.1664
 7289TIP3    H143282   3.485   5.461  16.508  1.7449 -1.2011  0.7093
 7289TIP3    H243283   3.556   5.435  16.377  0.2276 -0.1348 -0.3661
 7290TIP3   OH243284   4.672   2.491   0.526 -0.9241 -0.1928 -0.1215
 7290TIP3    H143285   4.725   2.458   0.453 -1.0843  1.0328 -0.8237
 7290TIP3    H243286   4.618   2.560   0.486 -2.7459 -1.0960  0.6422
 7291TIP3   OH243287   3.939   5.717  15.704 -0.1623  0.4537  0.2947
 7291TIP3    H143288   3.891   5.683  15.780 -2.5696  0.8460 -0.9588
 7291TIP3    H243289   3.932   5.812  15.712  0.9289  0.5361  0.3755
 7292TIP3   OH243290   6.086   1.189   5.985  0.2043  0.4410  0.1812
 7292TIP3    H143291   6.119   1.123   6.046  1.0061  0.9951  0.3729
 7292TIP3    H243292   6.001   1.214   6.020  0.2531  0.0876  0.5564
 7293TIP3   OH243293   0.797   5.512  11.462  0.0374 -0.0730 -0.1889
 7293TIP3    H143294   0.826   5.500  11.372 -0.4263 -3.4183 -0.0308
 7293TIP3    H243295   0.707   5.546  11.454  0.8366  2.0352 -0.8485
 7294TIP3   OH243296   3.072   1.439   1.392 -0.4828 -0.0175  0.5501
 7294TIP3    H143297   3.062   1.436   1.297  0.8327 -2.5139  0.3979
 7294TIP3    H243298   3.020   1.515   1.420 -0.0491  1.4145 -2.2269
 7295TIP3   OH243299   2.181   5.525  15.079  0.1842 -0.2979  0.3586
 7295TIP3    H143300   2.147   5.438  15.097 -0.5907 -0.2756 -0.8830
 7295TIP3    H243301   2.183   5.569  15.164 -1.9079 -0.6519  0.6278
 7296TIP3   OH243302   1.776   5.905   5.768  0.3183 -0.1293  0.0569
 7296TIP3    H143303   1.687   5.940   5.778 -1.0979 -2.1804 -3.3582
 7296TIP3    H243304   1.799   5.873   5.855 -0.7232  3.5243  1.8881
 7297TIP3   OH243305   4.367   3.071   5.350  0.6030  0.3228 -0.0673
 7297TIP3    H143306   4.448   3.022   5.340  1.4444  1.8200 -0.9638
 7297TIP3    H243307   4.316   3.020   5.413  2.3405 -0.5014  0.7476
 7298TIP3   OH243308   1.970   5.879  16.720  0.0729  0.2252 -0.2370
 7298TIP3    H143309   2.022   5.928  16.657 -0.5977  0.3251 -0.7222
 7298TIP3    H243310   1.973   5.788  16.688  0.5983  0.0952  0.1764
 7299TIP3   OH243311   2.307   0.394  16.599  0.0098 -0.1323  0.5131
 7299TIP3    H143312   2.298   0.455  16.672  2.4703 -0.3727  1.1312
 7299TIP3    H243313   2.401   0.375  16.596 -0.5230 -3.0895 -0.3348
 7300TIP3   OH243314   5.309   0.191  12.389  0.3084 -0.7604  0.2457
 7300TIP3    H143315   5.295   0.249  12.314 -1.7697 -2.2381 -0.5840
 7300TIP3    H243316   5.392   0.147  12.371  0.5786 -0.0064 -0.4120
 7301TIP3   OH243317   3.950   6.139  16.524 -0.2143  0.0091  0.1736
 7301TIP3    H143318   3.866   6.095  16.535  0.6420 -1.6160  0.6025
 7301TIP3    H243319   4.010   6.070  16.497  1.3978  0.7188  1.6941
 7302TIP3   OH243320   2.495   6.417   0.143 -0.2936  0.4184  0.4949
 7302TIP3    H143321   2.443   6.357   0.197 -0.6887 -0.7045 -1.0667
 7302TIP3    H243322   2.459   6.407   0.055 -0.0080  2.5906  0.0812
 7303TIP3   OH243323   3.812   1.166  11.725  0.0840  0.2648  0.4117
 7303TIP3    H143324   3.852   1.100  11.782 -0.3683 -1.2321 -0.9351
 7303TIP3    H243325   3.718   1.160  11.744 -0.0265  0.0476 -0.2006
 7304TIP3   OH243326   6.450   3.173   5.982 -0.5050 -0.2269 -0.3879
 7304TIP3    H143327   6.516   3.240   6.000 -1.1873  1.1285 -2.4841
 7304TIP3    H243328   6.500   3.093   5.969  0.4021  0.0029  1.4256
 7305TIP3   OH243329   1.844   1.512   5.285 -0.3306 -0.0226 -0.2484
 7305TIP3    H143330   1.845   1.568   5.207 -0.0473  2.3782  1.3495
 7305TIP3    H243331   1.927   1.531   5.328 -0.8017 -0.7218  1.0042
 7306TIP3   OH243332   2.779   6.615   2.095  0.1038 -1.1128 -0.7580
 7306TIP3    H143333   2.719   6.564   2.040 -0.8337  0.0625 -0.8656
 7306TIP3    H243334   2.804   6.555   2.166 -1.2891 -1.5924 -0.6444
 7307TIP3   OH243335   2.896   5.893  11.708 -0.3859 -0.6543 -0.5043
 7307TIP3    H143336   2.821   5.943  11.741  0.1720  0.4055 -0.8138
 7307TIP3    H243337   2.892   5.903  11.613  0.3324 -0.3114 -0.5035
 7308TIP3   OH243338   6.239   3.476  12.405  0.3770 -0.7611  0.1113
 7308TIP3    H143339   6.230   3.564  12.440 -0.0103 -0.8504  0.2417
 7308TIP3    H243340   6.332   3.468  12.384  0.0015  0.6186 -2.4330
 7309TIP3   OH243341   5.879   4.441  11.761  0.0371  0.2378 -0.4537
 7309TIP3    H143342   5.840   4.499  11.695 -0.4582  1.3686  0.7902
 7309TIP3    H243343   5.897   4.360  11.714 -1.1440  0.6993 -1.7676
 7310TIP3   OH243344   1.626   3.847   2.942  0.4985  0.4692  0.1869
 7310TIP3    H143345   1.655   3.841   3.033  1.9510 -1.7159 -0.3727
 7310TIP3    H243346   1.684   3.911   2.902  1.7165 -0.6270  0.1533
 7311TIP3   OH243347   2.179   6.367  17.148 -0.3480 -0.3504  0.1740
 7311TIP3    H143348   2.143   6.453  17.128 -0.9033 -0.3281  1.1726
 7311TIP3    H243349   2.258   6.361  17.095 -0.2379  0.8208  0.1709
 7312TIP3   OH243350   5.721   2.719   4.886  0.1758  0.0805  0.2704
 7312TIP3    H143351   5.791   2.773   4.922  0.5358  0.4932 -0.9932
 7312TIP3    H243352   5.745   2.629   4.909  2.1200  0.0275 -1.6477
 7313TIP3   OH243353   3.387   2.266   2.667 -0.0709  0.1956  0.1520
 7313TIP3    H143354   3.330   2.317   2.609 -0.1807 -0.8637 -0.7216
 7313TIP3    H243355   3.445   2.330   2.707 -1.9740  1.3461  1.2111
 7314TIP3   OH243356   6.378   2.731  13.601 -0.1115  0.3257  0.8230
 7314TIP3    H143357   6.435   2.798  13.638  1.0951  0.9657 -1.9582
 7314TIP3    H243358   6.431   2.651  13.605  1.1013  0.9161 -1.7414
 7315TIP3   OH243359   6.705   0.831  16.878 -0.3905  0.4026 -0.1321
 7315TIP3    H143360   6.759   0.910  16.874  0.0800  0.0655 -0.5776
 7315TIP3    H243361   6.756   0.769  16.930 -0.9404  0.5185  0.5689
 7316TIP3   OH243362   4.096   4.197   5.613  0.1705  0.2940 -0.6908
 7316TIP3    H143363   4.072   4.220   5.702  4.2285  0.0550  0.6552
 7316TIP3    H243364   4.044   4.119   5.593  0.1640 -0.4686  2.0011
 7317TIP3   OH243365   1.672   1.545  15.356  0.1280 -0.4507 -0.0074
 7317TIP3    H143366   1.695   1.561  15.447 -1.9325 -0.1759  0.5240
 7317TIP3    H243367   1.667   1.633  15.317  0.1881 -0.5170 -0.1647
 7318TIP3   OH243368   0.519   3.383  12.363  0.0464  0.4734  0.2926
 7318TIP3    H143369   0.431   3.348  12.375  0.2779 -0.9764 -1.6859
 7318TIP3    H243370   0.552   3.339  12.284  2.0158  2.0161  0.1622
 7319TIP3   OH243371   1.704   2.271   4.882 -0.1278 -0.1936  0.1497
 7319TIP3    H143372   1.755   2.195   4.856  0.9166  0.0853  1.3116
 7319TIP3    H243373   1.640   2.282   4.811 -1.2945 -3.0028  0.6329
 7320TIP3   OH243374   6.446   5.062  15.828 -0.0415 -0.2009 -0.0881
 7320TIP3    H143375   6.399   5.001  15.885 -1.6791  1.8031  0.8556
 7320TIP3    H243376   6.508   5.008  15.780  1.1158 -2.0728  3.2309
 7321TIP3   OH243377   5.147   4.145   1.978  0.1845  0.1391 -0.1025
 7321TIP3    H143378   5.117   4.176   2.064 -1.2265  0.6849 -0.7484
 7321TIP3    H243379   5.138   4.221   1.921  0.1651 -0.4800 -0.9415
 7322TIP3   OH243380   4.285   0.700   6.699 -0.2995 -0.4925  0.1414
 7322TIP3    H143381   4.295   0.622   6.754  0.9550 -1.8777 -1.9117
 7322TIP3    H243382   4.303   0.774   6.758 -1.4540 -1.7078  2.1242
 7323TIP3   OH243383   5.004   5.386  15.210  0.2712 -0.3141 -0.2023
 7323TIP3    H143384   4.953   5.305  15.215  1.3952 -1.1665 -1.5440
 7323TIP3    H243385   5.055   5.388  15.291  0.9605 -1.5082 -0.5750
 7324TIP3   OH243386   3.460   3.586   5.161  0.3941 -0.1124  0.0886
 7324TIP3    H143387   3.390   3.629   5.111  0.6292 -0.1663 -0.2885
 7324TIP3    H243388   3.452   3.624   5.249  0.1642  0.2008 -0.0622
 7325TIP3   OH243389   6.037   3.468   2.245 -0.0749  0.6584  0.4286
 7325TIP3    H143390   6.055   3.562   2.243  0.1780  0.6011  0.0029
 7325TIP3    H243391   5.949   3.462   2.282  0.1143  1.0303  0.9495
 7326TIP3   OH243392   4.254   0.196   3.101 -0.1161 -0.4090 -0.8888
 7326TIP3    H143393   4.209   0.278   3.083  0.9338  0.3162 -0.2870
 7326TIP3    H243394   4.204   0.130   3.052 -1.6249  0.4059 -0.4961
 7327TIP3   OH243395   6.564   1.755  13.238  0.7791 -0.0009  0.5075
 7327TIP3    H143396   6.606   1.740  13.323  2.9256  2.6601  0.0466
 7327TIP3    H243397   6.531   1.844  13.242  0.6075  0.0664 -1.3145
 7328TIP3   OH243398   5.844   2.751   1.646  0.3263 -0.2327 -0.3554
 7328TIP3    H143399   5.922   2.751   1.702  0.4304 -0.3439 -0.4998
 7328TIP3    H243400   5.862   2.819   1.580 -0.3801  0.8662  0.5535
 7329TIP3   OH243401   4.044   5.306  10.808 -0.0529 -0.2777 -0.3797
 7329TIP3    H143402   4.058   5.300  10.713 -0.3297  0.7351 -0.4893
 7329TIP3    H243403   3.997   5.388  10.820  0.8478  0.0999  0.7318
 7330TIP3   OH243404   1.792   2.973  14.164  0.3748  0.1590  0.6486
 7330TIP3    H143405   1.876   2.957  14.123  1.1069  0.3285  2.0381
 7330TIP3    H243406   1.729   2.925  14.110  1.3372  0.0824 -0.4372
 7331TIP3   OH243407   3.552   2.543  16.875 -0.5917  0.3378  0.2623
 7331TIP3    H143408   3.578   2.634  16.859 -1.3973  0.4090 -0.6728
 7331TIP3    H243409   3.465   2.535  16.837  0.0014 -1.1947 -0.8796
 7332TIP3   OH243410   3.896   5.900  14.589 -0.2093  0.1769  0.1539
 7332TIP3    H143411   3.911   5.985  14.631 -2.5496  0.6730  0.1147
 7332TIP3    H243412   3.886   5.839  14.662 -0.5230  0.3154  0.2268
 7333TIP3   OH243413   1.534   0.540   3.581  0.6355  0.4804  0.2895
 7333TIP3    H143414   1.453   0.548   3.531  1.2498 -1.5694 -1.1637
 7333TIP3    H243415   1.595   0.598   3.536  0.4893  0.6200  0.2678
 7334TIP3   OH243416   4.701   6.180  11.385 -0.3358 -0.2636 -0.0602
 7334TIP3    H143417   4.732   6.126  11.313 -1.2868 -2.6968  1.2349
 7334TIP3    H243418   4.610   6.152  11.398 -0.3067  0.3926  1.8102
 7335TIP3   OH243419   0.315   1.064  13.588  0.3236  0.1029  1.3881
 7335TIP3    H143420   0.347   1.079  13.677  2.3202  0.9955  0.5989
 7335TIP3    H243421   0.372   0.995  13.553 -0.6964 -0.5202  0.9192
 7336TIP3   OH243422   4.790   6.565   4.205  0.0706  0.6170 -0.2326
 7336TIP3    H143423   4.827   6.649   4.232 -0.5398  1.1869 -1.1198
 7336TIP3    H243424   4.716   6.588   4.149 -0.3685 -0.5127 -0.1492
 7337TIP3   OH243425   3.059   4.172  11.672  0.1490  0.1450 -0.3474
 7337TIP3    H143426   3.076   4.090  11.719  0.9127 -0.7036 -2.0302
 7337TIP3    H243427   3.145   4.212  11.661 -0.2829  1.5321  1.0122
 7338TIP3   OH243428   0.621   0.384   6.726 -0.5356 -0.3950  0.1384
 7338TIP3    H143429   0.582   0.320   6.667 -0.4791 -1.4782  1.2351
 7338TIP3    H243430   0.550   0.405   6.788 -0.7152  1.0110 -0.4925
 7339TIP3   OH243431   3.114   1.309   1.114  0.3897  0.3229 -0.4398
 7339TIP3    H143432   3.114   1.228   1.062  0.9390 -0.6534  1.0204
 7339TIP3    H243433   3.051   1.366   1.069 -2.0141 -1.8551 -0.0896
 7340TIP3   OH243434   2.064   6.299  11.015  0.7675 -0.0178  0.2110
 7340TIP3    H143435   2.088   6.313  10.923 -1.5342  0.2059 -0.4114
 7340TIP3    H243436   2.057   6.388  11.051  0.6528 -0.0725  0.3241
 7341TIP3   OH243437   0.899   2.376  15.689  0.5470  0.3583 -0.1568
 7341TIP3    H143438   0.838   2.449  15.676 -0.1062 -0.3780 -1.5103
 7341TIP3    H243439   0.946   2.370  15.606  0.2540 -1.0462 -0.2391
 7342TIP3   OH243440   1.475   0.443  16.135  0.4151 -0.3019  0.0068
 7342TIP3    H143441   1.550   0.395  16.169  2.0552  1.5262 -0.8166
 7342TIP3    H243442   1.399   0.390  16.160  1.8051 -1.2866  2.5388
 7343TIP3   OH243443   1.075   5.372   0.119  0.2724 -0.0574 -0.3081
 7343TIP3    H143444   1.034   5.314   0.055  0.2214 -0.4639  0.0875
 7343TIP3    H243445   1.009   5.438   0.137 -0.0309 -0.4339 -0.0341
 7344TIP3   OH243446   3.472   1.529  14.937  0.0308 -0.0355  0.1075
 7344TIP3    H143447   3.508   1.502  15.021  2.7644 -0.3536 -1.0651
 7344TIP3    H243448   3.489   1.623  14.933  1.5363 -0.3102 -0.7556
 7345TIP3   OH243449   0.868   1.455  15.438 -0.2694 -0.0890 -0.5031
 7345TIP3    H143450   0.890   1.364  15.459 -0.9831 -0.0261  0.6328
 7345TIP3    H243451   0.889   1.464  15.345  1.1243 -1.0096 -0.3185
 7346TIP3   OH243452   4.438   1.701   2.668  0.3154 -0.2721  0.0784
 7346TIP3    H143453   4.416   1.646   2.593 -1.3410 -0.2651  0.5251
 7346TIP3    H243454   4.518   1.747   2.642  0.0079 -0.5992 -1.5050
 7347TIP3   OH243455   2.841   2.425   6.718  0.0255  0.0925 -0.4740
 7347TIP3    H143456   2.895   2.502   6.702 -0.7272  0.6765 -0.2497
 7347TIP3    H243457   2.897   2.367   6.769  0.9358  0.0651 -1.4773
 7348TIP3   OH243458   2.663   3.168  14.373 -0.0233 -0.5765  0.2270
 7348TIP3    H143459   2.609   3.106  14.423  1.3779 -2.4200 -0.4354
 7348TIP3    H243460   2.680   3.125  14.290  0.1088  1.1984 -0.7208
 7349TIP3   OH243461   6.764   2.285   1.235 -0.3001  0.1589 -0.1187
 7349TIP3    H143462   6.710   2.238   1.299  0.0072 -1.5558 -1.0345
 7349TIP3    H243463   6.729   2.258   1.150  1.1870 -0.0042 -0.7126
 7350TIP3   OH243464   4.953   4.545  11.016  0.2184  0.6124 -0.2398
 7350TIP3    H143465   4.971   4.551  10.922  1.7451  1.3044  0.0622
 7350TIP3    H243466   4.954   4.451  11.034  1.7735  0.5190 -0.6321
 7351TIP3   OH243467   6.071   2.039   4.103 -0.1258  0.2172  0.1706
 7351TIP3    H143468   6.095   2.123   4.143  0.5718  0.9485 -1.6943
 7351TIP3    H243469   6.128   1.975   4.146  1.6156  1.1812 -0.6134
 7352TIP3   OH243470   2.639   6.675   0.054 -0.3127  0.0276  0.3134
 7352TIP3    H143471   2.730   6.677   0.082  0.1410  0.8615 -1.1386
 7352TIP3    H243472   2.602   6.598   0.099  1.5617 -1.3906 -0.4397
 7353TIP3   OH243473   1.441   3.394   5.809  0.1419  0.1447 -0.2024
 7353TIP3    H143474   1.502   3.429   5.875 -0.6287  0.3213  0.4247
 7353TIP3    H243475   1.443   3.458   5.739 -0.3070  0.8162  0.3915
 7354TIP3   OH243476   2.579   6.260  13.712  0.3226  0.1319  0.3373
 7354TIP3    H143477   2.623   6.304  13.639  0.9579 -0.7853  0.1561
 7354TIP3    H243478   2.522   6.196  13.670  0.8430 -0.5412  0.6351
 7355TIP3   OH243479   1.231   3.086   0.853 -0.2365  0.1651  1.0759
 7355TIP3    H143480   1.256   3.027   0.924 -0.2940  1.9709  2.6705
 7355TIP3    H243481   1.270   3.170   0.876  0.9586  0.5345 -1.7767
 7356TIP3   OH243482   0.079   2.386   5.874  0.1371 -0.0961  0.2183
 7356TIP3    H143483   0.039   2.303   5.846  1.0916 -0.6984  0.5807
 7356TIP3    H243484   0.017   2.453   5.846 -0.3413 -0.8850 -0.6943
 7357TIP3   OH243485   5.769   3.364  11.010  0.8003 -0.1510  0.1617
 7357TIP3    H143486   5.689   3.326  11.048  0.4587 -0.4570 -0.8279
 7357TIP3    H243487   5.742   3.394  10.923  1.5077  0.7534  0.2434
 7358TIP3   OH243488   2.074   3.904  12.846 -0.3062  0.0442  0.7137
 7358TIP3    H143489   2.151   3.952  12.816 -2.3702  2.5662 -0.9736
 7358TIP3    H243490   2.045   3.853  12.770 -1.2234  0.4112  0.8023
 7359TIP3   OH243491   4.896   1.522   4.525  0.5203 -0.3562 -0.5800
 7359TIP3    H143492   4.839   1.599   4.532 -0.1994 -0.8013 -1.3949
 7359TIP3    H243493   4.873   1.468   4.601 -2.5009 -2.0433 -2.5047
 7360TIP3   OH243494   6.088   6.379  11.657 -0.0881  0.0442  0.1110
 7360TIP3    H143495   6.013   6.383  11.598  0.2170  0.9611 -0.2347
 7360TIP3    H243496   6.131   6.297  11.636 -0.5120 -0.0768 -0.2934
 7361TIP3   OH243497   0.013   1.107   4.982  0.1791  0.3826 -0.0489
 7361TIP3    H143498   0.072   1.077   5.052  0.3465 -1.0513 -0.7843
 7361TIP3    H243499  -0.053   1.038   4.975 -0.4001  0.9881 -0.6452
 7362TIP3   OH243500   4.031   3.533  11.110  0.2170  0.4252  0.0254
 7362TIP3    H143501   3.976   3.542  11.032 -1.8074  0.6268  1.4213
 7362TIP3    H243502   4.044   3.623  11.140 -0.8143  0.2229  1.1094
 7363TIP3   OH243503   1.808   1.919   3.770  0.3553 -0.0460  0.3157
 7363TIP3    H143504   1.818   1.932   3.676  0.3813  0.6058  0.3991
 7363TIP3    H243505   1.870   1.849   3.792  0.9332  0.3429 -0.0267
 7364TIP3   OH243506   0.688   6.603  12.645 -0.3732 -0.8656  0.1499
 7364TIP3    H143507   0.775   6.574  12.615  0.5149  0.8515  0.9057
 7364TIP3    H243508   0.632   6.595  12.568  0.7364 -0.9118 -0.6816
 7365TIP3   OH243509   4.087   6.464   6.402 -0.3955 -0.2581  0.2470
 7365TIP3    H143510   4.051   6.545   6.439 -0.1701  0.6578 -1.4537
 7365TIP3    H243511   4.029   6.443   6.329 -0.3354 -1.5448  0.5435
 7366TIP3   OH243512   3.338   6.618   0.179  0.3672 -0.0872 -0.6074
 7366TIP3    H143513   3.256   6.657   0.152  0.1139  1.0494  1.6312
 7366TIP3    H243514   3.314   6.555   0.248  1.4318  1.2689  1.0813
 7367TIP3   OH243515   1.409   5.297  14.229 -0.1657 -0.4971  0.0430
 7367TIP3    H143516   1.460   5.221  14.200  2.3084  1.1217 -0.2151
 7367TIP3    H243517   1.418   5.360  14.158 -0.2607  0.8325  1.1616
 7368TIP3   OH243518   4.579   0.126  12.194  0.2804  0.1030 -0.1695
 7368TIP3    H143519   4.608   0.037  12.177 -1.2900 -0.5445  0.2817
 7368TIP3    H243520   4.519   0.118  12.268  0.1999  1.5600 -0.0343
 7369TIP3   OH243521   2.048   2.776  16.798 -0.1639  0.1995  0.5969
 7369TIP3    H143522   2.034   2.857  16.847  0.2457 -0.8501  2.5629
 7369TIP3    H243523   1.988   2.782  16.723  0.3083  2.5649  0.3278
 7370TIP3   OH243524   0.487   6.432  15.039  0.0711 -0.0641 -0.1132
 7370TIP3    H143525   0.524   6.350  15.004  2.0423 -0.0265  1.6851
 7370TIP3    H243526   0.393   6.422  15.028  0.3190 -2.1745 -0.8039
 7371TIP3   OH243527   4.937   4.334  13.449 -0.3047 -0.2894  0.0681
 7371TIP3    H143528   4.979   4.248  13.452 -0.5904 -0.4790 -1.0465
 7371TIP3    H243529   5.010   4.396  13.446 -0.0765 -0.5936 -1.2217
 7372TIP3   OH243530   0.982   0.148  12.255  0.5132 -0.0207  0.0288
 7372TIP3    H143531   1.032   0.068  12.273  0.8851  0.1704 -0.1441
 7372TIP3    H243532   1.042   0.203  12.205 -0.4620 -0.4830 -1.7074
 7373TIP3   OH243533   4.219   5.387  16.914  0.1733  1.2269  0.0630
 7373TIP3    H143534   4.218   5.313  16.974 -0.3526  1.5316  0.4417
 7373TIP3    H243535   4.264   5.456  16.963 -0.6220  1.6052  0.2687
 7374TIP3   OH243536   3.082   5.786   0.447  0.7153 -0.1613  0.0551
 7374TIP3    H143537   3.149   5.854   0.457  2.7406 -1.9454 -0.5688
 7374TIP3    H243538   3.127   5.705   0.471 -1.3456 -1.4102 -0.1031
 7375TIP3   OH243539   3.019   2.063  11.759 -0.8598 -0.3647  0.2708
 7375TIP3    H143540   3.045   2.111  11.837 -0.8351 -1.2455  0.8242
 7375TIP3    H243541   3.091   2.001  11.744 -1.1029 -0.5505 -0.1535
 7376TIP3   OH243542   0.981   1.080  16.661 -0.3060  0.6373  0.2310
 7376TIP3    H143543   0.974   1.152  16.598 -0.6801 -0.0107 -0.4874
 7376TIP3    H243544   0.901   1.029  16.648  0.7448 -0.9007 -0.5398
 7377TIP3   OH243545   3.314   5.923  15.444 -0.2867 -0.0878  0.2037
 7377TIP3    H143546   3.310   6.017  15.426  1.0736  0.0003  0.2793
 7377TIP3    H243547   3.222   5.895  15.446 -0.6973  1.1792 -0.0969
 7378TIP3   OH243548   0.006   5.204  14.947 -0.7679  0.4147  0.3492
 7378TIP3    H143549  -0.086   5.179  14.957 -0.7757  0.9351  1.9075
 7378TIP3    H243550   0.003   5.293  14.912 -0.8638  0.4206  0.3722
 7379TIP3   OH243551   2.420   3.100   4.314  0.1710 -0.2506 -0.0375
 7379TIP3    H143552   2.368   3.026   4.283 -1.4663  0.4534  0.8877
 7379TIP3    H243553   2.363   3.177   4.302  1.1007  0.5957  0.7403
 7380TIP3   OH243554   0.115   4.665   3.205 -0.2074  0.0005  0.0554
 7380TIP3    H143555   0.174   4.683   3.278  0.7027 -1.8935 -0.1395
 7380TIP3    H243556   0.083   4.576   3.222 -1.4403  0.2340 -0.8988
 7381TIP3   OH243557   6.021   5.807  16.536  0.5452 -0.6301  0.1658
 7381TIP3    H143558   6.043   5.873  16.601  0.1985  0.4570 -0.7864
 7381TIP3    H243559   5.956   5.751  16.579  0.0377  0.2947  0.6168
 7382TIP3   OH243560   1.016   4.285  12.289 -0.0276  0.6581 -0.0068
 7382TIP3    H143561   0.978   4.228  12.355  2.4912  1.7205  2.5606
 7382TIP3    H243562   1.068   4.228  12.234 -1.0621 -0.0558 -0.2761
 7383TIP3   OH243563   2.701   0.576  11.849 -0.3682 -0.8865  0.4506
 7383TIP3    H143564   2.696   0.527  11.931  0.3593 -2.2798 -0.3035
 7383TIP3    H243565   2.722   0.510  11.782 -0.1946  0.3232 -0.7445
 7384TIP3   OH243566   6.211   6.578  12.914 -0.2413 -0.2229 -0.0766
 7384TIP3    H143567   6.213   6.614  13.003 -0.9551 -0.8326  0.1911
 7384TIP3    H243568   6.299   6.542  12.900 -0.2457 -0.4613  0.5158
 7385TIP3   OH243569   3.050   6.576  13.578 -0.5230  0.1028 -0.1423
 7385TIP3    H143570   3.040   6.485  13.549  0.6319  0.1773 -0.8270
 7385TIP3    H243571   2.986   6.625  13.526 -2.1902 -0.4812  1.2543
 7386TIP3   OH243572   1.274   0.283   2.973 -0.4266 -0.0246 -0.6260
 7386TIP3    H143573   1.332   0.288   3.050 -0.0800 -0.0400 -0.8812
 7386TIP3    H243574   1.262   0.374   2.947 -1.5736  0.0809  0.1928
 7387TIP3   OH243575   5.423   4.252  11.718 -0.1900 -0.3212 -0.4039
 7387TIP3    H143576   5.494   4.287  11.772  0.4121 -0.7200 -0.9182
 7387TIP3    H243577   5.466   4.187  11.662 -1.1614 -1.3700  0.0450
 7388TIP3   OH243578   5.213   5.498  13.692  0.2589 -0.1121 -0.4220
 7388TIP3    H143579   5.201   5.536  13.605 -0.0697 -0.0711 -0.3616
 7388TIP3    H243580   5.223   5.573  13.750 -0.1351 -0.1216 -0.3390
 7389TIP3   OH243581   6.585   5.855  17.163 -0.1198  0.2436 -0.4041
 7389TIP3    H143582   6.667   5.829  17.120  0.0863 -0.5626  0.4211
 7389TIP3    H243583   6.595   5.823  17.253 -1.5532 -0.3159 -0.4146
 7390TIP3   OH243584   2.399   2.635  12.193 -0.1505  0.2468 -0.0493
 7390TIP3    H143585   2.313   2.673  12.208  0.4487  1.6287  0.1144
 7390TIP3    H243586   2.452   2.708  12.160  1.3636 -0.1590  1.3405
 7391TIP3   OH243587   0.345   4.053   5.723 -0.2584 -0.6068 -0.2333
 7391TIP3    H143588   0.319   4.132   5.770  0.4051  0.6732 -1.8992
 7391TIP3    H243589   0.383   3.996   5.790  0.7390  1.1611  0.7780
 7392TIP3   OH243590   2.444   0.775  10.989  0.7950  0.1991  0.2949
 7392TIP3    H143591   2.535   0.806  10.995  0.7562  1.1537 -2.7215
 7392TIP3    H243592   2.439   0.733  10.903 -0.7521 -3.1259  1.8287
 7393TIP3   OH243593   3.514   6.125   2.156  0.0671  0.2064 -0.4566
 7393TIP3    H143594   3.497   6.182   2.081 -0.7301  0.9015  0.2216
 7393TIP3    H243595   3.471   6.170   2.230 -0.3746 -1.1669  0.1437
 7394TIP3   OH243596   3.505   6.383  15.578  0.2168  0.3404  0.2345
 7394TIP3    H143597   3.433   6.382  15.516  1.3049  0.7593 -1.1038
 7394TIP3    H243598   3.575   6.432  15.533  0.7464  1.4819  2.1453
 7395TIP3   OH243599   0.276   1.552  11.042 -0.8530  0.1489 -0.2014
 7395TIP3    H143600   0.255   1.617  10.976  1.1502  0.2985 -0.7735
 7395TIP3    H243601   0.338   1.493  10.998 -1.2886 -1.1264  0.8334
 7396TIP3   OH243602   0.350   1.979   2.032 -0.1474 -0.6933  0.3019
 7396TIP3    H143603   0.323   2.052   1.976  3.1753 -0.1743 -0.8004
 7396TIP3    H243604   0.279   1.914   2.022 -0.8648  0.3784 -2.5836
 7397TIP3   OH243605   6.277   1.605   4.298 -0.0207 -0.4397 -0.0092
 7397TIP3    H143606   6.366   1.577   4.317 -0.5973 -2.3518  0.0979
 7397TIP3    H243607   6.233   1.526   4.267 -1.9258  0.2243  0.8200
 7398TIP3   OH243608   5.054   4.546  14.294  0.2384  0.3701 -0.0618
 7398TIP3    H143609   4.977   4.600  14.276  1.0959  2.7236  2.5800
 7398TIP3    H243610   5.068   4.497  14.213 -2.8673  1.2754 -1.3019
 7399TIP3   OH243611   2.607   6.406   1.982  0.0155 -0.6201  0.1981
 7399TIP3    H143612   2.531   6.381   2.035 -1.1657  3.7892  1.0563
 7399TIP3    H243613   2.574   6.411   1.892 -0.1615 -0.5842  0.2660
 7400TIP3   OH243614   6.093   2.964  12.593  0.1942 -0.2590  0.3082
 7400TIP3    H143615   6.119   2.892  12.535  0.1597 -1.1211  1.3403
 7400TIP3    H243616   6.013   2.933  12.635  0.0141  0.5101  0.5345
 7401TIP3   OH243617   4.462   4.016  11.813  0.1926 -0.1707 -0.2502
 7401TIP3    H143618   4.518   4.017  11.735  1.7941  0.7291  0.8559
 7401TIP3    H243619   4.415   3.933  11.808  1.8115 -1.0856 -1.0994
 7402TIP3   OH243620   2.268   0.674   2.404 -0.6382 -0.4593 -0.5231
 7402TIP3    H143621   2.248   0.658   2.312 -0.4889  1.1403 -0.8573
 7402TIP3    H243622   2.211   0.614   2.452  0.4303 -2.5079 -1.6485
 7403TIP3   OH243623   1.807   4.887  15.141  0.3194 -0.3822 -0.5656
 7403TIP3    H143624   1.716   4.862  15.124 -0.5888  2.0002  0.4372
 7403TIP3    H243625   1.805   4.931  15.226  2.0234  1.5687 -1.4412
 7404TIP3   OH243626   1.731   6.007   3.973 -0.5636  0.2022 -0.7358
 7404TIP3    H143627   1.679   5.929   3.993 -1.0456  0.3548 -1.3864
 7404TIP3    H243628   1.745   6.003   3.879  4.6476 -2.4022 -0.2450
 7405TIP3   OH243629   6.087   5.597   2.348 -0.0138  0.7307  0.4943
 7405TIP3    H143630   5.997   5.593   2.318  0.9013  2.0162 -2.8693
 7405TIP3    H243631   6.129   5.660   2.290  2.9126  0.7612  2.4143
 7406TIP3   OH243632   1.205   0.718  14.338 -0.1410  0.6888 -0.3972
 7406TIP3    H143633   1.224   0.655  14.407  0.9343 -0.3144 -1.5841
 7406TIP3    H243634   1.181   0.798  14.385 -1.6516 -0.5910  1.1386
 7407TIP3   OH243635   6.203   3.782   6.354 -0.5108 -0.0043  0.0357
 7407TIP3    H143636   6.211   3.866   6.308 -1.5799 -0.7689 -1.6471
 7407TIP3    H243637   6.291   3.744   6.350 -0.2667  0.5667 -0.1281
 7408TIP3   OH243638   0.266   4.671   5.148  0.9333  0.0224  0.4503
 7408TIP3    H143639   0.232   4.592   5.189  0.0074  0.8340  1.2973
 7408TIP3    H243640   0.341   4.641   5.096  0.8347 -1.3359  1.0572
 7409TIP3   OH243641   3.985   2.389  16.244 -0.5273 -0.1081  0.2488
 7409TIP3    H143642   3.908   2.425  16.287 -0.2996 -1.0529  1.5028
 7409TIP3    H243643   3.957   2.303  16.211 -0.3680  0.1041 -0.4538
 7410TIP3   OH243644   1.563   5.303  13.061 -0.1217 -0.1115 -0.6770
 7410TIP3    H143645   1.639   5.357  13.083 -1.0200  0.4357  1.3524
 7410TIP3    H243646   1.510   5.359  13.004  0.0462  0.2680 -0.4640
 7411TIP3   OH243647   3.656   5.131  10.953  0.0230 -0.0292 -0.8293
 7411TIP3    H143648   3.593   5.066  10.922  1.0193 -2.1030  1.2039
 7411TIP3    H243649   3.730   5.080  10.984  0.1165  1.8913  2.6218
 7412TIP3   OH243650   6.245   6.638  14.645  0.6430  0.0125  0.1524
 7412TIP3    H143651   6.217   6.630  14.737  1.5384 -1.2080  0.3484
 7412TIP3    H243652   6.179   6.589  14.596  1.7713 -1.9897  0.5098
 7413TIP3   OH243653   6.161   2.305  12.372  0.0271 -0.0245  0.0819
 7413TIP3    H143654   6.150   2.354  12.290  2.4635 -0.8390 -0.8287
 7413TIP3    H243655   6.099   2.232  12.366  0.3444 -0.2066 -1.1614
 7414TIP3   OH243656   2.836   6.047   5.920  0.5287  0.4536  0.1142
 7414TIP3    H143657   2.787   6.033   5.838  2.3895  0.8206 -1.1092
 7414TIP3    H243658   2.787   6.116   5.965  0.2782  1.2951 -1.3814
 7415TIP3   OH243659   3.097   4.361  15.727 -0.4447 -0.4394  0.4490
 7415TIP3    H143660   3.094   4.453  15.753 -0.7319 -0.2202 -0.3362
 7415TIP3    H243661   3.044   4.315  15.793 -1.3069  0.1234  0.1636
 7416TIP3   OH243662   6.239   0.938   2.853  0.2064  1.0823  0.2794
 7416TIP3    H143663   6.243   0.858   2.904 -0.2641  1.9950  1.8326
 7416TIP3    H243664   6.201   1.003   2.913 -0.0022  2.3107 -1.1150
 7417TIP3   OH243665   5.551   6.288  12.850  0.3342 -0.7951  0.2615
 7417TIP3    H143666   5.616   6.313  12.785  1.0581  2.5755  2.0508
 7417TIP3    H243667   5.473   6.338  12.828  0.6152  0.4738  1.9166
 7418TIP3   OH243668   3.441   5.432  12.364 -0.5120 -0.0100 -0.3214
 7418TIP3    H143669   3.401   5.517  12.383  0.1656  0.6767 -1.8052
 7418TIP3    H243670   3.528   5.438  12.405 -0.2278  0.2706 -0.9505
 7419TIP3   OH243671   1.849   1.141   5.078 -0.2526  0.1666  0.5868
 7419TIP3    H143672   1.898   1.106   5.152  0.7941  0.9603  0.2930
 7419TIP3    H243673   1.817   1.064   5.032 -1.5743 -0.3425  2.2455
 7420TIP3   OH243674   1.798   4.027  11.512 -0.3486 -0.0962 -0.1309
 7420TIP3    H143675   1.816   4.116  11.480 -2.1053  0.3594  0.0540
 7420TIP3    H243676   1.880   3.980  11.499  1.2453  2.0405  1.5005
 7421TIP3   OH243677   1.140   2.765  15.101  0.0157  0.0144 -0.2096
 7421TIP3    H143678   1.191   2.699  15.054  0.2977  0.7028 -0.8787
 7421TIP3    H243679   1.073   2.792  15.039  0.5882  1.1652 -0.3380
 7422TIP3   OH243680   0.252   4.924   2.672 -0.0251 -0.1563  0.6243
 7422TIP3    H143681   0.342   4.896   2.691  0.0478  1.2017  2.6128
 7422TIP3    H243682   0.252   5.018   2.690 -1.3345  0.3213 -1.5034
 7423TIP3   OH243683   6.599   0.744   0.874 -0.3998  0.2866  0.4155
 7423TIP3    H143684   6.535   0.678   0.898 -0.4917  0.7486  1.5317
 7423TIP3    H243685   6.605   0.801   0.951  3.0228 -1.0313  1.3374
 7424TIP3   OH243686   4.205   4.552  11.819  0.4148  0.3607 -0.0741
 7424TIP3    H143687   4.251   4.605  11.885  0.2616  0.1901  0.1697
 7424TIP3    H243688   4.248   4.575  11.737  0.7936  0.3655  0.1214
 7425TIP3   OH243689   2.162   5.585   0.766  0.3443 -0.4237  0.0178
 7425TIP3    H143690   2.076   5.558   0.733  0.2314 -0.2557  0.1756
 7425TIP3    H243691   2.217   5.589   0.688 -0.3372  1.6197 -0.4199
 7426TIP3   OH243692   2.719   2.862   2.976 -0.0269 -0.2882  0.1522
 7426TIP3    H143693   2.815   2.863   2.982 -0.0562  0.8243  0.7432
 7426TIP3    H243694   2.695   2.953   2.963 -1.0669 -0.3538  1.3858
 7427TIP3   OH243695   2.981   0.624   3.286  0.9833  0.2410 -0.0062
 7427TIP3    H143696   3.032   0.702   3.307  1.3514 -0.2622  1.0762
 7427TIP3    H243697   2.933   0.605   3.367  0.0420 -0.0209 -0.6094
 7428TIP3   OH243698   3.516   0.811   0.232 -0.1798 -0.2286 -0.6090
 7428TIP3    H143699   3.598   0.853   0.205 -0.5879  0.6635 -0.4991
 7428TIP3    H243700   3.541   0.755   0.306  0.5034 -0.7670 -1.2397
 7429TIP3   OH243701   2.944   0.235   3.193  0.3986 -0.1433 -0.5166
 7429TIP3    H143702   2.873   0.246   3.130  0.2863 -0.8156 -0.5104
 7429TIP3    H243703   2.900   0.222   3.277  0.5299 -0.3568 -0.4805
 7430TIP3   OH243704   2.584   3.306   0.604  0.1018  0.2567 -0.3701
 7430TIP3    H143705   2.554   3.337   0.689 -1.0275  0.7735 -0.9316
 7430TIP3    H243706   2.675   3.337   0.597 -0.0544  0.8813  0.3117
 7431TIP3   OH243707   2.151   4.162  11.603  0.3056  0.1897 -0.4953
 7431TIP3    H143708   2.152   4.228  11.672 -1.3791  1.9441 -2.0030
 7431TIP3    H243709   2.093   4.199  11.537  0.4073 -2.2339 -2.0426
 7432TIP3   OH243710   5.818   2.119   5.251  0.1033 -0.5512  0.3392
 7432TIP3    H143711   5.769   2.177   5.309 -0.8627 -0.8004 -0.2147
 7432TIP3    H243712   5.755   2.093   5.184  1.0599 -0.6762 -0.5332
 7433TIP3   OH243713   4.029   6.322   1.427  0.0500  0.2116 -0.3623
 7433TIP3    H143714   4.100   6.361   1.477  0.2814 -1.7358  0.9004
 7433TIP3    H243715   4.066   6.243   1.389 -1.3891 -0.8205  0.2898
 7434TIP3   OH243716   2.917   4.938  12.782  0.0947  0.3146 -0.2131
 7434TIP3    H143717   2.925   5.033  12.779  3.9438  0.1426 -0.4185
 7434TIP3    H243718   2.916   4.912  12.690  1.4837  0.0931 -0.1814
 7435TIP3   OH243719   4.476   1.305   0.975  0.3655  0.1524 -0.1377
 7435TIP3    H143720   4.447   1.375   0.917 -0.1399 -0.1725 -0.2849
 7435TIP3    H243721   4.555   1.339   1.016  0.2717  0.7056 -0.4056
 7436TIP3   OH243722   1.532   1.832  11.112 -0.6012  0.0928  0.0748
 7436TIP3    H143723   1.628   1.827  11.111 -0.6824 -1.8782 -0.1789
 7436TIP3    H243724   1.513   1.902  11.175  0.9558 -0.7574  1.5682
 7437TIP3   OH243725   6.599   3.725  11.063  0.2763 -0.2943 -0.2343
 7437TIP3    H143726   6.629   3.655  11.005  1.9157  0.6436 -0.5691
 7437TIP3    H243727   6.557   3.679  11.135 -0.6119 -1.5356 -1.4768
 7438TIP3   OH243728   4.874   1.652  13.644 -0.2925  0.3403  0.1422
 7438TIP3    H143729   4.962   1.666  13.679 -0.6210  1.7590  0.4318
 7438TIP3    H243730   4.835   1.588  13.704  0.7511 -0.8369 -0.3881
 7439TIP3   OH243731   3.425   0.656  11.716 -0.4977 -0.1336 -0.0220
 7439TIP3    H143732   3.395   0.621  11.632 -0.3402  1.1023 -0.6197
 7439TIP3    H243733   3.386   0.744  11.720  0.7417  0.4074  0.4878
 7440TIP3   OH243734   6.132   6.543  16.027 -0.0258  0.0616  0.3511
 7440TIP3    H143735   6.194   6.597  16.075  0.5210  0.2018 -0.4988
 7440TIP3    H243736   6.135   6.575  15.937 -2.5162  1.1350  0.5719
 7441TIP3   OH243737   1.951   2.512  16.640 -0.0538  0.8080  0.1137
 7441TIP3    H143738   1.947   2.427  16.682  1.5099  0.9952  0.7012
 7441TIP3    H243739   1.908   2.499  16.555 -0.2973 -0.4226  0.4095
 7442TIP3   OH243740   2.183   0.517  15.761 -0.3774 -0.6232 -0.2442
 7442TIP3    H143741   2.192   0.422  15.766 -1.1045 -0.6271  1.7600
 7442TIP3    H243742   2.252   0.550  15.819 -0.9966  0.0114  0.1383
 7443TIP3   OH243743   0.124   6.423  16.518 -0.3064 -0.0877  0.1617
 7443TIP3    H143744   0.104   6.486  16.587  2.1879  0.2669  0.6536
 7443TIP3    H243745   0.047   6.424  16.461 -0.6366  2.8689  0.5341
 7444TIP3   OH243746   4.300   6.248  12.155  0.2423  0.7671  0.4047
 7444TIP3    H143747   4.256   6.305  12.218 -0.2182  0.0643  0.7287
 7444TIP3    H243748   4.310   6.165  12.200 -0.6625  0.0520 -0.6558
 7445TIP3   OH243749   1.819   1.865   2.776  0.1658 -0.5540 -0.1409
 7445TIP3    H143750   1.830   1.791   2.837  0.6166 -0.7101 -0.4088
 7445TIP3    H243751   1.738   1.846   2.730 -0.5745 -0.0723  0.9081
 7446TIP3   OH243752   3.703   3.901  11.872  0.4083  0.1830  0.1468
 7446TIP3    H143753   3.645   3.884  11.947  0.2500  3.6420  1.0168
 7446TIP3    H243754   3.707   3.997  11.867 -0.0851  0.1754 -4.7341
 7447TIP3   OH243755   1.878   3.973  16.953 -0.2807 -0.2449  0.3760
 7447TIP3    H143756   1.847   3.906  17.015  0.2129  0.2471  1.1781
 7447TIP3    H243757   1.964   3.998  16.987 -0.0602  0.1443 -0.4429
 7448TIP3   OH243758   1.180   4.717   4.796 -0.3274  0.5889 -0.2571
 7448TIP3    H143759   1.127   4.793   4.772 -0.5073  0.2504 -0.9584
 7448TIP3    H243760   1.137   4.643   4.753 -0.7271 -0.0750  1.2391
 7449TIP3   OH243761   6.796   3.980   4.363 -0.1706 -0.3761  0.2412
 7449TIP3    H143762   6.877   3.935   4.385 -0.2482 -0.5581  0.1532
 7449TIP3    H243763   6.815   4.073   4.381  0.1820 -0.3684 -0.1324
 7450TIP3   OH243764   1.866   2.341   5.251  0.3206 -0.0801 -0.1005
 7450TIP3    H143765   1.942   2.304   5.295  1.0644  1.6671  0.1725
 7450TIP3    H243766   1.893   2.347   5.159  0.1780 -0.2469 -0.1547
 7451TIP3   OH243767   0.680   2.065  11.094 -0.5962  0.0229  0.0376
 7451TIP3    H143768   0.709   2.148  11.131 -1.6864 -0.2686  1.6636
 7451TIP3    H243769   0.631   2.090  11.015 -1.1695  0.9757  0.6696
 7452TIP3   OH243770   5.956   4.649  14.797 -0.4687 -0.6087  0.7738
 7452TIP3    H143771   6.037   4.628  14.843  0.1404 -0.2288 -0.1072
 7452TIP3    H243772   5.910   4.565  14.789  1.5572 -1.6084 -1.9820
 7453TIP3   OH243773   4.684   4.588   0.852 -0.1240  0.4842  0.4153
 7453TIP3    H143774   4.648   4.556   0.769 -0.3110  0.2947  0.5679
 7453TIP3    H243775   4.641   4.673   0.866  0.2332  0.7186  0.1038
 7454TIP3   OH243776   4.593   1.732  13.532 -0.3954 -0.0085  0.1612
 7454TIP3    H143777   4.680   1.704  13.561 -0.9135 -0.8625  0.9189
 7454TIP3    H243778   4.611   1.802  13.469  0.8833 -1.0587 -0.7001
 7455TIP3   OH243779   3.830   2.748   4.253 -0.3045  0.2593  0.3725
 7455TIP3    H143780   3.888   2.815   4.289  0.8528 -0.2430 -0.4761
 7455TIP3    H243781   3.857   2.667   4.298  0.6671 -0.2389 -1.0503
 7456TIP3   OH243782   5.908   4.123  16.222  0.3524 -0.2138 -0.4861
 7456TIP3    H143783   5.919   4.142  16.315 -0.1120 -0.1082 -0.4545
 7456TIP3    H243784   5.906   4.027  16.218 -1.2929 -0.2204 -0.1850
 7457TIP3   OH243785   0.706   2.292  11.838  0.4216  0.7085  0.2348
 7457TIP3    H143786   0.696   2.240  11.758  0.5516 -1.8364  1.7346
 7457TIP3    H243787   0.627   2.346  11.841 -1.4480 -1.7744  0.0799
 7458TIP3   OH243788   3.892   4.600   0.561 -0.6294  0.4527 -0.1501
 7458TIP3    H143789   3.825   4.549   0.516  0.5819 -0.4768 -0.9813
 7458TIP3    H243790   3.864   4.691   0.552 -1.1947  0.1657 -1.4563
 7459TIP3   OH243791   0.673   6.174   5.846 -0.0497 -0.3335  0.4349
 7459TIP3    H143792   0.678   6.107   5.915  1.1480  0.6539  1.3425
 7459TIP3    H243793   0.762   6.177   5.810  0.2387  1.5154  1.1763
 7460TIP3   OH243794   0.753   1.062  15.922 -0.3116 -0.3389  0.4239
 7460TIP3    H143795   0.760   1.011  16.003 -0.6109  0.0431  0.6962
 7460TIP3    H243796   0.842   1.091  15.903 -0.0652 -1.3046  0.0360
 7461TIP3   OH243797   4.169   1.660  11.392 -0.4297  0.0133 -0.1634
 7461TIP3    H143798   4.228   1.697  11.458  0.8153 -1.9552 -0.0991
 7461TIP3    H243799   4.227   1.611  11.333 -1.8934 -1.2604 -0.6049
 7462TIP3   OH243800   2.804   0.008   1.261  0.4852  0.4082  0.3142
 7462TIP3    H143801   2.805  -0.053   1.334 -0.3055 -0.2441 -0.2099
 7462TIP3    H243802   2.719   0.052   1.266 -0.3067 -0.8393 -1.1529
 7463TIP3   OH243803   1.430   2.206   4.200  0.3395 -0.1310 -0.3398
 7463TIP3    H143804   1.505   2.257   4.170 -0.9027  1.6394 -0.6484
 7463TIP3    H243805   1.354   2.263   4.183 -0.9780 -1.4247  0.8739
 7464TIP3   OH243806   0.484   2.368   4.368 -0.4383 -0.3087  0.1800
 7464TIP3    H143807   0.543   2.362   4.443  1.9659 -0.8552 -1.6485
 7464TIP3    H243808   0.495   2.458   4.336 -0.5824 -0.4191 -0.1881
 7465TIP3   OH243809   6.692   5.462  14.873  0.2449 -0.7999 -0.2429
 7465TIP3    H143810   6.728   5.486  14.958 -1.5281 -2.8142  1.1800
 7465TIP3    H243811   6.639   5.538  14.848 -0.3140 -0.7045  1.1302
 7466TIP3   OH243812   0.942   0.005   4.713 -0.4374  0.0932 -0.0734
 7466TIP3    H143813   0.933  -0.000   4.618  2.7605 -0.6361 -0.4422
 7466TIP3    H243814   1.021  -0.045   4.732  0.3235  2.1588  2.7194
 7467TIP3   OH243815   5.663   1.437   6.063 -0.0330  0.0935 -0.1421
 7467TIP3    H143816   5.680   1.529   6.080  0.6406 -0.5145  3.0846
 7467TIP3    H243817   5.605   1.409   6.134  0.1731 -2.0641 -0.7437
 7468TIP3   OH243818   3.613   2.712  14.715  0.0062 -0.1075  0.5120
 7468TIP3    H143819   3.644   2.659  14.642  3.1289  1.2880  0.6517
 7468TIP3    H243820   3.626   2.803  14.687 -3.3320  0.6792  1.0322
 7469TIP3   OH243821   1.518   6.690  13.910  0.3655  0.5617  0.5098
 7469TIP3    H143822   1.530   6.597  13.929 -1.7296 -0.2173 -1.4400
 7469TIP3    H243823   1.453   6.720  13.974 -1.0173 -0.0876 -0.5332
 7470TIP3   OH243824   6.064   2.179   3.754  0.2579  0.0880 -0.0166
 7470TIP3    H143825   6.134   2.229   3.710 -0.6261  0.4791 -1.0365
 7470TIP3    H243826   6.040   2.232   3.830  0.0486  0.7136 -0.5103
 7471TIP3   OH243827   0.401   4.938   0.369 -0.3186 -0.0712  0.2326
 7471TIP3    H143828   0.311   4.933   0.401 -0.1634 -0.1155  0.6673
 7471TIP3    H243829   0.455   4.935   0.448  0.1466 -2.2111 -0.0975
 7472TIP3   OH243830   0.615   4.647  16.950 -1.0202 -0.4387 -0.0524
 7472TIP3    H143831   0.524   4.669  16.929 -0.9248  1.9163  1.5830
 7472TIP3    H243832   0.611   4.604  17.035 -0.5582  1.4537  0.9990
 7473TIP3   OH243833   2.261   5.334   3.504  0.5030 -0.1461 -0.1682
 7473TIP3    H143834   2.221   5.358   3.587  1.1406  0.7728 -0.1028
 7473TIP3    H243835   2.314   5.257   3.524 -1.1494 -1.3551 -0.2543
 7474TIP3   OH243836   3.854   1.632  14.438  0.3969  0.2539  0.4087
 7474TIP3    H143837   3.765   1.598  14.447  0.3271  0.8327  2.2711
 7474TIP3    H243838   3.865   1.647  14.344 -0.4003 -2.5875 -0.2354
 7475TIP3   OH243839   1.530   5.047   5.069  0.7393 -0.2102 -0.4595
 7475TIP3    H143840   1.510   5.100   4.991  3.9591  2.0196  0.0190
 7475TIP3    H243841   1.529   5.110   5.141  1.6908 -1.4232  0.6594
 7476TIP3   OH243842   0.107   5.671   3.238  0.1750  0.3307  0.2936
 7476TIP3    H143843   0.035   5.732   3.255 -1.8470 -1.7616 -0.3047
 7476TIP3    H243844   0.155   5.667   3.321 -1.6479  0.2373  1.3917
 7477TIP3   OH243845   0.063   1.171  13.608 -0.2082  0.0916 -0.2309
 7477TIP3    H143846   0.091   1.200  13.695  0.6038 -2.3386  0.4087
 7477TIP3    H243847   0.142   1.133  13.569 -1.0592 -0.8117 -1.1418
 7478TIP3   OH243848   4.234   3.502   1.810 -0.0967  0.1001 -0.0180
 7478TIP3    H143849   4.150   3.522   1.770  0.3164  1.4293 -0.2746
 7478TIP3    H243850   4.276   3.587   1.821  1.6245 -0.5924 -0.8110
 7479TIP3   OH243851   0.462   2.630  16.007  0.0368 -0.2862  0.2120
 7479TIP3    H143852   0.513   2.556  15.976 -2.2459 -1.4258 -0.9835
 7479TIP3    H243853   0.485   2.702  15.948  1.9881 -0.0275  1.1691
 7480TIP3   OH243854   3.511   0.665   0.719  0.2514 -0.2169  0.6492
 7480TIP3    H143855   3.532   0.601   0.787  0.1443 -2.3078 -1.1458
 7480TIP3    H243856   3.422   0.694   0.739  0.5057 -0.1973  1.8021
 7481TIP3   OH243857   6.560   5.142  15.374  0.1802 -0.5211 -0.6054
 7481TIP3    H143858   6.530   5.175  15.459  0.0105 -0.5064 -0.6708
 7481TIP3    H243859   6.516   5.057  15.365  0.2262 -0.5388 -0.6627
 7482TIP3   OH243860   5.176   0.779  13.277  0.1714 -0.1729  0.1023
 7482TIP3    H143861   5.120   0.715  13.234 -0.8985  0.6859  0.1922
 7482TIP3    H243862   5.117   0.848  13.306  1.3201  0.9748 -0.1867
 7483TIP3   OH243863   6.070   2.179   1.056 -0.3724  0.1023 -0.3340
 7483TIP3    H143864   6.035   2.142   1.137  0.0780  1.3264  0.4422
 7483TIP3    H243865   6.143   2.234   1.084  0.3415 -0.1263 -1.6592
 7484TIP3   OH243866   6.515   1.474   4.305  0.1056 -0.1400  0.2123
 7484TIP3    H143867   6.595   1.527   4.307  0.0628 -0.0779  0.2848
 7484TIP3    H243868   6.527   1.410   4.376  0.6257 -0.9155 -0.5410
 7485TIP3   OH243869   4.733   2.334  11.842  0.4074 -0.2343  0.6382
 7485TIP3    H143870   4.771   2.314  11.757  1.0429 -0.5549  0.9895
 7485TIP3    H243871   4.745   2.254  11.894 -1.0527 -0.4608  0.6632
 7486TIP3   OH243872   1.269   5.832  13.877  0.4985  0.1597 -0.4452
 7486TIP3    H143873   1.209   5.882  13.822 -1.0052 -2.3735 -1.2542
 7486TIP3    H243874   1.226   5.829  13.963  0.2763 -0.2680 -0.5707
 7487TIP3   OH243875   1.889   2.277  13.721 -0.0046  0.0961 -0.0037
 7487TIP3    H143876   1.866   2.319  13.638  0.4047 -0.7432 -0.5501
 7487TIP3    H243877   1.939   2.200  13.696  0.2901 -0.0653  1.0361
 7488TIP3   OH243878   5.691   0.504  15.278 -0.1925 -0.0596  0.0081
 7488TIP3    H143879   5.676   0.598  15.275 -0.4718 -0.0468  1.2390
 7488TIP3    H243880   5.610   0.468  15.313 -1.1597 -1.0836 -2.9538
 7489TIP3   OH243881   6.596   4.269  11.215 -0.2447 -0.4303  0.6179
 7489TIP3    H143882   6.572   4.220  11.294 -2.5442  0.5334  0.6077
 7489TIP3    H243883   6.689   4.252  11.204 -0.8187 -4.8707  0.5845
 7490TIP3   OH243884   0.478   4.078   3.698  0.2594 -0.0222  0.4410
 7490TIP3    H143885   0.571   4.102   3.692  0.3054 -0.1557  0.6186
 7490TIP3    H243886   0.464   4.017   3.627  0.5745 -0.8597  1.0843
 7491TIP3   OH243887   2.140   1.008  15.237  0.1287 -0.5763  0.1643
 7491TIP3    H143888   2.104   1.075  15.179 -1.0526 -1.9196 -0.7428
 7491TIP3    H243889   2.205   0.962  15.184  1.4892  0.2975  1.0247
 7492TIP3   OH243890   1.640   3.552  14.915 -0.6870  0.3558  0.0683
 7492TIP3    H143891   1.736   3.553  14.921 -0.7566  1.3685  1.7447
 7492TIP3    H243892   1.619   3.461  14.893  0.6355 -0.0140  0.2119
 7493TIP3   OH243893   6.382   2.956   3.355 -0.1882 -0.0337  0.4660
 7493TIP3    H143894   6.413   2.911   3.276 -1.1711  2.0250 -1.1780
 7493TIP3    H243895   6.290   2.932   3.362 -0.5662  1.2331 -0.0828
 7494TIP3   OH243896   0.411   1.085  13.830 -0.0330 -0.1128  0.3888
 7494TIP3    H143897   0.492   1.034  13.822 -0.6208 -0.8298 -1.4239
 7494TIP3    H243898   0.364   1.043  13.902  0.0607 -1.3418 -0.2458
 7495TIP3   OH243899   3.334   1.411   2.789  0.2245  0.2332 -0.6104
 7495TIP3    H143900   3.339   1.368   2.704 -0.3376  1.4625 -1.2958
 7495TIP3    H243901   3.329   1.505   2.768 -1.8730  0.4879  0.6729
 7496TIP3   OH243902   0.848   5.941   4.332 -0.3021  0.5479 -0.2567
 7496TIP3    H143903   0.752   5.935   4.330 -0.2265 -1.7571  0.0977
 7496TIP3    H243904   0.874   5.930   4.241 -0.3574  0.5742 -0.2757
 7497TIP3   OH243905   0.735   4.924   5.050  0.5782  0.1973 -0.4083
 7497TIP3    H143906   0.770   4.985   5.116  0.8059 -0.6272  0.2601
 7497TIP3    H243907   0.742   4.971   4.967 -0.0701  1.4130  0.1986
 7498TIP3   OH243908   2.906   4.344  15.935  0.4358 -0.5978  0.1884
 7498TIP3    H143909   2.872   4.410  15.995  0.2279  0.8217 -1.4114
 7498TIP3    H243910   2.986   4.312  15.976 -0.2701 -0.4731  1.7139
 7499TIP3   OH243911   1.876   3.126  14.381  0.1887 -0.1829  0.1822
 7499TIP3    H143912   1.819   3.201  14.362 -1.0164 -0.9969  0.4326
 7499TIP3    H243913   1.850   3.060  14.317 -0.4046 -1.1889  1.4067
 7500TIP3   OH243914   1.612   4.364  12.162 -0.3754  0.5355 -0.3446
 7500TIP3    H143915   1.693   4.352  12.112  0.2224  0.6295  0.5690
 7500TIP3    H243916   1.544   4.377  12.095  0.3511  0.4149 -1.1289
 7501TIP3   OH243917   1.373   5.492  14.031  0.7130 -0.4666 -0.1494
 7501TIP3    H143918   1.419   5.512  13.950  1.7011  0.7371  0.6633
 7501TIP3    H243919   1.285   5.526  14.018 -0.0442 -2.7916 -1.7273
 7502TIP3   OH243920   6.314   3.027   2.023 -0.1738 -0.0397  0.0142
 7502TIP3    H143921   6.400   2.986   2.020  0.1998  0.2094  3.5119
 7502TIP3    H243922   6.330   3.116   2.055 -1.6639  0.3687 -0.2512
 7503TIP3   OH243923   3.065   2.824  15.856 -0.3760 -0.1340 -0.3042
 7503TIP3    H143924   3.093   2.914  15.873  2.0874 -1.0251  0.9187
 7503TIP3    H243925   3.145   2.779  15.827 -1.4500 -2.0165 -0.5304
 7504TIP3   OH243926   3.290   2.093   5.646 -0.4874 -0.1149  0.5428
 7504TIP3    H143927   3.364   2.036   5.666  0.4669  0.6411 -0.6870
 7504TIP3    H243928   3.315   2.178   5.684 -1.4925 -0.2638  1.5820
 7505TIP3   OH243929   4.485   0.573   2.599 -0.2699 -0.2692 -1.0505
 7505TIP3    H143930   4.410   0.540   2.648 -1.5694  3.6725  0.0082
 7505TIP3    H243931   4.562   0.543   2.648 -1.4666  2.0493  2.6374
 7506TIP3   OH243932   0.153   2.582   3.498  0.0598 -0.0901  0.2281
 7506TIP3    H143933   0.151   2.488   3.481  1.1863  0.1415 -1.3445
 7506TIP3    H243934   0.230   2.595   3.552 -0.5661 -0.1484  1.1635
 7507TIP3   OH243935   2.350   0.970  15.861  0.1444 -0.4522  0.2338
 7507TIP3    H143936   2.296   1.028  15.806  0.4212  0.0347  0.4632
 7507TIP3    H243937   2.310   0.976  15.948 -0.2687 -1.1899  0.0952
 7508TIP3   OH243938   0.956   0.951  11.894  0.2362  0.2533  0.2131
 7508TIP3    H143939   1.042   0.925  11.863 -0.1648  2.7388 -3.6242
 7508TIP3    H243940   0.968   1.040  11.929 -0.7442  0.6729 -0.4568
 7509TIP3   OH243941   5.581   6.444  17.145  0.3727  0.2272  0.1630
 7509TIP3    H143942   5.605   6.509  17.211 -1.0764  1.2442 -0.2699
 7509TIP3    H243943   5.648   6.376  17.153  0.8168  0.8216  1.9643
 7510TIP3   OH243944   0.436   2.061  16.878  0.0446 -0.2179  0.1058
 7510TIP3    H143945   0.415   1.980  16.926 -0.0880  0.1519  0.6861
 7510TIP3    H243946   0.371   2.124  16.909  1.1714  0.5815  0.9193
 7511TIP3   OH243947   4.149   5.354  11.430 -0.0597  0.6819 -0.0244
 7511TIP3    H143948   4.192   5.418  11.374  0.6439  0.7975  0.6252
 7511TIP3    H243949   4.149   5.394  11.517  1.4776 -0.6540  0.6411
 7512TIP3   OH243950   3.924   1.801   2.254  0.4352 -0.2250 -0.1830
 7512TIP3    H143951   4.012   1.787   2.289  1.2818  3.6736 -0.3470
 7512TIP3    H243952   3.929   1.769   2.164  0.8819 -2.2606  0.5126
 7513TIP3   OH243953   1.832   4.870  14.811 -0.4924 -0.2798  0.1532
 7513TIP3    H143954   1.781   4.817  14.872 -2.2618  0.7384 -0.3721
 7513TIP3    H243955   1.904   4.905  14.864 -1.2120 -0.5115  1.3111
 7514TIP3   OH243956   2.729   2.155  17.082  0.3269  0.7965  0.1290
 7514TIP3    H143957   2.663   2.222  17.065 -0.6558  0.0711  0.9858
 7514TIP3    H243958   2.804   2.182  17.029 -0.2576  2.2347 -0.0203
 7515TIP3   OH243959   1.660   3.455  16.743  0.1468  0.1524  0.0987
 7515TIP3    H143960   1.651   3.365  16.774 -0.7549  0.5203  0.9399
 7515TIP3    H243961   1.675   3.447  16.649 -1.5559 -0.8354 -0.1210
 7516TIP3   OH243962   5.256   1.722   0.534 -0.3504  0.3305  0.4208
 7516TIP3    H143963   5.193   1.675   0.479 -0.9775  0.8155  0.7081
 7516TIP3    H243964   5.278   1.661   0.604 -0.3525  0.0864  0.2101
 7517TIP3   OH243965   2.813   2.818   5.196  0.2603 -0.3547 -0.0748
 7517TIP3    H143966   2.783   2.731   5.221 -1.0948  0.1887  0.2725
 7517TIP3    H243967   2.908   2.815   5.209  0.2816 -1.8589 -0.3572
 7518TIP3   OH243968   3.990   3.937  11.421  0.0666 -0.7575  0.4172
 7518TIP3    H143969   4.041   3.914  11.499  0.1240 -0.9017  0.3372
 7518TIP3    H243970   3.905   3.895  11.434 -0.2830  0.0655  0.8836
 7519TIP3   OH243971   1.576   6.513  14.651  0.1207  0.0151 -0.4721
 7519TIP3    H143972   1.556   6.478  14.564  0.5443 -0.4334 -0.3927
 7519TIP3    H243973   1.540   6.450  14.712  0.9790 -0.3558 -0.3302
 7520TIP3   OH243974   3.683   0.594   1.702  0.4225  0.3109 -0.1332
 7520TIP3    H143975   3.690   0.631   1.790  1.7901 -1.8759  0.7576
 7520TIP3    H243976   3.689   0.500   1.715 -0.4974 -0.1517 -2.5065
 7521TIP3   OH243977   4.821   2.155   5.621  0.3091 -0.3358 -0.1236
 7521TIP3    H143978   4.825   2.094   5.695 -0.4472  0.0923  0.2746
 7521TIP3    H243979   4.728   2.162   5.601  0.3042  1.3075  0.3493
 7522TIP3   OH243980   3.737   5.061  13.433 -0.1949  0.1605 -1.4621
 7522TIP3    H143981   3.766   5.073  13.524  1.3503  1.6361 -2.0910
 7522TIP3    H243982   3.642   5.060  13.438 -0.2084  2.0116  0.0239
 7523TIP3   OH243983   0.265   4.859  11.487 -0.5869 -0.0645 -0.6517
 7523TIP3    H143984   0.330   4.920  11.452  4.8791 -2.0302  4.4382
 7523TIP3    H243985   0.217   4.910  11.551  1.7005 -0.0946  1.2332
 7524TIP3   OH243986   3.727   2.151  11.797 -0.0701  0.5395 -0.0133
 7524TIP3    H143987   3.781   2.104  11.733 -0.2004  0.2780  0.0652
 7524TIP3    H243988   3.670   2.083  11.834 -0.6513  0.8742 -0.3025
 7525TIP3   OH243989   3.838   1.170  10.796 -0.5300  0.2853  0.5448
 7525TIP3    H143990   3.785   1.130  10.865 -0.9596  1.6511  1.0204
 7525TIP3    H243991   3.781   1.173  10.719 -0.7332  0.6666  0.7150
 7526TIP3   OH243992   3.615   3.551   0.704 -0.1093  0.2937 -0.6974
 7526TIP3    H143993   3.638   3.469   0.748  0.7148  0.0363 -1.5674
 7526TIP3    H243994   3.694   3.605   0.712 -1.2086  1.7174  1.3872
 7527TIP3   OH243995   2.299   3.017   4.064 -0.0439  0.1509 -0.2416
 7527TIP3    H143996   2.241   2.995   4.137  0.7597 -1.3244 -0.0274
 7527TIP3    H243997   2.239   3.041   3.993 -0.9370 -1.2060  0.0222
 7528TIP3   OH243998   0.391   6.450   3.013 -0.6910  0.4176 -0.6187
 7528TIP3    H143999   0.455   6.522   3.019  0.3420 -0.4441 -0.9311
 7528TIP3    H244000   0.394   6.425   2.920 -0.5663 -0.4410 -0.3836
 7529TIP3   OH244001   2.739   5.797   1.233  0.0151  0.0708 -0.6390
 7529TIP3    H144002   2.792   5.876   1.227  1.4216 -0.7797  0.0946
 7529TIP3    H244003   2.709   5.781   1.143  0.1503  1.1404 -0.8804
 7530TIP3   OH244004   1.830   1.666   5.056  0.0191 -0.0521 -0.4003
 7530TIP3    H144005   1.826   1.591   4.998  1.1127 -0.7020  0.3174
 7530TIP3    H244006   1.891   1.726   5.014  0.2482 -0.2063 -0.2960
 7531TIP3   OH244007   4.724   1.231   2.016  0.0022 -0.7336  0.1569
 7531TIP3    H144008   4.675   1.198   1.941 -0.0199  0.4094 -0.3488
 7531TIP3    H244009   4.666   1.216   2.091 -0.3218 -1.1328 -0.1709
 7532TIP3   OH244010   4.342   2.528  14.173 -0.0183  0.0060  0.4880
 7532TIP3    H144011   4.326   2.601  14.234  1.4958 -0.1059  1.0568
 7532TIP3    H244012   4.346   2.451  14.229 -2.1610 -0.6591 -0.1702
 7533TIP3   OH244013   6.394   2.662  12.979 -0.0672 -0.3013 -0.0162
 7533TIP3    H144014   6.358   2.739  13.023 -0.6125 -1.8782  2.4592
 7533TIP3    H244015   6.399   2.688  12.887  0.3993  2.9119  0.7820
 7534TIP3   OH244016   1.988   0.919  10.850  0.1698 -0.0835  0.1885
 7534TIP3    H144017   2.048   0.993  10.861  0.0594 -0.2633  2.7763
 7534TIP3    H244018   2.031   0.847  10.896 -1.0665 -0.8001  0.2654
 7535TIP3   OH244019   0.539   3.399  14.450  0.2709 -0.6455  0.1528
 7535TIP3    H144020   0.634   3.385  14.450  0.0195 -2.7254 -0.0591
 7535TIP3    H244021   0.528   3.486  14.487  2.1924 -1.0238  1.8132
 7536TIP3   OH244022   3.941   2.156  16.108 -0.3194  0.2110  0.6549
 7536TIP3    H144023   3.956   2.179  16.016  0.1007  0.0004  0.6639
 7536TIP3    H244024   3.904   2.067  16.104 -1.4825  0.6802  0.6396
 7537TIP3   OH244025   1.521   4.667   3.553 -0.0003  0.3086  0.8136
 7537TIP3    H144026   1.575   4.746   3.542 -1.2029  1.0104 -0.3844
 7537TIP3    H244027   1.531   4.619   3.471 -1.1679  0.4432  0.5730
 7538TIP3   OH244028   5.070   6.149   2.241 -0.2788  0.1293  0.4315
 7538TIP3    H144029   5.162   6.176   2.250  0.6524 -0.9703 -3.8018
 7538TIP3    H244030   5.027   6.224   2.200  0.0387 -1.0108 -2.2160
 7539TIP3   OH244031   5.062   4.937   2.743 -0.2549  0.2275  0.0070
 7539TIP3    H144032   5.074   4.852   2.786 -0.2199 -1.4415 -3.0449
 7539TIP3    H244033   5.149   4.958   2.708 -0.7583  0.3660 -1.1899
 7540TIP3   OH244034   5.228   5.793   4.554  0.0729 -0.5680  0.2677
 7540TIP3    H144035   5.235   5.885   4.581 -0.2095 -0.2170 -0.8253
 7540TIP3    H244036   5.240   5.744   4.635  2.9532  0.3221  0.4824
 7541TIP3   OH244037   6.008   5.532   3.335  0.1597  0.1890 -0.0594
 7541TIP3    H144038   6.100   5.506   3.340  0.2160  0.3104 -0.4418
 7541TIP3    H244039   6.002   5.611   3.388  0.4466  0.6411 -0.6870
 7542TIP3   OH244040   2.654   5.143  13.239  0.0379  0.3561 -0.3341
 7542TIP3    H144041   2.632   5.078  13.173 -0.1583  1.0300 -0.9519
 7542TIP3    H244042   2.671   5.223  13.189  2.2110  0.3185  0.2346
 7543TIP3   OH244043   6.010   3.282  13.702  0.4045 -0.3763 -0.3720
 7543TIP3    H144044   6.096   3.253  13.672  1.6379  3.7806 -1.5228
 7543TIP3    H244045   5.990   3.359  13.648 -5.1105 -2.2321 -1.6598
 7544TIP3   OH244046   2.202   3.393  12.503  0.2358  0.1034  0.1806
 7544TIP3    H144047   2.155   3.465  12.462  0.6550  0.0729 -0.3777
 7544TIP3    H244048   2.207   3.326  12.434  1.0967  0.1150  0.2252
 7545TIP3   OH244049   0.546   2.585  14.260 -0.2599  0.1666 -0.0013
 7545TIP3    H144050   0.635   2.616  14.245  0.0719 -0.5508  0.4253
 7545TIP3    H244051   0.504   2.590  14.174 -0.1966  1.6737  0.0289
 7546TIP3   OH244052   3.774   0.116  11.954 -1.1003 -0.1469 -0.6273
 7546TIP3    H144053   3.780   0.192  11.896  0.3977  0.0547 -0.2654
 7546TIP3    H244054   3.717   0.055  11.908 -1.4280  0.7534 -1.4471
 7547TIP3   OH244055   1.727   5.715   0.320 -0.1343  0.8632  0.1986
 7547TIP3    H144056   1.692   5.753   0.400 -2.5756  0.1583 -0.4467
 7547TIP3    H244057   1.755   5.627   0.345  1.1163  1.3909  0.7011
 7548TIP3   OH244058   4.388   4.722   5.733  0.5022  0.0514 -0.1177
 7548TIP3    H144059   4.437   4.749   5.655  1.4859  0.5567  0.6452
 7548TIP3    H244060   4.410   4.629   5.744  0.0448 -0.1252 -0.6566
 7549TIP3   OH244061   4.102   5.623  16.565  0.2768 -0.4487  0.0605
 7549TIP3    H144062   4.133   5.616  16.655  1.2058 -2.0184 -0.3563
 7549TIP3    H244063   4.101   5.533  16.532 -0.7807  0.0125 -1.2692
 7550TIP3   OH244064   6.568   4.396   3.052  0.4944  0.5055  0.1936
 7550TIP3    H144065   6.541   4.401   3.144 -1.2172  0.1209 -0.2560
 7550TIP3    H244066   6.536   4.477   3.013 -0.1595 -0.0313 -0.3969
 7551TIP3   OH244067   5.357   1.770  11.406  0.0070  0.2127  0.6064
 7551TIP3    H144068   5.309   1.842  11.364  1.5373  0.7660 -0.2655
 7551TIP3    H244069   5.406   1.813  11.476  2.0323  0.3127 -0.8049
 7552TIP3   OH244070   5.452   0.765   0.719 -0.1067 -0.1653 -0.8718
 7552TIP3    H144071   5.456   0.685   0.772  0.3834 -0.6166 -1.5533
 7552TIP3    H244072   5.515   0.824   0.760  1.0470 -0.8900 -1.5131
 7553TIP3   OH244073   3.734   1.865  13.368  0.1314 -0.2386 -0.6010
 7553TIP3    H144074   3.715   1.956  13.347 -2.8396  0.2012  3.0010
 7553TIP3    H244075   3.808   1.870  13.429  0.5699 -0.3944 -1.1026
 7554TIP3   OH244076   1.442   5.845  14.685 -0.6042  0.3447  0.3583
 7554TIP3    H144077   1.485   5.879  14.763 -1.5231 -3.0154  2.5346
 7554TIP3    H244078   1.499   5.774  14.656 -1.7690 -0.3693 -0.2329
 7555TIP3   OH244079   1.911   1.838  15.355  0.5101 -0.6359 -0.5197
 7555TIP3    H144080   1.840   1.853  15.418  2.6650  0.3308  1.8571
 7555TIP3    H244081   1.983   1.804  15.408  2.5143  0.4072 -2.4106
 7556TIP3   OH244082   0.803   3.959  15.979  0.4567 -0.2840 -0.3439
 7556TIP3    H144083   0.887   4.004  15.979 -0.0893  0.8434  1.4337
 7556TIP3    H244084   0.753   4.001  16.049 -0.8494 -2.2986  0.0175
 7557TIP3   OH244085   5.080   4.630   3.984 -0.3046  0.0696 -0.3890
 7557TIP3    H144086   5.175   4.639   3.989 -0.3356  0.0873  3.3613
 7557TIP3    H244087   5.050   4.709   3.939  1.3819  0.7451 -0.3858
 7558TIP3   OH244088   1.177   5.218  16.009  0.2179  0.2611 -0.0984
 7558TIP3    H144089   1.108   5.168  16.053  0.0706  1.3348  0.9385
 7558TIP3    H244090   1.257   5.170  16.029  0.2704  1.1270  2.0822
 7559TIP3   OH244091   2.525   2.964  13.615 -0.2707  0.1713 -0.1844
 7559TIP3    H144092   2.569   3.045  13.642  2.6011 -1.2573 -0.1700
 7559TIP3    H244093   2.588   2.895  13.635 -2.5424 -2.1159 -0.3115
 7560TIP3   OH244094   3.731   2.596   0.178 -0.1898 -0.3049 -0.7838
 7560TIP3    H144095   3.727   2.609   0.273  0.7751  0.7181 -0.8663
 7560TIP3    H244096   3.647   2.555   0.156 -0.7716  0.2105  0.3932
 7561TIP3   OH244097   1.082   5.857   4.945 -0.4380 -0.5231  0.0392
 7561TIP3    H144098   1.165   5.852   4.898 -0.7009  0.0845 -0.5148
 7561TIP3    H244099   1.093   5.931   5.005 -0.8268  0.0493 -0.5732
 7562TIP3   OH244100   0.990   2.623   0.608 -0.0741 -0.1239 -0.5208
 7562TIP3    H144101   0.958   2.552   0.664 -0.7052  0.1369 -0.5405
 7562TIP3    H244102   1.085   2.616   0.612 -0.1106  0.0207  0.7452
 7563TIP3   OH244103   0.307   1.393   5.778 -0.6130  0.3918  0.2489
 7563TIP3    H144104   0.284   1.308   5.741  0.1290  0.0780  0.4941
 7563TIP3    H244105   0.232   1.449   5.757 -0.5034  0.0547 -1.1589
 7564TIP3   OH244106   6.705   0.722  14.180 -0.1630  0.4363  0.2208
 7564TIP3    H144107   6.714   0.749  14.271  3.8610  3.3321 -0.7888
 7564TIP3    H244108   6.626   0.767  14.149 -1.0928  0.1007  1.9865
 7565TIP3   OH244109   2.622   2.685   2.397  0.1332  0.3683  0.5776
 7565TIP3    H144110   2.555   2.686   2.328  0.6041  1.1882  0.1106
 7565TIP3    H244111   2.686   2.620   2.367  0.5455  1.0177  0.0211
 7566TIP3   OH244112   1.219   1.990  14.075 -0.1111 -0.0695 -0.1979
 7566TIP3    H144113   1.224   1.924  14.005  0.2605  0.4150 -0.6394
 7566TIP3    H244114   1.280   2.059  14.047 -0.6164  0.5397  0.1745
 7567TIP3   OH244115   0.390   3.435   1.132 -0.4244 -0.2520  0.2621
 7567TIP3    H144116   0.309   3.477   1.160 -0.3756  0.5432 -0.7312
 7567TIP3    H244117   0.441   3.506   1.093 -0.1007 -1.1263 -0.9707
 7568TIP3   OH244118   1.951   3.613  10.563 -0.8817 -0.3514  0.0235
 7568TIP3    H144119   1.866   3.586  10.598  0.3737 -1.6057  2.2567
 7568TIP3    H244120   1.977   3.542  10.504 -0.1419 -1.3689  1.5304
 7569TIP3   OH244121   4.089   4.499   1.534 -0.4995  0.5648 -0.3767
 7569TIP3    H144122   4.005   4.522   1.496 -1.1181 -0.5365  0.2690
 7569TIP3    H244123   4.142   4.578   1.525 -1.9784  1.6695  0.2708
 7570TIP3   OH244124   4.378   2.360  16.042 -0.0529  0.4805  0.1206
 7570TIP3    H144125   4.473   2.370  16.040 -0.2063  2.1547 -0.3826
 7570TIP3    H244126   4.347   2.428  16.101 -1.0550  1.1589 -1.1331
 7571TIP3   OH244127   6.518   5.095   1.867  0.5575 -0.9773  0.0996
 7571TIP3    H144128   6.548   5.029   1.929  0.0977  0.6416  2.1831
 7571TIP3    H244129   6.595   5.148   1.849  0.2949 -0.3365  0.7990
 7572TIP3   OH244130   3.207   4.066   1.323 -0.3767  0.6825  0.1641
 7572TIP3    H144131   3.165   4.088   1.240 -1.4057  1.3928  0.8540
 7572TIP3    H244132   3.295   4.104   1.317 -0.5802  1.0587 -0.4383
 7573TIP3   OH244133   0.931   3.015   3.099  0.1788  0.5302  0.1268
 7573TIP3    H144134   0.938   3.062   3.016 -1.0719  0.2983 -0.1162
 7573TIP3    H244135   0.885   3.076   3.158 -0.8134 -0.0953  0.0198
 7574TIP3   OH244136   1.077   5.084  16.318 -0.2194 -0.2950 -0.2626
 7574TIP3    H144137   1.120   5.000  16.331 -0.7066 -0.2359  2.1225
 7574TIP3    H244138   1.118   5.143  16.382 -0.3514  1.1295 -1.4227
 7575TIP3   OH244139   4.149   1.004   4.796  0.5484 -0.1525 -0.2838
 7575TIP3    H144140   4.088   1.052   4.852  1.0244  1.0392 -0.7639
 7575TIP3    H244141   4.181   1.069   4.734  1.2470 -1.0889 -0.9312
 7576TIP3   OH244142   2.545   4.977  15.090  0.3103  0.1646 -0.4817
 7576TIP3    H144143   2.525   4.901  15.035  0.8890  0.7075 -1.4875
 7576TIP3    H244144   2.622   5.017  15.047  1.3071  0.1351  1.2012
 7577TIP3   OH244145   6.409   0.951   3.261 -0.0390  0.3092 -0.3420
 7577TIP3    H144146   6.469   0.884   3.293  2.1806  2.0244 -0.6696
 7577TIP3    H244147   6.415   0.947   3.166 -0.1608  0.7221 -0.3723
 7578TIP3   OH244148   1.017   5.995   2.552  0.2949  0.1388  0.4362
 7578TIP3    H144149   1.111   6.008   2.552  0.1693  1.2679  1.5261
 7578TIP3    H244150   0.981   6.081   2.573 -1.0212 -0.0902 -0.7213
 7579TIP3   OH244151   3.942   2.482  10.754 -0.5157  0.0147 -0.4097
 7579TIP3    H144152   3.914   2.405  10.804 -0.2750  1.2823  1.7894
 7579TIP3    H244153   3.860   2.518  10.718 -1.4786  1.6310  2.9542
 7580TIP3   OH244154   3.802   2.201  12.146 -0.3080  0.2136 -0.7086
 7580TIP3    H144155   3.803   2.115  12.188  2.5503  0.9733  1.0372
 7580TIP3    H244156   3.739   2.252  12.197  0.6916  0.1713  0.5989
 7581TIP3   OH244157   2.521   2.404  16.154 -0.6797 -0.1110 -0.4038
 7581TIP3    H144158   2.498   2.335  16.216 -1.4964 -0.6812 -1.3121
 7581TIP3    H244159   2.610   2.383  16.126 -0.9130 -0.7948 -0.6541
 7582TIP3   OH244160   0.084   3.721  11.450 -0.1270  0.6245 -0.5538
 7582TIP3    H144161   0.138   3.726  11.371  0.5702  1.2176 -0.0503
 7582TIP3    H244162   0.028   3.798  11.445 -1.5416 -0.4236 -1.4917
 7583TIP3   OH244163   3.120   1.601   0.774 -0.1327 -0.0079 -0.0379
 7583TIP3    H144164   3.168   1.631   0.697  0.5659  2.0032  1.1212
 7583TIP3    H244165   3.116   1.677   0.831 -0.5763 -1.4678  1.9695
 7584TIP3   OH244166   2.404   2.851  16.157  0.1083  0.3204 -0.2710
 7584TIP3    H144167   2.359   2.766  16.156 -0.2220  0.4895 -1.7469
 7584TIP3    H244168   2.492   2.831  16.125 -0.1223  0.6002 -1.0999
 7585TIP3   OH244169   6.302   0.630   4.011  0.1328  0.1723  0.0929
 7585TIP3    H144170   6.258   0.548   4.030  0.3071  0.5991  2.7124
 7585TIP3    H244171   6.233   0.687   3.976 -0.9088  0.0922  1.9222
 7586TIP3   OH244172   0.900   5.115   0.581 -0.6420  0.0310 -0.5702
 7586TIP3    H144173   0.876   5.151   0.496 -0.5734  0.7751 -0.2809
 7586TIP3    H244174   0.958   5.180   0.620 -0.8404 -0.2007  0.1371
 7587TIP3   OH244175   2.102   6.515  12.737 -0.1936 -0.4369  0.1286
 7587TIP3    H144176   2.106   6.495  12.830  1.0790 -0.2875  0.1317
 7587TIP3    H244177   2.128   6.434  12.694  1.7561  0.1876  0.0231
 7588TIP3   OH244178   2.789   6.798  14.189  0.9234 -0.0118  0.0186
 7588TIP3    H144179   2.766   6.879  14.236  2.0961  0.5168 -0.2755
 7588TIP3    H244180   2.796   6.825  14.098  1.3909 -0.4231 -0.0718
 7589TIP3   OH244181   2.806   0.888  16.976 -0.1958 -1.0469 -0.4237
 7589TIP3    H144182   2.887   0.920  17.014 -0.1147  0.3018 -1.6279
 7589TIP3    H244183   2.830   0.862  16.887 -1.2706  0.6265 -1.2739
 7590TIP3   OH244184   0.021   5.336  16.300 -0.2671 -0.2953 -0.4726
 7590TIP3    H144185  -0.022   5.336  16.385 -1.3166 -1.4967 -0.9655
 7590TIP3    H244186  -0.036   5.389  16.244  1.3435  2.0313 -0.0534
 7591TIP3   OH244187   2.081   2.081  11.287  0.0041  0.6114 -0.1498
 7591TIP3    H144188   2.055   2.146  11.222  0.5769  0.7396 -0.2585
 7591TIP3    H244189   2.165   2.048  11.255 -1.2180 -1.7125 -1.2350
 7592TIP3   OH244190   4.417   4.478   2.884 -0.2094  0.1673  0.1178
 7592TIP3    H144191   4.449   4.405   2.831 -2.1527  0.5987 -1.8094
 7592TIP3    H244192   4.456   4.556   2.845 -0.4954  0.3715  0.2325
 7593TIP3   OH244193   3.731   6.775   3.409 -0.5567  0.6729  0.1563
 7593TIP3    H144194   3.802   6.714   3.431 -1.3497 -0.6288 -0.7854
 7593TIP3    H244195   3.652   6.722   3.409 -1.4259  1.9039  0.1944
 7594TIP3   OH244196   4.552   2.787  16.040  0.1025  0.1930 -0.1029
 7594TIP3    H144197   4.511   2.801  15.954  0.9597  3.3196 -0.1073
 7594TIP3    H244198   4.637   2.749  16.019 -0.0676  0.0458 -0.5577
 7595TIP3   OH244199   5.698   3.882   3.799  0.4176 -0.5036  0.3702
 7595TIP3    H144200   5.688   3.958   3.741  0.3423 -0.9167 -0.1534
 7595TIP3    H244201   5.616   3.880   3.849 -0.1923 -1.0893 -0.6277
 7596TIP3   OH244202   4.942   1.569   3.141  0.3349  0.1732  0.6179
 7596TIP3    H144203   4.880   1.570   3.215  0.1608  1.4199  0.4854
 7596TIP3    H244204   5.016   1.518   3.173 -0.1977 -0.2223  1.2614
 7597TIP3   OH244205   6.382   3.385  14.114  0.2635 -0.2742  0.5620
 7597TIP3    H144206   6.357   3.352  14.200 -0.0146 -0.7256  0.3083
 7597TIP3    H244207   6.355   3.317  14.053  1.0575 -0.2537  0.1718
 7598TIP3   OH244208   2.187   4.415   5.144 -0.4448 -0.0640  0.2016
 7598TIP3    H144209   2.116   4.448   5.089 -0.8104  0.0725  0.7515
 7598TIP3    H244210   2.246   4.491   5.155 -0.9950  0.2671  0.9945
 7599TIP3   OH244211   3.552   1.440  14.674 -0.2319 -0.3432 -0.1597
 7599TIP3    H144212   3.636   1.487  14.680 -0.8927  0.9881 -0.9345
 7599TIP3    H244213   3.512   1.451  14.760  0.0213 -0.2704 -0.0501
 7600TIP3   OH244214   5.894   0.778  15.837 -0.5760 -0.1878 -0.3090
 7600TIP3    H144215   5.874   0.813  15.924 -0.1458  0.7039 -0.5552
 7600TIP3    H244216   5.812   0.739  15.807 -1.9385  2.9872 -1.1092
 7601TIP3   OH244217   1.395   6.032   4.557 -0.1669 -0.5777  0.7815
 7601TIP3    H144218   1.317   6.053   4.506  0.0368 -0.8665  0.3346
 7601TIP3    H244219   1.456   5.994   4.492  0.7473  0.6109  0.9003
 7602TIP3   OH244220   4.672   2.598   4.059  0.6829  0.0584 -0.4272
 7602TIP3    H144221   4.653   2.688   4.030 -1.7183 -0.0153  0.6770
 7602TIP3    H244222   4.598   2.547   4.028  0.4433 -0.9227  1.6000
 7603TIP3   OH244223   2.193   4.984  12.186  0.5210 -0.5708 -0.7895
 7603TIP3    H144224   2.253   5.010  12.116 -0.0707 -1.2128 -1.5525
 7603TIP3    H244225   2.202   5.053  12.252  1.5805 -0.3024 -1.1951
 7604TIP3   OH244226   2.983   3.138   5.671  0.1718 -0.0093  0.9266
 7604TIP3    H144227   3.009   3.227   5.647 -0.1507  0.0174  0.6636
 7604TIP3    H244228   3.065   3.094   5.693  0.3410  0.3297  0.9841
 7605TIP3   OH244229   0.826   0.140   1.674 -0.2040 -0.4673  0.0410
 7605TIP3    H144230   0.744   0.154   1.626 -1.0677 -0.2156  1.5386
 7605TIP3    H244231   0.884   0.210   1.643 -0.6668 -0.4406 -0.7820
 7606TIP3   OH244232   6.615   4.101   1.469  0.1971  0.4011 -0.0205
 7606TIP3    H144233   6.688   4.053   1.508 -0.1809  0.2707  0.5399
 7606TIP3    H244234   6.635   4.103   1.375  0.0524 -1.1449 -0.1026
 7607TIP3   OH244235   3.446   5.812  15.660  0.1971  0.1630  0.3281
 7607TIP3    H144236   3.394   5.849  15.589 -0.2246  1.9728  1.5134
 7607TIP3    H244237   3.524   5.868  15.663  1.0117 -0.9258  0.2530
 7608TIP3   OH244238   2.535   2.505  14.314 -0.0782  0.1734  0.3948
 7608TIP3    H144239   2.451   2.551  14.315  0.1872  0.7354  2.8233
 7608TIP3    H244240   2.546   2.474  14.404  1.1542 -2.1046 -0.4646
 7609TIP3   OH244241   3.427   4.873   5.315  0.2658  0.4387  0.3742
 7609TIP3    H144242   3.448   4.784   5.344  0.2610  0.6088  0.9141
 7609TIP3    H244243   3.371   4.908   5.385 -1.7982  0.0140 -0.9524
 7610TIP3   OH244244   1.485   1.129  12.726 -0.2901 -0.4061  0.3204
 7610TIP3    H144245   1.411   1.181  12.693 -0.5812 -1.4951 -0.8617
 7610TIP3    H244246   1.509   1.073  12.651 -0.1619 -2.1242  1.5825
 7611TIP3   OH244247   5.896   0.691  14.154 -0.8165 -0.2447  0.3209
 7611TIP3    H144248   5.938   0.756  14.098 -0.4885 -2.0692 -1.6376
 7611TIP3    H244249   5.927   0.713  14.242  2.2353  0.0565 -0.7162
 7612TIP3   OH244250   2.603   1.357   4.276 -0.0452 -0.1029 -0.0375
 7612TIP3    H144251   2.582   1.268   4.247 -0.6089  0.4139 -1.2717
 7612TIP3    H244252   2.631   1.346   4.367 -1.4600 -1.3721  0.2935
 7613TIP3   OH244253   2.899   5.179   0.628  0.3786 -0.3315 -0.9050
 7613TIP3    H144254   2.862   5.136   0.551 -1.7954 -0.6371  0.2300
 7613TIP3    H244255   2.861   5.267   0.626 -0.6058 -0.6971  0.3631
 7614TIP3   OH244256   2.033   3.389  16.095  0.0031 -0.9010 -0.2590
 7614TIP3    H144257   2.040   3.446  16.018 -0.1489  0.5525  0.7724
 7614TIP3    H244258   2.107   3.328  16.085  0.8068  0.1343 -0.8651
 7615TIP3   OH244259   0.929   2.060  11.742  0.5256 -0.2411 -0.3115
 7615TIP3    H144260   0.859   2.006  11.705 -1.3324 -0.0508  2.5511
 7615TIP3    H244261   0.904   2.150  11.719 -0.4920 -0.1409  1.0446
 7616TIP3   OH244262   2.396   3.917  11.128 -0.6804 -0.5678  0.4610
 7616TIP3    H144263   2.316   3.898  11.080 -0.2706  0.2577 -0.5753
 7616TIP3    H244264   2.456   3.953  11.063 -0.7483  2.4206  1.8518
 7617TIP3   OH244265   2.383   0.059   3.600  0.8483  0.7579 -0.1389
 7617TIP3    H144266   2.380  -0.015   3.660  0.3252  0.9410  0.0600
 7617TIP3    H244267   2.301   0.054   3.550  1.7646 -0.0658 -1.6542
 7618TIP3   OH244268   3.768   3.452  16.816  0.8908  0.2485  0.1823
 7618TIP3    H144269   3.691   3.415  16.860  0.9478  0.7344  0.7028
 7618TIP3    H244270   3.750   3.546  16.812  0.5782  0.1465 -1.4542
 7619TIP3   OH244271   5.791   1.873  12.248  0.3053 -0.0142  0.0673
 7619TIP3    H144272   5.826   1.800  12.298 -1.0614 -1.2093 -0.6491
 7619TIP3    H244273   5.846   1.947  12.272  1.0895 -1.0428  1.5892
 7620TIP3   OH244274   1.608   1.509  14.675  0.5773  0.1563 -0.2949
 7620TIP3    H144275   1.565   1.531  14.758  0.8155 -1.6396  0.3503
 7620TIP3    H244276   1.698   1.540  14.686  0.8872 -0.9823  0.5566
 7621TIP3   OH244277   3.162   6.115  13.716 -0.6619  0.2960 -0.0065
 7621TIP3    H144278   3.159   6.206  13.686  2.0581  0.8085  0.9954
 7621TIP3    H244279   3.172   6.122  13.811 -0.3888 -1.0684  0.0783
 7622TIP3   OH244280   0.766   6.507   2.194  0.5843  0.0627  0.2290
 7622TIP3    H144281   0.823   6.501   2.270 -1.6090 -2.3223  1.8416
 7622TIP3    H244282   0.799   6.441   2.133  1.7684  1.3267 -0.5569
 7623TIP3   OH244283   3.250   6.139  14.262 -0.4948 -0.6089  0.1570
 7623TIP3    H144284   3.332   6.096  14.286 -1.1926 -1.8269  0.4469
 7623TIP3    H244285   3.272   6.232  14.257  0.9081 -0.9192  0.1810
 7624TIP3   OH244286   3.083   2.850  11.208  0.3399 -0.5815 -0.1886
 7624TIP3    H144287   3.137   2.826  11.284  1.7363  0.3248 -0.8505
 7624TIP3    H244288   3.143   2.896  11.150 -1.6189  2.3701 -0.0749
 7625TIP3   OH244289   3.279   3.272  12.242 -0.9961  0.0078  0.2477
 7625TIP3    H144290   3.213   3.230  12.187 -0.6956 -1.8070  1.2065
 7625TIP3    H244291   3.300   3.207  12.309  1.0348  0.9067  0.5667
 7626TIP3   OH244292   3.601   4.993   3.406 -0.2222 -0.0630 -0.3194
 7626TIP3    H144293   3.658   4.997   3.329  0.2557 -0.7324 -0.0141
 7626TIP3    H244294   3.543   4.918   3.389 -0.4731  0.1213 -0.2733
 7627TIP3   OH244295   0.214   2.779  10.683  0.0401  0.0435 -0.0486
 7627TIP3    H144296   0.220   2.685  10.662  0.1334  0.0817 -0.1915
 7627TIP3    H244297   0.274   2.821  10.622  0.6349  0.1192  0.5813
 7628TIP3   OH244298   3.932   2.315  15.376 -0.4131 -0.3599  0.0850
 7628TIP3    H144299   3.906   2.356  15.459 -1.2126  0.4791 -0.5578
 7628TIP3    H244300   3.978   2.385  15.329 -2.7374  0.2160 -1.4846
 7629TIP3   OH244301   5.171   0.465   5.673  0.1210  0.1177  0.5487
 7629TIP3    H144302   5.232   0.461   5.600 -1.2401  1.8353 -0.7853
 7629TIP3    H244303   5.148   0.374   5.691 -0.3128 -0.3262 -1.8986
 7630TIP3   OH244304   4.332   4.960  11.163  0.0324  0.1020 -0.5470
 7630TIP3    H144305   4.349   4.904  11.088 -0.8533  0.0235 -0.7049
 7630TIP3    H244306   4.298   5.042  11.125 -0.8837 -0.1130 -0.2339
 7631TIP3   OH244307   5.873   5.799   3.722 -0.1032  0.0311  0.0912
 7631TIP3    H144308   5.785   5.817   3.755 -0.9668 -0.8289 -1.5723
 7631TIP3    H244309   5.899   5.718   3.767 -0.8571 -0.5907 -0.5473
 7632TIP3   OH244310   0.912   0.923  13.423  0.3719  0.0410  0.0743
 7632TIP3    H144311   1.008   0.920  13.433  0.2079 -0.9875  1.7559
 7632TIP3    H244312   0.884   0.833  13.438 -0.9620  0.5732  0.9111
 7633TIP3   OH244313   0.941   2.078  14.411  0.5969 -0.5505  0.1426
 7633TIP3    H144314   1.033   2.105  14.418  0.2633  0.1998  2.3303
 7633TIP3    H244315   0.938   1.992  14.452  0.0287  0.2593  1.8820
 7634TIP3   OH244316   2.160   6.323  11.542 -0.9930 -0.7266 -0.4865
 7634TIP3    H144317   2.132   6.306  11.453  0.0112  1.2077 -1.2329
 7634TIP3    H244318   2.084   6.304  11.596 -2.4883  0.5561 -2.0408
 7635TIP3   OH244319   2.258   0.273  14.988 -0.2629 -0.3822  0.8892
 7635TIP3    H144320   2.316   0.349  14.999 -0.3071 -0.0930 -0.6556
 7635TIP3    H244321   2.236   0.247  15.077  0.4982  0.8519  1.4666
 7636TIP3   OH244322   2.538   2.898  10.932  0.0613  0.2710  0.2822
 7636TIP3    H144323   2.530   2.818  10.879 -0.3259  0.1513  0.5218
 7636TIP3    H244324   2.628   2.928  10.915  0.3190 -0.3872  0.4287
 7637TIP3   OH244325   6.321   0.609  16.678 -0.4552  0.4865 -0.3627
 7637TIP3    H144326   6.293   0.700  16.680  0.0830  0.6545  0.6987
 7637TIP3    H244327   6.401   0.609  16.625 -0.2837  0.6941 -0.1077
 7638TIP3   OH244328   2.054   0.309  13.199  0.3023 -0.1325 -0.0993
 7638TIP3    H144329   2.042   0.403  13.204  0.7125  0.0120 -1.3893
 7638TIP3    H244330   1.985   0.278  13.140 -0.5352 -0.8116  1.1924
 7639TIP3   OH244331   5.788   3.014  11.063  0.5563  0.1655 -0.1726
 7639TIP3    H144332   5.761   2.925  11.083 -1.0135  1.1071  2.5081
 7639TIP3    H244333   5.745   3.034  10.979 -0.8393 -0.9092  0.2476
 7640TIP3   OH244334   6.503   3.154   5.164  0.1251 -0.1404 -0.1031
 7640TIP3    H144335   6.597   3.149   5.178  0.1846 -2.0219 -0.8592
 7640TIP3    H244336   6.465   3.153   5.252  0.7763 -0.8875  0.1735
 7641TIP3   OH244337   5.155   4.744   4.777  0.1996  0.1122 -0.7742
 7641TIP3    H144338   5.129   4.829   4.813  1.0152 -0.5616  1.5856
 7641TIP3    H244339   5.228   4.764   4.719  0.7616  1.0005  0.1983
 7642TIP3   OH244340   1.649   3.841   2.557 -0.1633 -0.2360 -0.0160
 7642TIP3    H144341   1.626   3.786   2.482 -0.3274  0.1207 -0.2283
 7642TIP3    H244342   1.616   3.793   2.633 -0.1941 -0.4928 -0.1909
 7643TIP3   OH244343   0.286   4.109  10.982  0.2103 -0.3483 -0.5137
 7643TIP3    H144344   0.284   4.014  10.975 -2.3426 -0.3942 -0.3356
 7643TIP3    H244345   0.252   4.140  10.898 -0.0256  0.3432 -0.1745
 7644TIP3   OH244346   2.629   2.075  16.303  0.0784 -0.0534  0.5374
 7644TIP3    H144347   2.651   1.988  16.334  1.0862  0.2498  0.7285
 7644TIP3    H244348   2.560   2.105  16.361 -0.1415 -0.6512  0.5880
 7645TIP3   OH244349   2.502   5.583   5.832 -0.1593  0.3820  0.5813
 7645TIP3    H144350   2.566   5.633   5.781 -1.3113  2.2079  0.8200
 7645TIP3    H244351   2.536   5.494   5.832  0.6184  0.5681 -2.1942
 7646TIP3   OH244352   6.345   4.730  10.722  0.3849  0.6095 -0.7998
 7646TIP3    H144353   6.405   4.658  10.742  0.9307  1.5804  1.4711
 7646TIP3    H244354   6.386   4.806  10.763 -0.7920  1.9801 -2.0602
 7647TIP3   OH244355   4.906   4.616  16.453 -0.5680 -0.8415 -0.0898
 7647TIP3    H144356   4.971   4.671  16.497 -2.5054  0.6961  1.0232
 7647TIP3    H244357   4.859   4.676  16.394 -0.9437 -1.9208 -0.9312
 7648TIP3   OH244358   5.276   4.438  13.013 -0.2810 -0.0802 -0.3073
 7648TIP3    H144359   5.319   4.512  13.055 -1.8704  0.8951 -0.3387
 7648TIP3    H244360   5.183   4.458  13.018 -0.7384 -1.9611 -0.5603
 7649TIP3   OH244361   4.481   1.320   5.113  0.1928  0.6889  0.2423
 7649TIP3    H144362   4.464   1.314   5.207  1.0029  1.5982  0.4608
 7649TIP3    H244363   4.536   1.398   5.103 -1.2516  1.5821 -1.1766
 7650TIP3   OH244364   1.157   2.598  15.789 -0.2769  0.0452 -0.7165
 7650TIP3    H144365   1.083   2.658  15.795 -1.3000 -1.1630 -0.7497
 7650TIP3    H244366   1.201   2.604  15.874 -1.3992 -0.4186 -0.0834
 7651TIP3   OH244367   4.340   6.038   5.034  0.1306  0.0325 -0.1630
 7651TIP3    H144368   4.349   6.053   5.128 -0.5782  0.1891 -0.1125
 7651TIP3    H244369   4.282   5.962   5.028 -0.6720  0.6536 -0.4766
 7652TIP3   OH244370   5.192   6.470  12.052  0.1872  0.1402 -0.2101
 7652TIP3    H144371   5.174   6.561  12.032 -4.3344  0.0005  1.8702
 7652TIP3    H244372   5.228   6.471  12.141  0.5385 -0.0651 -0.3505
 7653TIP3   OH244373   2.623   4.982  11.716 -0.1626 -0.5122  0.7313
 7653TIP3    H144374   2.536   5.021  11.719  0.5874  1.2433  0.9630
 7653TIP3    H244375   2.612   4.902  11.664 -1.6718  0.2927 -0.2626
 7654TIP3   OH244376   3.995   4.803  11.223 -0.4956 -0.0060  0.0494
 7654TIP3    H144377   4.004   4.707  11.225  1.7088  0.0935 -1.0226
 7654TIP3    H244378   4.046   4.833  11.298 -0.6218  0.3420 -0.0049
 7655TIP3   OH244379   2.474   3.024  14.531 -0.1082 -0.2785  0.1659
 7655TIP3    H144380   2.455   3.068  14.614 -0.5366 -1.4099  0.6923
 7655TIP3    H244381   2.401   2.963  14.520 -0.8866  0.9159 -1.8262
 7656TIP3   OH244382   0.021   6.659  12.321 -0.2333  0.2710 -0.6858
 7656TIP3    H144383   0.078   6.633  12.393 -1.4940  0.2542  0.3518
 7656TIP3    H244384  -0.043   6.718  12.361 -0.7292  0.5672 -1.8724
 7657TIP3   OH244385   0.334   1.068  12.011  0.1245 -0.0721 -0.2739
 7657TIP3    H144386   0.282   1.144  11.984 -0.7314 -1.1967 -2.0087
 7657TIP3    H244387   0.277   0.993  11.993  0.2806 -1.1027  3.0027
 7658TIP3   OH244388   5.936   1.781   2.354  0.1627  0.7185 -0.1444
 7658TIP3    H144389   5.938   1.851   2.419 -0.3990  1.3078 -0.7425
 7658TIP3    H244390   5.920   1.701   2.404 -3.1772  1.4693  0.2231
 7659TIP3   OH244391   4.531   1.008   3.081  0.3487  0.0218 -0.1024
 7659TIP3    H144392   4.461   0.984   3.142  0.0964 -0.3279 -0.5313
 7659TIP3    H244393   4.489   1.065   3.017 -0.2470 -2.4566 -2.0427
 7660TIP3   OH244394   2.401   5.774   0.014 -0.0579 -0.0209 -0.2856
 7660TIP3    H144395   2.425   5.737  -0.071  0.4274  1.0238 -0.6178
 7660TIP3    H244396   2.319   5.821  -0.002 -0.2917 -0.3357 -0.0292
 7661TIP3   OH244397   3.780   2.468  15.033  0.4512 -0.3319  0.1351
 7661TIP3    H144398   3.790   2.380  15.070  0.0080 -0.0852  0.8666
 7661TIP3    H244399   3.828   2.465  14.950 -1.1192 -1.8275 -0.7851
 7662TIP3   OH244400   1.543   3.685  10.747  0.9232 -0.1547  0.2550
 7662TIP3    H144401   1.605   3.637  10.692  0.7425  1.0967 -1.0921
 7662TIP3    H244402   1.475   3.621  10.767  1.8737 -1.1216  0.5131
 7663TIP3   OH244403   0.334   5.768   3.364 -0.3739  0.1808  0.8960
 7663TIP3    H144404   0.425   5.782   3.387 -0.1126 -0.6449  0.4061
 7663TIP3    H244405   0.327   5.795   3.273 -0.4052 -0.5757  0.6649
 7664TIP3   OH244406   3.551   3.984   0.100 -0.2152  0.3042  0.3947
 7664TIP3    H144407   3.478   3.940   0.144 -0.9173  1.6325  0.6134
 7664TIP3    H244408   3.528   4.077   0.103  2.1968  0.9459  1.8101
 7665TIP3   OH244409   6.166   4.513  14.942 -0.0609 -0.3434  0.1326
 7665TIP3    H144410   6.195   4.435  14.896 -1.2614 -0.7824  0.0775
 7665TIP3    H244411   6.134   4.481  15.026  0.6987  0.2664  0.6764
 7666TIP3   OH244412   5.353   5.768   5.813  0.0320  0.1138  0.3681
 7666TIP3    H144413   5.314   5.771   5.901  0.1772  1.4503  0.4203
 7666TIP3    H244414   5.446   5.750   5.829 -0.1821 -1.0312  0.3818
 7667TIP3   OH244415   5.605   2.545   1.389  0.0136  0.0951  0.2542
 7667TIP3    H144416   5.538   2.480   1.368  0.3998 -0.4403  0.6539
 7667TIP3    H244417   5.602   2.607   1.317 -0.8511  0.0266  0.2190
 7668TIP3   OH244418   6.198   0.837  16.174  0.2036  0.2121 -0.2893
 7668TIP3    H144419   6.263   0.771  16.155 -0.2187  0.0344 -1.1598
 7668TIP3    H244420   6.175   0.823  16.266  2.1478  0.9684  0.3573
 7669TIP3   OH244421   3.318   1.095  16.408  0.0458  0.1649  0.2634
 7669TIP3    H144422   3.382   1.067  16.474  0.6451  1.2517  0.1702
 7669TIP3    H244423   3.291   1.182  16.437 -2.9402 -1.0284  1.4120
 7670TIP3   OH244424   0.244   4.070  11.606  0.2484 -0.2262  0.8901
 7670TIP3    H144425   0.276   3.994  11.654  1.1936  0.0311  0.6919
 7670TIP3    H244426   0.289   4.145  11.646  1.2087 -0.0278 -0.4720
 7671TIP3   OH244427   6.474   2.880  14.898 -0.5528 -0.0282 -0.0740
 7671TIP3    H144428   6.379   2.873  14.891 -0.6100 -0.5815  0.9061
 7671TIP3    H244429   6.494   2.838  14.983  0.7557 -1.8084 -1.1862
 7672TIP3   OH244430   0.431   0.132  13.349  0.1894  0.5107 -0.0947
 7672TIP3    H144431   0.496   0.177  13.402 -0.5611  0.5481  0.8315
 7672TIP3    H244432   0.357   0.193  13.345 -0.3946 -0.1558  0.2174
 7673TIP3   OH244433   4.008   6.717  11.549  0.4261 -0.0174  0.7444
 7673TIP3    H144434   4.072   6.694  11.616  1.6582  1.2516  0.0462
 7673TIP3    H244435   4.042   6.678  11.469 -0.1784 -0.1310  0.5370
 7674TIP3   OH244436   3.519   2.308  11.728  0.1501  0.4931 -0.2018
 7674TIP3    H144437   3.562   2.392  11.712  1.1195  0.4961  2.0584
 7674TIP3    H244438   3.591   2.245  11.735 -0.2873  0.1368  1.6326
 7675TIP3   OH244439   2.783   6.614   0.547 -0.4994  0.2012 -0.0939
 7675TIP3    H144440   2.756   6.667   0.472 -0.4431  0.3031 -0.0424
 7675TIP3    H244441   2.831   6.541   0.508  0.2614  0.6952 -0.1189
 7676TIP3   OH244442   5.095   5.336  11.181 -0.3385 -0.2362 -0.2611
 7676TIP3    H144443   5.008   5.302  11.204  0.2961 -1.6540  0.1572
 7676TIP3    H244444   5.156   5.278  11.226  0.8509  0.3416 -1.0792
 7677TIP3   OH244445   2.181   4.808   4.260  0.3469  0.3397 -0.2594
 7677TIP3    H144446   2.231   4.765   4.329 -0.6335 -2.1317 -0.9768
 7677TIP3    H244447   2.126   4.871   4.306  0.1647 -0.8144  1.1873
 7678TIP3   OH244448   3.046   4.290  15.478 -0.6249 -0.0329 -0.1252
 7678TIP3    H144449   3.008   4.371  15.442  1.5844  0.8111 -0.7547
 7678TIP3    H244450   3.073   4.314  15.566 -1.6962 -0.6869  0.3953
 7679TIP3   OH244451   2.542   3.203   4.003  0.5591  0.4157 -0.0165
 7679TIP3    H144452   2.560   3.120   3.960  0.1254  0.4673 -0.2973
 7679TIP3    H244453   2.448   3.204   4.017  0.5313  0.9501 -0.2047
 7680TIP3   OH244454   3.491   1.568   5.351  0.6676  0.4677 -0.4962
 7680TIP3    H144455   3.543   1.547   5.429 -0.2964  0.4630  0.1688
 7680TIP3    H244456   3.475   1.662   5.357 -0.4740  0.2711  0.0280
 7681TIP3   OH244457   1.538   0.542   0.796  0.0613 -0.1142  0.0690
 7681TIP3    H144458   1.595   0.613   0.768  0.5226 -1.1940 -1.9119
 7681TIP3    H244459   1.522   0.560   0.889  2.3070  1.1195  0.3036
 7682TIP3   OH244460   2.770   5.494  15.571  0.6915  0.5033 -0.2062
 7682TIP3    H144461   2.845   5.550  15.591  0.6444  0.9338 -1.1512
 7682TIP3    H244462   2.767   5.492  15.475 -0.8861  1.0407 -0.2128
 7683TIP3   OH244463   0.463   5.760  11.048 -0.2078 -0.1019 -0.5885
 7683TIP3    H144464   0.478   5.854  11.053 -3.3253  0.4312  1.2643
 7683TIP3    H244465   0.416   5.748  10.965  2.7669 -0.6207 -2.3663
 7684TIP3   OH244466   4.103   0.631   3.054 -0.3097 -0.0976 -0.0826
 7684TIP3    H144467   4.106   0.665   2.964  1.1037 -0.1023 -0.0587
 7684TIP3    H244468   4.047   0.693   3.101 -2.1286 -0.7896 -1.2238
 7685TIP3   OH244469   4.422   0.398   3.800 -0.0862  0.3668 -0.0757
 7685TIP3    H144470   4.408   0.321   3.855 -1.2028  0.3804 -0.3162
 7685TIP3    H244471   4.412   0.366   3.711 -0.7418  0.8082 -0.1724
 7686TIP3   OH244472   1.585   5.681  11.352  0.4959 -0.6988 -0.1465
 7686TIP3    H144473   1.524   5.672  11.424  0.0316  0.9576 -0.2986
 7686TIP3    H244474   1.541   5.638  11.278 -0.4139  0.3012 -0.2055
 7687TIP3   OH244475   6.038   1.551   3.337  0.0609  0.2244 -0.2751
 7687TIP3    H144476   5.968   1.571   3.400 -0.0872  0.3216 -0.4690
 7687TIP3    H244477   5.994   1.501   3.268  0.2489  0.0040 -0.2383
 7688TIP3   OH244478   3.874   3.676  14.753 -0.0946  0.6168  0.3747
 7688TIP3    H144479   3.856   3.766  14.724  1.7872  1.6574  2.1501
 7688TIP3    H244480   3.897   3.629  14.673  0.6666  2.2006 -0.3921
 7689TIP3   OH244481   2.615   0.847   4.201  0.7599  0.2919 -0.3638
 7689TIP3    H144482   2.652   0.759   4.205  1.1278  0.4799  0.4169
 7689TIP3    H244483   2.550   0.842   4.131  0.4792 -0.7164 -0.0466
 7690TIP3   OH244484   4.361   3.048  17.053  0.1087  0.0467 -0.0614
 7690TIP3    H144485   4.457   3.041  17.050  0.2836  1.7195  0.5696
 7690TIP3    H244486   4.330   2.971  17.007  1.7427 -1.2392  0.8824
 7691TIP3   OH244487   3.807   1.251  13.346 -0.3322 -0.0509  0.3136
 7691TIP3    H144488   3.855   1.229  13.267  1.7205 -1.4190  1.8379
 7691TIP3    H244489   3.842   1.193  13.413 -2.4372  0.6021  2.1171
 7692TIP3   OH244490   1.877   3.677   0.368 -0.0752 -0.2220 -0.3304
 7692TIP3    H144491   1.781   3.684   0.375  0.0283  0.9622  0.3423
 7692TIP3    H244492   1.897   3.588   0.397 -0.9447 -0.3538 -0.0999
 7693TIP3   OH244493   2.204   3.901   5.375 -0.2993  0.4099 -0.1682
 7693TIP3    H144494   2.217   3.955   5.298 -1.2120  0.0019 -0.6241
 7693TIP3    H244495   2.114   3.921   5.403 -1.1622 -1.8250 -1.1357
 7694TIP3   OH244496   3.995   1.142   0.038  0.7618 -0.2980 -0.3742
 7694TIP3    H144497   3.915   1.160  -0.012  0.9524  0.1734 -0.5155
 7694TIP3    H244498   4.065   1.180  -0.015  0.8417  1.3246  0.8326
 7695TIP3   OH244499   4.717   4.945   1.171  0.1223 -0.1951  0.1489
 7695TIP3    H144500   4.688   5.025   1.128 -1.6052 -0.4180  0.8339
 7695TIP3    H244501   4.739   4.972   1.261  0.9105 -0.2529 -0.0173
 7696TIP3   OH244502   5.788   1.755  13.286  0.1171  0.0546 -0.6587
 7696TIP3    H144503   5.877   1.722  13.291 -0.6296 -1.8523  1.6216
 7696TIP3    H244504   5.764   1.775  13.376 -2.0718 -0.4116 -1.0776
 7697TIP3   OH244505   3.833   1.487   1.575 -0.3606  0.0278 -0.2657
 7697TIP3    H144506   3.741   1.468   1.556  0.2683 -0.8280 -2.8670
 7697TIP3    H244507   3.838   1.582   1.575 -1.4081  0.1207  1.0753
 7698TIP3   OH244508   1.745   6.302  16.651  0.2275  0.1247 -0.1957
 7698TIP3    H144509   1.732   6.303  16.745  0.1902 -0.0877 -0.1982
 7698TIP3    H244510   1.821   6.246  16.637 -0.3369 -0.6241 -0.3571
 7699TIP3   OH244511   5.499   5.861  12.970  0.5406  0.0183 -0.9890
 7699TIP3    H144512   5.441   5.788  12.950 -0.1568  0.5669 -1.0059
 7699TIP3    H244513   5.584   5.821  12.985  0.3726 -0.7105 -1.9100
 7700TIP3   OH244514   3.533   5.636   3.657 -0.1871 -0.4204  0.0849
 7700TIP3    H144515   3.511   5.545   3.672 -1.0668 -0.2650 -0.2183
 7700TIP3    H244516   3.532   5.677   3.743 -0.8544 -0.4666  0.0969
 7701TIP3   OH244517   2.248   3.174  12.352 -0.0968 -0.2167  0.6902
 7701TIP3    H144518   2.258   3.089  12.395  3.4972 -0.2177  0.1643
 7701TIP3    H244519   2.277   3.159  12.262 -0.5026  1.3485  0.2686
 7702TIP3   OH244520   1.622   2.426   3.224  0.6723 -0.7257  0.3607
 7702TIP3    H144521   1.565   2.456   3.295  0.4462 -1.2860  0.4225
 7702TIP3    H244522   1.691   2.376   3.269  1.6635  0.5877  0.3627
 7703TIP3   OH244523   3.042   3.204   6.026  0.4170 -0.4732  0.2857
 7703TIP3    H144524   3.002   3.191   5.940  0.2159  0.0068  0.3026
 7703TIP3    H244525   3.135   3.215   6.007  0.4607 -1.0108  0.1905
 7704TIP3   OH244526   3.715   1.902   4.571  0.1833 -0.3007 -0.2791
 7704TIP3    H144527   3.682   1.953   4.497  0.6081  1.3423  0.6229
 7704TIP3    H244528   3.804   1.877   4.545  0.2139  0.0002 -0.4712
 7705TIP3   OH244529   3.700   3.540  11.562 -0.1397  0.7284  0.8411
 7705TIP3    H144530   3.777   3.532  11.506  1.8847 -1.7299  3.6822
 7705TIP3    H244531   3.642   3.469  11.535 -0.4005  1.1581  0.2313
 7706TIP3   OH244532   0.034   6.701   2.802 -0.3492 -0.0145 -0.3138
 7706TIP3    H144533  -0.013   6.683   2.883 -1.3109  1.4751 -0.4945
 7706TIP3    H244534   0.125   6.712   2.830 -0.5829 -0.0394  0.4943
 7707TIP3   OH244535   1.098   6.580   4.810 -0.3920 -0.3438 -0.1939
 7707TIP3    H144536   1.166   6.586   4.877  0.6739 -1.1674 -1.1608
 7707TIP3    H244537   1.037   6.514   4.843 -0.1656 -0.3590  0.1986
 7708TIP3   OH244538   3.314   5.677  12.311 -0.1119 -0.0819 -0.5510
 7708TIP3    H144539   3.340   5.721  12.392  1.6540 -0.9703 -0.5673
 7708TIP3    H244540   3.249   5.734  12.271  2.2783  2.7060 -0.7598
 7709TIP3   OH244541   3.160   6.372   5.358 -0.1940  0.0458  0.0502
 7709TIP3    H144542   3.216   6.417   5.420  1.8393 -0.7686 -1.1034
 7709TIP3    H244543   3.163   6.425   5.278 -1.2009  0.0706  0.0142
 7710TIP3   OH244544   2.050   3.363  17.054 -0.7622  0.6044  0.8431
 7710TIP3    H144545   1.961   3.332  17.035  0.0469 -0.5127 -1.5924
 7710TIP3    H244546   2.039   3.456  17.071 -2.5653  0.2105  2.1654
 7711TIP3   OH244547   4.103   2.598  11.755  0.0779  0.1710 -0.0953
 7711TIP3    H144548   4.153   2.672  11.789 -1.8270  1.4082  0.1470
 7711TIP3    H244549   4.040   2.637  11.695 -1.5096 -1.1392  0.6429
 7712TIP3   OH244550   4.928   4.357  11.699  0.5058  0.3989 -0.2881
 7712TIP3    H144551   4.884   4.401  11.772  0.8948 -2.3499  1.7370
 7712TIP3    H244552   4.991   4.299  11.740  1.3591 -0.6399 -2.8799
 7713TIP3   OH244553   4.273   5.006   0.619 -0.3027  0.5161  0.3064
 7713TIP3    H144554   4.225   4.967   0.546 -1.1242  2.5526 -0.3086
 7713TIP3    H244555   4.341   4.941   0.639 -0.0265 -0.1378 -2.2745
 7714TIP3   OH244556   2.454   0.092  14.386  0.0877 -0.3155  0.5100
 7714TIP3    H144557   2.402   0.126  14.314 -0.3529 -1.6415  0.1773
 7714TIP3    H244558   2.520   0.160  14.403  1.7956 -0.9457 -2.7823
 7715TIP3   OH244559   5.731   6.421   1.620 -0.2924  0.1428 -0.0204
 7715TIP3    H144560   5.792   6.414   1.546  0.4020  0.3362  0.5207
 7715TIP3    H244561   5.715   6.330   1.646  2.1230  0.1154  1.6958
 7716TIP3   OH244562   1.877   1.404   2.696 -0.5772 -0.0658  0.2956
 7716TIP3    H144563   1.861   1.416   2.790  0.6314  1.6311  0.3501
 7716TIP3    H244564   1.795   1.372   2.661 -0.8468 -1.4400  2.0363
 7717TIP3   OH244565   5.081   3.253  16.153 -0.2002  0.4692 -0.6016
 7717TIP3    H144566   5.096   3.341  16.187 -1.0054  1.2435 -2.1521
 7717TIP3    H244567   4.986   3.245  16.149 -0.1357 -0.5406 -0.3247
 7718TIP3   OH244568   3.135   4.311  14.480  0.2612 -0.1820  0.0007
 7718TIP3    H144569   3.042   4.312  14.458 -0.1485 -0.0233  1.5988
 7718TIP3    H244570   3.137   4.286  14.572  1.8513 -0.7562 -0.1685
 7719TIP3   OH244571   4.719   3.509  16.680 -0.3642  0.3303  0.0404
 7719TIP3    H144572   4.681   3.490  16.766  1.5952  1.5936  1.2497
 7719TIP3    H244573   4.810   3.530  16.698 -0.4841  3.2409 -1.9745
 7720TIP3   OH244574   3.663   4.968   1.417  0.0135  0.2494  0.3487
 7720TIP3    H144575   3.705   5.009   1.492 -0.7711 -0.4745  1.2080
 7720TIP3    H244576   3.569   4.979   1.433 -0.1708  0.6114 -0.8373
 7721TIP3   OH244577   4.672   4.088   0.895  0.4331 -0.0121  0.0963
 7721TIP3    H144578   4.600   4.086   0.832  0.1292 -1.0216  0.4544
 7721TIP3    H244579   4.630   4.106   0.979  0.8136  1.1268  0.0571
 7722TIP3   OH244580   2.464   1.665   0.640  0.2886  0.1769 -0.3950
 7722TIP3    H144581   2.518   1.729   0.688  1.5249 -1.8419  1.0548
 7722TIP3    H244582   2.505   1.660   0.553  0.6414  0.7874 -0.2761
 7723TIP3   OH244583   0.105   4.029   0.621  0.1359 -0.2534  0.0616
 7723TIP3    H144584   0.046   3.959   0.590 -1.4501  0.8788  0.3891
 7723TIP3    H244585   0.143   3.994   0.701 -1.5310 -0.3479  0.8609
 7724TIP3   OH244586   0.895   0.085  13.419 -0.2056 -0.2180 -0.0543
 7724TIP3    H144587   0.808   0.092  13.379  0.0550  0.5832 -0.4959
 7724TIP3    H244588   0.900  -0.006  13.449 -1.7474  0.0721  1.2520
 7725TIP3   OH244589   0.073   1.427  12.602  0.1534  0.7475  0.1601
 7725TIP3    H144590   0.095   1.334  12.600 -1.3096  0.3671  0.0568
 7725TIP3    H244591   0.116   1.461  12.680 -0.2376 -0.2932  0.8478
 7726TIP3   OH244592   5.716   2.269   1.015 -0.2865  0.5432  0.1320
 7726TIP3    H144593   5.693   2.343   0.958  0.0708 -0.6425 -1.6263
 7726TIP3    H244594   5.754   2.310   1.093  1.0376  2.1915 -1.2958
 7727TIP3   OH244595   1.690   3.837  17.117 -0.0081  0.2093 -0.7386
 7727TIP3    H144596   1.697   3.748  17.151 -0.1541  0.0503 -1.1167
 7727TIP3    H244597   1.675   3.892  17.194  1.4392  0.0836 -0.3556
 7728TIP3   OH244598   3.570   1.922  11.893  0.3081  0.5421 -0.1074
 7728TIP3    H144599   3.637   1.867  11.933 -0.0179  0.8591  0.8955
 7728TIP3    H244600   3.503   1.861  11.862  0.4944  0.3048 -0.0391
 7729TIP3   OH244601   6.631   4.856   1.989  0.2521  0.0478  0.2125
 7729TIP3    H144602   6.577   4.790   2.032 -0.1678  0.1087 -0.2103
 7729TIP3    H244603   6.696   4.880   2.054 -0.1080 -0.1751  0.6608
 7730TIP3   OH244604   6.606   6.319  15.962 -0.0980  0.3599 -0.1843
 7730TIP3    H144605   6.647   6.306  15.876  0.6365  1.2831  0.0030
 7730TIP3    H244606   6.513   6.306  15.947  0.1993 -1.5214 -0.6904
 7731TIP3   OH244607   4.977   1.385  15.232 -0.7348 -0.5754 -0.4370
 7731TIP3    H144608   4.957   1.334  15.310 -0.8970 -2.2720 -1.5475
 7731TIP3    H244609   5.073   1.389  15.230 -0.7330  0.4344  0.4058
 7732TIP3   OH244610   3.947   4.434   0.777  0.4110 -0.3358  0.1151
 7732TIP3    H144611   3.883   4.471   0.837 -0.8408 -0.7015 -0.9556
 7732TIP3    H244612   3.926   4.473   0.692  1.1597 -0.9945 -0.3884
 7733TIP3   OH244613   2.429   0.900  14.704 -0.1043  0.1600  0.5134
 7733TIP3    H144614   2.409   0.916  14.612  0.0079 -0.4448  0.3799
 7733TIP3    H244615   2.451   0.986  14.739  1.9889  0.1247 -0.5530
 7734TIP3   OH244616   2.093   5.698  13.536 -0.0177 -0.1704 -0.7851
 7734TIP3    H144617   2.078   5.604  13.527  0.2364 -0.4589  1.4288
 7734TIP3    H244618   2.085   5.716  13.629 -0.0867  2.0319 -1.1512
 7735TIP3   OH244619   3.472   3.642   4.657  0.2742  0.1920 -0.1203
 7735TIP3    H144620   3.557   3.599   4.652  0.2853  0.2899 -0.8620
 7735TIP3    H244621   3.482   3.709   4.725  0.8232  0.2714 -0.2769
 7736TIP3   OH244622   0.942   1.118   2.365  0.3123 -0.1282 -0.2031
 7736TIP3    H144623   0.918   1.149   2.452 -0.1730 -2.0528  0.3968
 7736TIP3    H244624   0.862   1.076   2.331  0.4331  0.7593 -1.6718
 7737TIP3   OH244625   3.562   3.006   1.289  0.3249 -0.5874  0.1473
 7737TIP3    H144626   3.468   3.027   1.282 -0.5090 -3.3611  1.5461
 7737TIP3    H244627   3.582   2.960   1.208  0.8134  0.9010 -0.6174
 7738TIP3   OH244628   4.830   0.485  12.812 -0.7589  0.1242  0.2659
 7738TIP3    H144629   4.775   0.415  12.776 -0.9690  0.3147  0.2151
 7738TIP3    H244630   4.815   0.482  12.906 -0.4471 -0.1706  0.3114
 7739TIP3   OH244631   1.411   6.008  12.093 -0.1604 -0.1197  0.6865
 7739TIP3    H144632   1.355   6.034  12.020  2.1134  2.7718 -0.2579
 7739TIP3    H244633   1.460   5.933  12.060 -0.0318  0.4051 -0.3786
 7740TIP3   OH244634   2.748   1.948   3.524 -0.1625  0.1194  0.2845
 7740TIP3    H144635   2.822   1.888   3.513 -2.0085 -2.1509 -0.7465
 7740TIP3    H244636   2.752   2.005   3.447  0.2070 -0.3678 -0.0646
 7741TIP3   OH244637   0.949   4.654   2.798  0.4672 -0.0983 -0.2410
 7741TIP3    H144638   0.896   4.668   2.876 -0.9210  2.2477 -1.4821
 7741TIP3    H244639   0.958   4.559   2.792  0.4400 -0.3693  2.5948
 7742TIP3   OH244640   0.458   4.220  11.151  0.1209  0.4741 -0.3951
 7742TIP3    H144641   0.389   4.167  11.112 -0.9978  0.7880  1.0838
 7742TIP3    H244642   0.500   4.263  11.077 -0.6740 -0.4073 -1.3919
 7743TIP3   OH244643   5.757   2.062  15.708 -0.1330 -0.0745 -0.0176
 7743TIP3    H144644   5.727   2.087  15.621  3.9768 -0.2352 -1.7236
 7743TIP3    H244645   5.806   2.138  15.739  1.9559 -1.4139  0.2139
 7744TIP3   OH244646   3.528   1.913  12.681  1.1311  0.0158  0.2631
 7744TIP3    H144647   3.540   1.952  12.768 -3.2916  2.9368 -0.1362
 7744TIP3    H244648   3.583   1.966  12.624  0.5069  1.1730  0.7017
 7745TIP3   OH244649   5.568   1.288   4.712  0.2475  0.3583 -0.3469
 7745TIP3    H144650   5.644   1.333   4.677  1.3726 -0.0879  1.4205
 7745TIP3    H244651   5.576   1.198   4.680 -0.8233  0.8183 -2.0539
 7746TIP3   OH244652   5.761   3.287   2.339  0.2248  0.2205 -0.1206
 7746TIP3    H144653   5.766   3.272   2.433 -0.5705  1.8569  0.2188
 7746TIP3    H244654   5.776   3.201   2.300  1.5401 -0.3230  1.4578
 7747TIP3   OH244655   2.913   2.120   1.976  0.6828 -0.4014 -0.2779
 7747TIP3    H144656   2.882   2.133   2.066  1.9213 -0.0742  0.1302
 7747TIP3    H244657   2.843   2.152   1.921  0.0734 -0.2130  0.5881
 7748TIP3   OH244658   6.706   3.030  13.395  0.3709 -0.1600 -0.0786
 7748TIP3    H144659   6.723   2.939  13.372 -0.1891 -0.0458 -1.0292
 7748TIP3    H244660   6.685   3.072  13.311 -1.4969  0.3599  0.5907
 7749TIP3   OH244661   6.185   3.376  12.862 -0.1755  0.1645 -0.0522
 7749TIP3    H144662   6.253   3.326  12.818 -1.0562 -2.1359  1.0580
 7749TIP3    H244663   6.105   3.324  12.849 -1.2432  1.5195  0.7918
 7750TIP3   OH244664   3.279   1.482   1.002 -0.3321  0.2327 -0.4482
 7750TIP3    H144665   3.238   1.550   0.948  0.3064  0.8323 -0.1858
 7750TIP3    H244666   3.206   1.435   1.041 -0.7822  0.6394 -0.7903
 7751TIP3   OH244667   3.696   5.372   3.626 -0.0210 -0.0972  0.0433
 7751TIP3    H144668   3.739   5.437   3.571 -0.7392 -0.2314 -0.6986
 7751TIP3    H244669   3.702   5.408   3.715  0.8047  0.3102 -0.1669
 7752TIP3   OH244670   4.116   2.235  13.359  0.1380 -0.1277 -0.7305
 7752TIP3    H144671   4.061   2.306  13.393 -1.0601 -0.5903 -1.6211
 7752TIP3    H244672   4.113   2.168  13.427 -0.4334 -0.1567 -0.7769
 7753TIP3   OH244673   6.264   3.821  11.419 -0.4747  0.1900 -0.9295
 7753TIP3    H144674   6.283   3.878  11.344  2.4556 -2.5879 -2.5961
 7753TIP3    H244675   6.190   3.767  11.391  0.1791 -0.3741 -1.6293
 7754TIP3   OH244676   1.984   3.667  15.970  0.1640 -0.0819  0.0581
 7754TIP3    H144677   1.916   3.687  16.033  1.1195 -0.5162  1.2630
 7754TIP3    H244678   1.944   3.604  15.910  0.0326 -1.8261  1.8655
 7755TIP3   OH244679   4.489   4.060   0.422  0.3888  0.3208 -0.4020
 7755TIP3    H144680   4.570   4.110   0.430  1.2130 -0.8402 -1.1792
 7755TIP3    H244681   4.480   4.016   0.507  0.1417  1.0429 -0.0416
 7756TIP3   OH244682   2.804   4.433   0.611 -0.2124 -0.3378 -0.1212
 7756TIP3    H144683   2.737   4.378   0.571 -0.4314 -1.0854  1.1983
 7756TIP3    H244684   2.825   4.388   0.693  1.0614  0.5096  0.0323
 7757TIP3   OH244685   1.458   5.172   3.745  0.1068  0.1405 -0.8294
 7757TIP3    H144686   1.519   5.139   3.812 -0.3061 -0.9737 -0.9857
 7757TIP3    H244687   1.513   5.227   3.689  0.8149 -0.2564 -0.5440
 7758TIP3   OH244688   3.614   1.126  13.126 -0.3581 -0.5725  0.1769
 7758TIP3    H144689   3.657   1.212  13.125 -0.4797 -0.4883  1.1711
 7758TIP3    H244690   3.538   1.138  13.182 -1.4163 -0.8589 -1.1617
 7759TIP3   OH244691   1.483   3.611   4.868  0.5115  0.4607  0.1641
 7759TIP3    H144692   1.520   3.542   4.812 -0.7040  0.4451 -0.6455
 7759TIP3    H244693   1.468   3.569   4.952 -0.3830 -0.3187 -0.3768
 7760TIP3   OH244694   3.591   1.221  14.822 -0.6849 -0.2817  0.0671
 7760TIP3    H144695   3.505   1.229  14.865 -0.3230  1.2588  0.5606
 7760TIP3    H244696   3.600   1.301  14.771  1.4371  0.7565  1.9068
 7761TIP3   OH244697   0.246   2.903  10.913  0.5605  0.1163  0.3371
 7761TIP3    H144698   0.332   2.940  10.893 -0.6572  2.3664 -1.2130
 7761TIP3    H244699   0.219   2.860  10.832  0.4414 -1.1383  1.0096
 7762TIP3   OH244700   2.635   5.835  11.475 -0.1386  0.5276  0.3805
 7762TIP3    H144701   2.682   5.758  11.442 -0.0549  1.1731 -1.0681
 7762TIP3    H244702   2.658   5.905  11.415  0.1707  1.8421  1.9605
 7763TIP3   OH244703   6.257   4.435   4.901  0.4124  0.1945  0.4801
 7763TIP3    H144704   6.175   4.418   4.947 -0.1618 -1.5325 -1.0769
 7763TIP3    H244705   6.248   4.525   4.871 -0.5729  0.2939  1.0034
 7764TIP3   OH244706   3.306   1.554   4.455 -0.0395 -0.1434 -0.3926
 7764TIP3    H144707   3.298   1.466   4.491 -1.7035  0.0844 -0.1192
 7764TIP3    H244708   3.286   1.544   4.362 -1.0638  0.0563 -0.2015
 7765TIP3   OH244709   5.449   6.701   3.362 -0.2014 -0.0026 -0.5234
 7765TIP3    H144710   5.474   6.667   3.448  0.4349 -1.0220 -1.0909
 7765TIP3    H244711   5.474   6.793   3.365 -1.1442  0.2462  0.7385
 7766TIP3   OH244712   5.401   0.401  13.912  1.0094  0.4439 -0.0209
 7766TIP3    H144713   5.333   0.427  13.974  1.1729  0.3387  0.2047
 7766TIP3    H244714   5.424   0.482  13.866  0.3843  0.3911 -0.4512
 7767TIP3   OH244715   1.811   5.362  12.763 -0.2937 -0.2909 -0.6761
 7767TIP3    H144716   1.896   5.359  12.719 -0.2955 -2.3038 -0.6159
 7767TIP3    H244717   1.823   5.428  12.832  0.2746  1.5836 -2.4522
 7768TIP3   OH244718   0.359   2.198  15.676  0.2911  0.1150 -0.1327
 7768TIP3    H144719   0.391   2.125  15.623 -0.0624  0.3032 -0.6032
 7768TIP3    H244720   0.326   2.156  15.756  0.6184 -0.1874 -0.1556
 7769TIP3   OH244721   5.381   3.248  11.406  0.6408 -0.0002  0.6875
 7769TIP3    H144722   5.406   3.156  11.414  1.4269  0.1184 -0.2162
 7769TIP3    H244723   5.302   3.247  11.352  0.8009 -0.1183  0.4584
 7770TIP3   OH244724   1.943   0.491  12.140  0.4599 -0.2909  0.1447
 7770TIP3    H144725   1.941   0.567  12.198  1.5850  0.2567 -0.4959
 7770TIP3    H244726   1.931   0.528  12.052 -0.5098 -1.0317 -0.0534
 7771TIP3   OH244727   2.669   3.837   2.461 -0.0255 -0.0949  0.3691
 7771TIP3    H144728   2.692   3.864   2.550  1.8448  0.9765 -0.3819
 7771TIP3    H244729   2.728   3.764   2.443 -0.0552  0.0181 -0.1740
 7772TIP3   OH244730   4.284   4.025   6.014 -0.2689  0.1972 -0.5210
 7772TIP3    H144731   4.306   3.946   5.965  0.9183  0.6937 -0.8374
 7772TIP3    H244732   4.205   4.003   6.063 -0.4590 -0.8852 -1.2972
 7773TIP3   OH244733   2.124   4.875   4.537 -0.5819 -0.3367 -0.1174
 7773TIP3    H144734   2.170   4.792   4.554  0.0557  0.2397  1.0524
 7773TIP3    H244735   2.182   4.942   4.572 -0.1487  0.8230 -2.8298
 7774TIP3   OH244736   3.940   6.698  16.041  0.0514  0.0456 -0.6103
 7774TIP3    H144737   3.846   6.688  16.051  0.0004 -1.4730 -2.0897
 7774TIP3    H244738   3.953   6.791  16.022 -1.2175  0.1643 -0.9731
 7775TIP3   OH244739   0.456   3.628   1.932 -1.0375  0.0828  0.1653
 7775TIP3    H144740   0.537   3.668   1.901  1.9704 -2.5316  3.7135
 7775TIP3    H244741   0.443   3.552   1.875 -0.4889  0.0441  0.0887
 7776TIP3   OH244742   2.697   6.288   4.323  0.0366 -0.2600 -0.4170
 7776TIP3    H144743   2.719   6.368   4.371 -0.3104  0.9498 -2.1784
 7776TIP3    H244744   2.782   6.246   4.306  0.5426  1.2857 -2.0042
 7777TIP3   OH244745   3.481   2.829   3.044 -0.0589  0.1828  0.2170
 7777TIP3    H144746   3.514   2.765   3.107 -1.7806 -1.5556 -0.5339
 7777TIP3    H244747   3.557   2.883   3.023  1.1523 -0.7660  1.8737
 7778TIP3   OH244748   1.050   3.836   3.474  0.2188 -0.1631 -0.4497
 7778TIP3    H144749   1.055   3.820   3.380 -1.0179 -1.6366 -0.3124
 7778TIP3    H244750   1.141   3.842   3.503  0.6144  0.2248 -1.7112
 7779TIP3   OH244751   4.035   2.935  17.198 -0.3338  0.0445  0.1355
 7779TIP3    H144752   4.094   3.010  17.192 -0.9002  0.5545  0.8644
 7779TIP3    H244753   4.012   2.929  17.291 -1.0437 -0.4519 -0.0633
 7780TIP3   OH244754   1.991   2.381   4.018  0.0747 -0.4719  0.0587
 7780TIP3    H144755   2.021   2.393   3.928 -0.4189 -1.9240 -0.3417
 7780TIP3    H244756   2.061   2.417   4.073 -0.2004  1.6551 -0.8883
 7781TIP3   OH244757   6.316   4.742  13.500  0.3127 -0.0259 -0.2918
 7781TIP3    H144758   6.387   4.692  13.540  1.4636  0.7021 -1.3392
 7781TIP3    H244759   6.248   4.746  13.567  1.4110 -0.4226  0.8787
 7782TIP3   OH244760   2.589   5.852  15.258  0.1026 -0.4217 -0.0035
 7782TIP3    H144761   2.657   5.829  15.321  0.9282  0.9623 -0.3510
 7782TIP3    H244762   2.550   5.768  15.234  0.3500 -1.0608  1.6744
 7783TIP3   OH244763   4.874   2.092  15.281 -0.5261 -0.2572  0.2679
 7783TIP3    H144764   4.915   2.028  15.340  0.3720 -0.2371 -0.3159
 7783TIP3    H244765   4.890   2.177  15.322 -1.8591 -0.3910  1.1275
 7784TIP3   OH244766   3.336   6.117   5.336 -0.9055 -0.4640 -0.0881
 7784TIP3    H144767   3.400   6.149   5.273 -1.3265 -1.2186 -0.9117
 7784TIP3    H244768   3.269   6.186   5.339 -0.0881  0.3094  0.7528
 7785TIP3   OH244769   2.215   4.006  14.275 -0.0028  0.4010 -0.3474
 7785TIP3    H144770   2.184   4.063  14.205 -1.5387 -0.1438 -0.1708
 7785TIP3    H244771   2.233   4.064  14.348 -2.6144  0.6687  0.2053
 7786TIP3   OH244772   4.936   0.972  16.689 -0.4494 -0.3858 -0.0893
 7786TIP3    H144773   4.975   1.028  16.622 -0.7253 -1.4648 -1.2123
 7786TIP3    H244774   4.848   0.954  16.657 -0.3792 -1.4134  0.2385
 7787TIP3   OH244775   0.518   0.265   5.236  0.0065 -0.2732 -0.0497
 7787TIP3    H144776   0.540   0.195   5.298  0.1858 -1.1828 -1.1107
 7787TIP3    H244777   0.599   0.282   5.189 -0.7740 -1.6307 -2.0018
 7788TIP3   OH244778   2.359   4.999  11.734  0.5392  0.4514  0.1236
 7788TIP3    H144779   2.343   4.999  11.640 -1.0957  0.5820  0.3764
 7788TIP3    H244780   2.279   4.963  11.772  0.6631  1.5767  1.5376
 7789TIP3   OH244781   0.933   1.823  12.360 -0.5386  0.0793  0.4290
 7789TIP3    H144782   0.951   1.872  12.280 -2.2912 -0.3391 -0.2613
 7789TIP3    H244783   0.942   1.731  12.336  0.4987 -0.0341  1.1508
 7790TIP3   OH244784   3.101   4.348  13.854  0.0137  0.3650  0.1834
 7790TIP3    H144785   3.097   4.262  13.894  0.9524  0.3986  0.3830
 7790TIP3    H244786   3.033   4.399  13.899  1.3012  0.5163  2.0552
 7791TIP3   OH244787   3.542   3.665  15.277 -0.0716  0.9354 -0.1767
 7791TIP3    H144788   3.569   3.615  15.200 -0.9054  0.9550 -0.4909
 7791TIP3    H244789   3.605   3.641  15.345  1.0374  1.3639 -1.0197
 7792TIP3   OH244790   2.368   2.245  16.311 -0.0916 -0.1948 -0.1810
 7792TIP3    H144791   2.326   2.229  16.226 -0.8964  0.5714  0.0546
 7792TIP3    H244792   2.304   2.298  16.359 -0.1951 -1.6634  1.3763
 7793TIP3   OH244793   1.252   2.610  13.815 -0.2470 -0.1075 -0.0417
 7793TIP3    H144794   1.196   2.533  13.818  0.3592 -0.5815 -0.6108
 7793TIP3    H244795   1.194   2.680  13.784 -1.1186 -0.0232  1.6732
 7794TIP3   OH244796   0.953   2.679  15.305 -0.2402  0.6660  0.0984
 7794TIP3    H144797   1.002   2.671  15.222 -0.2578 -1.6801  0.2627
 7794TIP3    H244798   0.861   2.678  15.278 -0.3997 -3.6309  0.2133
 7795TIP3   OH244799   0.139   1.592  16.683  0.2421 -0.0685  0.6254
 7795TIP3    H144800   0.164   1.542  16.605  2.1042 -0.6797  1.5569
 7795TIP3    H244801   0.069   1.650  16.652  0.4960 -0.7086 -1.3416
 7796TIP3   OH244802   3.588   3.343   2.263 -0.9937  0.0997 -0.6055
 7796TIP3    H144803   3.574   3.388   2.180 -0.3658  0.3803 -0.5641
 7796TIP3    H244804   3.644   3.268   2.241  0.4319  1.0069 -0.2205
 7797TIP3   OH244805   3.885   5.261   5.701 -0.3052 -0.0500  0.2604
 7797TIP3    H144806   3.969   5.272   5.658  0.4712 -0.1996  1.6788
 7797TIP3    H244807   3.896   5.182   5.755 -0.6026  1.1345  2.1217
 7798TIP3   OH244808   4.562   4.412  16.685  0.4190 -0.3805  0.4291
 7798TIP3    H144809   4.515   4.411  16.768  0.0818 -1.8019  0.2546
 7798TIP3    H244810   4.623   4.337  16.692 -1.3816 -2.1558 -1.5409
 7799TIP3   OH244811   1.289   3.471  14.783 -0.0445  0.2482  0.1654
 7799TIP3    H144812   1.306   3.471  14.877  0.9927  1.2979  0.0124
 7799TIP3    H244813   1.256   3.559  14.765  1.1419  0.5531 -0.6465
 7800TIP3   OH244814   3.208   0.390   1.951  0.8640 -0.2097  0.1441
 7800TIP3    H144815   3.158   0.321   1.906  1.6551 -0.8625  0.2371
 7800TIP3    H244816   3.222   0.355   2.039  1.6238 -0.1123  0.0653
 7801TIP3   OH244817   6.296   5.773   4.074 -0.1618 -0.2124 -0.4834
 7801TIP3    H144818   6.321   5.681   4.060 -0.3595 -0.2545 -0.5636
 7801TIP3    H244819   6.351   5.822   4.013  0.4573 -0.2125  0.0685
 7802TIP3   OH244820   2.783   3.464  12.556  0.4785  0.0720  0.3964
 7802TIP3    H144821   2.711   3.491  12.499  0.3196  2.2327  1.5467
 7802TIP3    H244822   2.800   3.373  12.531 -1.7310 -0.0661 -0.8362
 7803TIP3   OH244823   2.678   4.079   0.887 -0.2725 -0.1410  0.9455
 7803TIP3    H144824   2.677   3.985   0.906 -0.3059 -0.3912 -0.2047
 7803TIP3    H244825   2.600   4.094   0.834  0.0074  0.4291  0.6829
 7804TIP3   OH244826   3.381   4.778   1.922  0.0737  0.1375 -0.0805
 7804TIP3    H144827   3.286   4.772   1.913  0.1852  0.6197 -1.8391
 7804TIP3    H244828   3.405   4.858   1.875  1.6665 -1.6262 -2.4744
 7805TIP3   OH244829   6.692   2.457   4.884  0.6268  0.3019 -0.0107
 7805TIP3    H144830   6.646   2.540   4.895 -0.2962 -0.4309  1.9712
 7805TIP3    H244831   6.701   2.447   4.789 -2.2292  1.0708 -0.4432
 7806TIP3   OH244832   5.322   5.778  11.231  0.3363  0.5303 -0.0562
 7806TIP3    H144833   5.316   5.688  11.263 -0.3039  0.8884  0.8788
 7806TIP3    H244834   5.239   5.794  11.186  1.3872 -0.1054 -2.3877
 7807TIP3   OH244835   3.735   4.933  14.923  0.0356 -0.0016 -0.2615
 7807TIP3    H144836   3.799   4.876  14.879  1.3062  1.9476 -1.0808
 7807TIP3    H244837   3.683   4.873  14.977  2.3170 -1.7392  0.1741
 7808TIP3   OH244838   0.501   0.261   2.932  0.3421  0.2920  0.3421
 7808TIP3    H144839   0.544   0.176   2.923 -0.7939 -0.1718 -0.8736
 7808TIP3    H244840   0.513   0.303   2.847 -1.9372 -0.0235 -0.1847
 7809TIP3   OH244841   2.669   5.324   3.934  0.2101 -0.2907 -0.2005
 7809TIP3    H144842   2.674   5.354   3.844 -0.2450  0.8432  0.1325
 7809TIP3    H244843   2.755   5.286   3.952  0.5011  0.0142 -0.9183
 7810TIP3   OH244844   4.983   5.780   2.515  0.3531 -0.2111  0.0431
 7810TIP3    H144845   4.982   5.875   2.501 -1.9287  0.0062  1.1046
 7810TIP3    H244846   4.944   5.744   2.435 -0.6827 -0.0464  0.4533
 7811TIP3   OH244847   2.883   6.043  16.995 -0.8082  0.0468 -0.2118
 7811TIP3    H144848   2.926   5.965  17.032  0.7174 -0.8783 -3.5447
 7811TIP3    H244849   2.948   6.113  17.003 -0.7564  0.0263 -0.4339
 7812TIP3   OH244850   0.246   6.087  14.778 -0.1352  0.0250  0.3549
 7812TIP3    H144851   0.202   6.002  14.767 -0.9503  0.1115  2.5167
 7812TIP3    H244852   0.175   6.151  14.774  0.0246  0.3289  1.8417
 7813TIP3   OH244853   0.128   0.976  13.220 -0.0337  0.0077 -0.6919
 7813TIP3    H144854   0.154   0.921  13.294 -0.8083  1.9112  1.0954
 7813TIP3    H244855   0.204   1.031  13.204 -0.9066  1.8082  0.9140
 7814TIP3   OH244856   5.312   0.158   5.919 -0.5121  0.3345  0.4655
 7814TIP3    H144857   5.228   0.185   5.956 -0.8550  0.7628 -0.5797
 7814TIP3    H244858   5.307   0.185   5.827  0.5875 -0.0535  0.2802
 7815TIP3   OH244859   2.199   1.093  10.827  0.1575  0.4243 -0.3480
 7815TIP3    H144860   2.197   1.187  10.847 -0.8351  0.2940  0.2718
 7815TIP3    H244861   2.259   1.056  10.892  0.7312  0.6666 -0.7445
 7816TIP3   OH244862   1.302   1.154  14.848  0.3458 -0.3924 -0.1150
 7816TIP3    H144863   1.219   1.131  14.807  0.8934 -0.4290 -1.2256
 7816TIP3    H244864   1.363   1.165  14.775  1.3687 -0.5632  0.6898
 7817TIP3   OH244865   3.436   1.998   0.214  0.0823 -0.0564 -0.2361
 7817TIP3    H144866   3.421   2.077   0.265  2.0494  0.4159 -0.3111
 7817TIP3    H244867   3.508   2.020   0.155 -0.2652 -1.4715 -1.2486
 7818TIP3   OH244868   3.047   1.452  13.906 -0.4495 -0.5640 -0.5447
 7818TIP3    H144869   3.138   1.430  13.887  1.1819  2.9043  2.2086
 7818TIP3    H244870   3.013   1.487  13.824  0.6799 -1.8192 -1.5945
 7819TIP3   OH244871   1.336   0.444  11.749  0.0678  0.2035  0.5182
 7819TIP3    H144872   1.267   0.479  11.806  0.7185 -0.0959  1.5199
 7819TIP3    H244873   1.400   0.515  11.743  0.7042 -0.2717  1.3899
 7820TIP3   OH244874   1.577   3.964  15.359 -0.8067  0.4442 -0.2798
 7820TIP3    H144875   1.663   3.948  15.398  0.0831  3.0776 -0.9281
 7820TIP3    H244876   1.566   3.894  15.295  1.5233  0.7871 -1.1353
 7821TIP3   OH244877   1.952   5.960   2.709 -0.0879  0.5559 -0.0565
 7821TIP3    H144878   1.943   5.867   2.732 -2.9025  0.7309 -0.1920
 7821TIP3    H244879   1.995   5.998   2.786 -0.1940 -0.6059  0.6132
 7822TIP3   OH244880   0.412   1.957   4.569 -0.0625  0.4868 -0.7540
 7822TIP3    H144881   0.325   1.954   4.610 -0.4847 -0.9912 -1.6834
 7822TIP3    H244882   0.447   1.869   4.582  0.8751  0.7762 -1.2750
 7823TIP3   OH244883   0.703   6.356  15.975  0.3104 -0.3738  0.5164
 7823TIP3    H144884   0.661   6.280  16.015  1.3068 -0.9470  0.5000
 7823TIP3    H244885   0.682   6.429  16.034  1.6619 -1.1808  2.0541
 7824TIP3   OH244886   5.863   1.179   4.892  0.1985  0.0473 -0.7917
 7824TIP3    H144887   5.801   1.107   4.890 -0.6229  0.7222 -0.4847
 7824TIP3    H244888   5.817   1.249   4.937  1.2733  0.5014 -0.3637
 7825TIP3   OH244889   2.338   2.824  15.048  0.4896 -0.1766  0.2101
 7825TIP3    H144890   2.315   2.917  15.049 -2.2906 -0.7215 -1.6427
 7825TIP3    H244891   2.350   2.801  15.140 -0.8945  1.5570  0.8786
 7826TIP3   OH244892   1.383   1.158   2.627  0.3909 -0.9359 -0.9811
 7826TIP3    H144893   1.316   1.145   2.559  1.2981 -0.2416 -2.0346
 7826TIP3    H244894   1.345   1.117   2.705 -1.5820  0.0425 -1.3417
 7827TIP3   OH244895   1.674   5.155  13.714  0.5907 -0.5069 -0.3035
 7827TIP3    H144896   1.621   5.164  13.635  0.9440  0.8837 -0.4074
 7827TIP3    H244897   1.764   5.163  13.683  0.8013 -1.2019  0.0971
 7828TIP3   OH244898   3.387   3.505  11.118 -0.0074 -0.1418 -0.1339
 7828TIP3    H144899   3.451   3.449  11.074 -0.2204 -0.2097 -0.3590
 7828TIP3    H244900   3.350   3.451  11.188  0.5111  0.0457  0.2955
 7829TIP3   OH244901   0.546   2.280  14.152  0.0191 -0.2133  0.1535
 7829TIP3    H144902   0.586   2.365  14.134 -0.9333  0.3579  0.6318
 7829TIP3    H244903   0.614   2.216  14.132  0.7804  0.6681 -0.1224
 7830TIP3   OH244904   1.046   5.162   0.887  0.8202  0.2084  0.1341
 7830TIP3    H144905   1.098   5.218   0.830  0.4320  0.1489 -0.2834
 7830TIP3    H244906   0.983   5.221   0.927 -0.6825 -0.1469 -1.5580
 7831TIP3   OH244907   1.471   5.271   0.940  0.1835 -0.5924 -0.4171
 7831TIP3    H144908   1.415   5.219   0.882 -0.7837 -0.6064  0.4958
 7831TIP3    H244909   1.411   5.303   1.007  0.7793  1.5807 -0.8579
 7832TIP3   OH244910   5.384   6.219   0.510  1.2483 -0.0751  0.0168
 7832TIP3    H144911   5.424   6.202   0.424  0.5299 -0.3066 -0.2856
 7832TIP3    H244912   5.322   6.290   0.493 -0.6451 -1.6967 -0.2165
 7833TIP3   OH244913   6.778   0.838   1.858 -0.5919 -0.5788  0.2529
 7833TIP3    H144914   6.826   0.833   1.941 -0.4652  0.0690  0.2296
 7833TIP3    H244915   6.784   0.931   1.833 -1.5700 -0.5563  0.0763
 7834TIP3   OH244916   1.247   6.615  11.876  0.0390 -0.1874 -0.2517
 7834TIP3    H144917   1.213   6.551  11.938  0.1380  0.1159  0.1141
 7834TIP3    H244918   1.170   6.667  11.850  0.0095 -0.2725 -0.3372
 7835TIP3   OH244919   0.659   3.308   6.030  0.1040  0.5273  0.1102
 7835TIP3    H144920   0.751   3.327   6.046  0.2612 -0.1815  0.0644
 7835TIP3    H244921   0.630   3.263   6.110  0.3667 -1.1935 -0.7191
 7836TIP3   OH244922   4.935   6.358   5.770  0.0269 -0.4088 -0.5419
 7836TIP3    H144923   4.865   6.338   5.833  1.3211 -0.6414  0.8989
 7836TIP3    H244924   4.946   6.453   5.776  0.8206 -0.5353  0.3948
 7837TIP3   OH244925   0.040   1.177  11.539  0.0823  0.3297  0.5535
 7837TIP3    H144926   0.001   1.231  11.608  1.5532  1.0012  0.9056
 7837TIP3    H244927  -0.034   1.134  11.497 -1.2493  2.9694 -0.0433
 7838TIP3   OH244928   3.253   2.552   0.684 -0.3691  0.1218 -0.1477
 7838TIP3    H144929   3.199   2.506   0.748 -0.8745 -0.2407 -0.8265
 7838TIP3    H244930   3.265   2.489   0.613  0.9542  0.1930 -0.0115
 7839TIP3   OH244931   1.969   5.603   1.191 -0.1158 -0.0155 -0.2760
 7839TIP3    H144932   1.946   5.686   1.232 -0.6919 -0.0288 -0.5684
 7839TIP3    H244933   1.908   5.540   1.227  0.5971 -0.4073  0.2684
 7840TIP3   OH244934   3.614   0.057   3.913 -0.5078 -0.4663  0.2572
 7840TIP3    H144935   3.544   0.104   3.958  0.5213 -0.5831  2.0825
 7840TIP3    H244936   3.673   0.028   3.984  0.8128 -1.2996 -1.1204
 7841TIP3   OH244937   6.406   3.358  16.905 -0.0276 -0.5580 -0.0938
 7841TIP3    H144938   6.488   3.399  16.931  0.8488 -3.0116  1.2223
 7841TIP3    H244939   6.392   3.389  16.815  2.4946 -0.3152 -0.4816
 7842TIP3   OH244940   6.398   6.732  15.825 -0.3184 -0.0534 -0.6053
 7842TIP3    H144941   6.349   6.701  15.749 -0.2216 -2.6390  0.2740
 7842TIP3    H244942   6.486   6.696  15.813  0.7496  2.4829 -0.9589
 7843TIP3   OH244943   0.591   2.708  12.163  0.0825 -0.0418  0.5245
 7843TIP3    H144944   0.631   2.686  12.247  1.7549 -1.4651 -0.5754
 7843TIP3    H244945   0.524   2.640  12.150 -0.4296  0.3892  0.8329
 7844TIP3   OH244946   5.572   0.866  16.942  0.0049  0.4425 -0.5262
 7844TIP3    H144947   5.591   0.775  16.919 -1.0436  0.8304 -3.2331
 7844TIP3    H244948   5.591   0.871  17.036  2.2042 -1.9887 -0.7235
 7845TIP3   OH244949   4.658   2.376  15.991  0.1448  0.0572 -0.1269
 7845TIP3    H144950   4.686   2.285  15.999  1.3448  0.5078  1.4383
 7845TIP3    H244951   4.688   2.404  15.905  2.4253 -0.2298  0.4987
 7846TIP3   OH244952   2.667   4.242   4.772  0.3013 -0.4928  0.3679
 7846TIP3    H144953   2.729   4.314   4.782 -0.2763  0.3367 -1.4720
 7846TIP3    H244954   2.591   4.269   4.823  0.7296 -0.6185  1.0836
 7847TIP3   OH244955   4.979   3.548   3.353  0.0748  0.3641  0.3117
 7847TIP3    H144956   5.009   3.544   3.262 -0.3044  0.9796  0.1537
 7847TIP3    H244957   4.886   3.526   3.349  0.4554 -1.4944  0.7977
 7848TIP3   OH244958   1.651   5.549   2.282 -0.3110 -0.8608  0.0542
 7848TIP3    H144959   1.610   5.463   2.273 -1.2108 -0.3532 -0.8935
 7848TIP3    H244960   1.719   5.550   2.214 -1.9148  0.0455 -1.6297
 7849TIP3   OH244961   3.811   3.332   3.512  0.0125 -0.0607  0.1080
 7849TIP3    H144962   3.881   3.330   3.576  2.8761 -0.9714 -2.8064
 7849TIP3    H244963   3.808   3.243   3.476 -2.2289  0.1260 -0.3336
 7850TIP3   OH244964   2.402   0.569   6.244  0.0383 -0.1741 -0.1518
 7850TIP3    H144965   2.358   0.487   6.265  1.8193 -1.5796 -1.6280
 7850TIP3    H244966   2.352   0.604   6.171 -1.6995  0.9693  1.4811
 7851TIP3   OH244967   2.256   6.467   2.931 -0.0171  0.1719 -0.0973
 7851TIP3    H144968   2.270   6.448   3.024  1.4945  0.0984 -0.3063
 7851TIP3    H244969   2.342   6.450   2.891 -0.6019  0.3839 -1.4742
 7852TIP3   OH244970   5.071   5.625  14.439 -0.6462 -0.5047 -0.1047
 7852TIP3    H144971   5.105   5.696  14.385 -2.0493 -2.0983 -3.3553
 7852TIP3    H244972   5.113   5.546  14.404 -3.2747 -1.8479 -0.4360
 7853TIP3   OH244973   5.027   3.014   6.351 -0.0230 -0.6657 -0.1248
 7853TIP3    H144974   4.947   2.969   6.377 -0.8177 -0.3080 -1.8050
 7853TIP3    H244975   5.032   3.090   6.409 -1.2170 -0.3963 -0.3515
 7854TIP3   OH244976   0.721   4.327  12.406 -0.6958 -0.1452 -0.8700
 7854TIP3    H144977   0.795   4.329  12.467 -0.1701  0.1110 -1.5045
 7854TIP3    H244978   0.656   4.271  12.449  0.3511 -1.4039 -0.8506
 7855TIP3   OH244979   5.786   0.092   1.905  0.2225  0.1126  0.0782
 7855TIP3    H144980   5.814   0.082   1.995 -1.5611 -0.9715  0.5744
 7855TIP3    H244981   5.805   0.008   1.864 -0.9952 -0.1886  0.0802
 7856TIP3   OH244982   2.296   4.993  16.658  0.0351 -0.1710  0.2451
 7856TIP3    H144983   2.358   4.929  16.625  1.1857  1.2791 -0.5734
 7856TIP3    H244984   2.245   5.019  16.581 -1.4655 -1.1850  0.8655
 7857TIP3   OH244985   5.028   2.792  15.833 -0.2716 -0.1594  0.3072
 7857TIP3    H144986   5.120   2.802  15.857 -0.8661  3.9078  1.7633
 7857TIP3    H244987   5.011   2.863  15.771 -2.3787 -0.9710 -0.1479
 7858TIP3   OH244988   4.222   3.753  12.686 -0.1547  0.1667  0.1864
 7858TIP3    H144989   4.136   3.740  12.645 -0.0337  0.1256 -0.0564
 7858TIP3    H244990   4.240   3.846  12.673  0.3028 -0.0365 -0.6830
 7859TIP3   OH244991   3.306   5.174  11.625  0.0443 -0.5664 -0.3648
 7859TIP3    H144992   3.301   5.265  11.595  0.2537 -0.3738  0.1770
 7859TIP3    H244993   3.362   5.177  11.702 -0.3669 -1.0783 -0.0415
 7860TIP3   OH244994   5.452   6.153   5.661  0.3501 -0.0317 -0.4257
 7860TIP3    H144995   5.414   6.214   5.724 -0.9180 -1.4414  0.2330
 7860TIP3    H244996   5.438   6.066   5.699  3.1101 -0.7330 -0.7763
 7861TIP3   OH244997   0.713   0.752  10.969  0.5602  0.4326 -0.1240
 7861TIP3    H144998   0.649   0.756  11.040 -1.1157 -3.5479 -1.1551
 7861TIP3    H244999   0.788   0.707  11.006  1.7399  2.5794  0.2849
 7862TIP3   OH245000   4.362   1.772   3.603 -0.0798  0.5725  0.3558
 7862TIP3    H145001   4.272   1.759   3.634  0.3167 -1.2081  0.8612
 7862TIP3    H245002   4.391   1.851   3.648 -0.6535 -0.0939  2.0120
 7863TIP3   OH245003   1.530   1.573  14.926  0.1791 -0.4321  0.1802
 7863TIP3    H145004   1.558   1.520  15.001  0.0003 -0.7765  0.0057
 7863TIP3    H245005   1.444   1.537  14.903 -1.0963  1.5131  1.6135
 7864TIP3   OH245006   1.363   5.358  12.445 -0.4399  0.0043 -0.2558
 7864TIP3    H145007   1.426   5.413  12.398  0.5968 -0.6031  0.3814
 7864TIP3    H245008   1.331   5.297  12.379 -0.4398  0.3767 -0.6079
 7865TIP3   OH245009   4.188   6.775  15.067 -0.1690 -0.0679  0.2648
 7865TIP3    H145010   4.266   6.720  15.075  0.0266 -0.3266 -2.3608
 7865TIP3    H245011   4.221   6.861  15.045 -0.5942  0.2042  0.6755
 7866TIP3   OH245012   3.158   4.271  16.024 -0.5254 -0.6141  0.4871
 7866TIP3    H145013   3.207   4.200  16.065  0.0769 -0.2502  0.4159
 7866TIP3    H245014   3.176   4.348  16.079 -0.7212 -0.3984  0.2539
 7867TIP3   OH245015   4.257   0.312  10.950  0.1553 -0.3184  0.7764
 7867TIP3    H145016   4.244   0.354  10.866 -0.0830 -2.7167 -0.4704
 7867TIP3    H245017   4.334   0.256  10.938  0.6984  0.0028  2.4571
 7868TIP3   OH245018   6.556   5.994  13.105  0.7117 -0.1070  0.4884
 7868TIP3    H145019   6.519   6.079  13.131  0.0378 -0.3670  0.3996
 7868TIP3    H245020   6.650   6.010  13.098  0.8171  0.1820  2.2194
 7869TIP3   OH245021   0.333   3.831  12.211  0.0047  0.2216  0.7612
 7869TIP3    H145022   0.339   3.776  12.134  0.0090  1.6889 -0.3266
 7869TIP3    H245023   0.372   3.779  12.281  1.4825 -0.5118 -0.5648
 7870TIP3   OH245024   0.853   0.546   2.503  0.1744 -0.1105 -0.2461
 7870TIP3    H145025   0.827   0.602   2.576  0.2708 -1.1604  0.6024
 7870TIP3    H245026   0.801   0.466   2.514  1.8882 -1.2262  0.0195
 7871TIP3   OH245027   4.622   4.697   1.131  0.0505 -0.0363 -0.2068
 7871TIP3    H145028   4.670   4.764   1.179 -0.7925 -0.7023  1.6327
 7871TIP3    H245029   4.569   4.747   1.068  0.1654  0.9516  0.4636
 7872TIP3   OH245030   4.508   1.972   3.400 -0.4394  0.2536  0.1592
 7872TIP3    H145031   4.590   1.968   3.450  0.0794 -1.5945 -0.7505
 7872TIP3    H245032   4.453   1.906   3.441 -1.3567  1.2090  0.5052
 7873TIP3   OH245033   4.340   5.210   0.429 -0.4605 -0.0038  0.4158
 7873TIP3    H145034   4.328   5.167   0.514 -2.8415  1.7541  1.1008
 7873TIP3    H245035   4.386   5.292   0.450 -1.2200  0.5232  0.0956
 7874TIP3   OH245036   3.397   3.920   6.347 -0.1832 -0.4364 -0.1731
 7874TIP3    H145037   3.409   3.924   6.252  0.1165 -0.7004 -0.1492
 7874TIP3    H245038   3.364   4.007   6.371  1.3538  0.2073 -0.2950
 7875TIP3   OH245039   3.968   4.014  12.073  0.0277  0.0655 -0.9161
 7875TIP3    H145040   3.970   3.953  12.000  1.2739  0.0160 -0.8664
 7875TIP3    H245041   4.058   4.046  12.080 -0.2967  0.8345 -0.0477
 7876TIP3   OH245042   0.797   5.962  11.173  0.4566  0.1015 -0.6509
 7876TIP3    H145043   0.746   5.941  11.095 -1.0047  2.2175 -0.3408
 7876TIP3    H245044   0.887   5.966  11.142  0.5308 -3.3218 -1.2926
 7877TIP3   OH245045   5.602   0.014  15.834  0.2287  0.3763  0.3296
 7877TIP3    H145046   5.604   0.053  15.747 -1.3681 -0.7521 -0.2441
 7877TIP3    H245047   5.548   0.074  15.886 -1.6902 -0.6569 -0.3870
 7878TIP3   OH245048   2.444   4.426  14.508  0.0537 -0.1748 -0.0450
 7878TIP3    H145049   2.359   4.384  14.504  0.4223 -0.9720  0.2595
 7878TIP3    H245050   2.468   4.425  14.601  0.5624 -0.2988 -0.1717
 7879TIP3   OH245051   5.379   6.214  13.319  0.5665  0.1456 -0.1804
 7879TIP3    H145052   5.415   6.168  13.244  1.0635  0.6833 -0.2815
 7879TIP3    H245053   5.300   6.258  13.286 -1.3066 -2.4976  0.4541
 7880TIP3   OH245054   4.277   6.549   1.116  0.5243 -0.0086  0.1880
 7880TIP3    H145055   4.262   6.613   1.186  3.8120  0.5918  0.4789
 7880TIP3    H245056   4.277   6.464   1.160 -2.0222 -0.1676  0.0743
 7881TIP3   OH245057   5.290   5.667   2.464 -0.1018 -0.1104 -0.4435
 7881TIP3    H145058   5.218   5.728   2.451  1.2652  1.5332 -0.6748
 7881TIP3    H245059   5.344   5.707   2.531  2.1079  0.2084 -2.2674
 7882TIP3   OH245060   3.483   3.317   5.834 -0.1202 -0.2508 -0.5146
 7882TIP3    H145061   3.472   3.410   5.815  1.7735 -0.3215 -2.3681
 7882TIP3    H245062   3.578   3.306   5.845 -0.4367 -1.7227  1.2402
 7883TIP3   OH245063   2.746   4.154   0.278 -0.1584  0.5109 -0.1926
 7883TIP3    H145064   2.812   4.112   0.222 -0.9756 -0.9979 -0.0715
 7883TIP3    H245065   2.789   4.234   0.310  1.3468 -0.0745 -0.6710
 7884TIP3   OH245066   6.322   6.375   0.539 -0.4137  0.3720 -0.1096
 7884TIP3    H145067   6.281   6.437   0.479  0.3350  0.1017 -0.9282
 7884TIP3    H245068   6.251   6.317   0.566 -0.9316  1.0192 -0.0480
 7885TIP3   OH245069   5.118   2.396  15.304  0.1940 -0.0405 -0.5048
 7885TIP3    H145070   5.039   2.431  15.262  0.5609  1.8424  0.2730
 7885TIP3    H245071   5.190   2.444  15.263  0.7324 -0.0039  0.4632
 7886TIP3   OH245072   3.132   0.663   1.431  0.3635 -0.0760  0.0329
 7886TIP3    H145073   3.116   0.589   1.373  0.9625  1.4450 -2.2001
 7886TIP3    H245074   3.210   0.706   1.395 -0.2564  1.9344  0.9129
 7887TIP3   OH245075   4.088   3.408   3.329  0.0929  0.5505 -0.8003
 7887TIP3    H145076   4.121   3.497   3.334  4.7485 -0.8198 -1.8872
 7887TIP3    H245077   4.098   3.384   3.236 -1.9242 -0.8457 -0.7129
 7888TIP3   OH245078   1.846   1.617   0.720 -0.0532 -0.3380  0.1479
 7888TIP3    H145079   1.790   1.648   0.791 -0.2365 -0.5603  0.0997
 7888TIP3    H245080   1.881   1.533   0.751  1.8135  0.6948  1.0175
 7889TIP3   OH245081   4.454   2.209  11.345  0.2430 -0.0650  0.7785
 7889TIP3    H145082   4.540   2.168  11.346  1.1303  1.6126 -0.9132
 7889TIP3    H245083   4.465   2.287  11.291 -1.5240  2.0026  3.1787
 7890TIP3   OH245084   6.736   6.085  11.724 -0.0843 -0.4503 -0.8761
 7890TIP3    H145085   6.705   6.027  11.793 -0.4883 -1.6610 -2.0331
 7890TIP3    H245086   6.711   6.173  11.753 -2.2862 -1.1330 -0.5295
 7891TIP3   OH245087   3.952   4.792  14.865 -0.2185  0.2705  0.1959
 7891TIP3    H145088   4.032   4.799  14.918  1.1146 -0.9308 -1.5414
 7891TIP3    H245089   3.949   4.700  14.838 -1.9244  0.4085 -0.2291
 7892TIP3   OH245090   6.164   0.041  12.838  0.0589 -0.0540  0.0464
 7892TIP3    H145091   6.175  -0.040  12.887 -1.1151 -0.1742  0.1576
 7892TIP3    H245092   6.105   0.094  12.892 -1.2568 -0.1865 -1.1711
 7893TIP3   OH245093   3.951   1.203  13.069 -0.5773 -0.3724 -0.0840
 7893TIP3    H145094   4.022   1.192  13.006  1.2889 -1.5389  2.0736
 7893TIP3    H245095   3.936   1.298  13.072  1.6415  0.0204  0.1244
 7894TIP3   OH245096   6.647   1.102  14.616 -0.4065 -0.6247 -0.0029
 7894TIP3    H145097   6.729   1.055  14.604 -0.0126  0.1152 -0.3176
 7894TIP3    H245098   6.612   1.069  14.699  0.5203 -0.5022  0.4556
 7895TIP3   OH245099   2.862   1.865  13.707 -0.0466 -0.3239  0.4979
 7895TIP3    H145100   2.779   1.860  13.754  0.1597 -1.3549  0.7766
 7895TIP3    H245101   2.859   1.949  13.661 -0.9868 -0.0866  0.9744
 7896TIP3   OH245102   1.999   2.915   3.550  0.5183 -0.5953  0.1183
 7896TIP3    H145103   2.017   2.841   3.491 -0.6515 -0.8120  0.0144
 7896TIP3    H245104   2.009   2.879   3.638  0.0334 -0.8537  0.0670
 7897TIP3   OH245105   5.725   1.259  14.899  0.4135  0.0399  0.4421
 7897TIP3    H145106   5.722   1.219  14.986  0.9770  1.2791  1.0586
 7897TIP3    H245107   5.792   1.209  14.852  1.2878  0.4072  1.2774
 7898TIP3   OH245108   0.275   2.162   0.191 -0.2144  0.1584 -0.3414
 7898TIP3    H145109   0.306   2.103   0.260  0.6831 -0.4513 -1.2431
 7898TIP3    H245110   0.195   2.201   0.227  0.0383 -0.4196  0.8934
 7899TIP3   OH245111   2.522   4.077   5.841  0.6393 -0.4261 -0.2879
 7899TIP3    H145112   2.488   4.050   5.755  0.9982 -0.3883 -0.4414
 7899TIP3    H245113   2.477   4.019   5.903 -0.2323  0.0951 -0.4259
 7900TIP3   OH245114   0.793   4.429   5.976 -0.6616 -0.5004 -0.6424
 7900TIP3    H145115   0.883   4.396   5.971 -0.3134 -0.1619  2.1610
 7900TIP3    H245116   0.771   4.427   6.069 -3.6841 -0.8026 -1.2491
 7901TIP3   OH245117   3.480   6.208   0.785 -0.0215  0.3494 -0.5792
 7901TIP3    H145118   3.553   6.270   0.790  0.1804 -0.0041  1.7790
 7901TIP3    H245119   3.412   6.246   0.840 -1.1023 -0.0522 -1.5849
 7902TIP3   OH245120   4.798   0.198  14.556 -0.2674  0.1721  0.1594
 7902TIP3    H145121   4.815   0.187  14.649  0.6728  1.2738  0.1495
 7902TIP3    H245122   4.729   0.265  14.552  0.3049  0.7698  0.0649
 7903TIP3   OH245123   4.401   5.841  11.279 -0.0917  0.0591  0.0591
 7903TIP3    H145124   4.480   5.788  11.295 -0.0759  0.4618  1.4019
 7903TIP3    H245125   4.432   5.915  11.227  0.4249  0.2289  0.6002
 7904TIP3   OH245126   0.309   0.235   0.458 -0.2217 -0.4665 -0.3919
 7904TIP3    H145127   0.367   0.159   0.454  0.1802 -0.3711  1.9447
 7904TIP3    H245128   0.223   0.201   0.433  0.2286 -1.3332 -0.8143
 7905TIP3   OH245129   3.647   6.471  16.667 -0.8394 -0.8183  0.2428
 7905TIP3    H145130   3.649   6.562  16.695  0.0030 -0.4117 -1.0846
 7905TIP3    H245131   3.698   6.424  16.733 -0.6217 -0.2189  0.5044
 7906TIP3   OH245132   5.194   5.349  16.782 -0.1369  0.1306 -0.1566
 7906TIP3    H145133   5.210   5.262  16.820  1.3941 -0.0504 -1.1551
 7906TIP3    H245134   5.226   5.343  16.692 -1.3612  1.3151 -0.7204
 7907TIP3   OH245135   3.037   1.997   5.701 -0.1098  0.1213  0.2707
 7907TIP3    H145136   3.131   2.016   5.694 -0.0843 -0.4303 -1.6553
 7907TIP3    H245137   3.005   2.005   5.611 -1.3870 -2.1940  0.4254
 7908TIP3   OH245138   4.206   0.108   2.454  0.0858  0.1204 -0.1843
 7908TIP3    H145139   4.155   0.090   2.375 -0.3227 -1.3236  0.3770
 7908TIP3    H245140   4.297   0.090   2.429 -0.0841 -0.6983 -0.2405
 7909TIP3   OH245141   1.916   3.276  11.236  0.2149 -0.5614 -0.7086
 7909TIP3    H145142   1.829   3.315  11.227  0.8682  0.9809 -0.5694
 7909TIP3    H245143   1.944   3.258  11.146 -0.3128 -1.2346 -0.7438
 7910TIP3   OH245144   3.863   1.731   1.672  0.3214  0.5660  0.3747
 7910TIP3    H145145   3.843   1.824   1.677  0.0847  0.4607  2.2350
 7910TIP3    H245146   3.955   1.725   1.698  0.4340  0.3076 -0.0709
 7911TIP3   OH245147   0.606   6.010  12.957 -0.3359 -0.1081  0.1030
 7911TIP3    H145148   0.631   5.943  12.895 -1.2247  0.6200 -1.0840
 7911TIP3    H245149   0.637   6.092  12.918  0.5084  0.2252  1.3993
 7912TIP3   OH245150   1.856   6.662  11.980 -0.2880  0.1233  0.3230
 7912TIP3    H145151   1.874   6.748  11.942  2.4670 -0.5120 -0.0632
 7912TIP3    H245152   1.930   6.608  11.953 -0.2484 -1.4983  3.1915
 7913TIP3   OH245153   2.910   5.412   3.013 -1.0889  0.1811 -0.2784
 7913TIP3    H145154   2.993   5.428   3.058 -1.7509 -1.6947  1.7988
 7913TIP3    H245155   2.882   5.499   2.984  0.7061  1.1151  0.5658
 7914TIP3   OH245156   3.667   4.454  13.056 -0.2877  0.3025  0.0406
 7914TIP3    H145157   3.617   4.393  13.002  2.3159 -0.1581 -2.0610
 7914TIP3    H245158   3.662   4.538  13.009 -1.6869  1.1067  1.5313
 7915TIP3   OH245159   3.318   5.044  10.865  0.6095 -0.2131 -0.3521
 7915TIP3    H145160   3.388   4.987  10.897  0.0369 -0.0372  1.3062
 7915TIP3    H245161   3.241   4.987  10.860 -0.1119  0.4864  1.8872
 7916TIP3   OH245162   0.936   2.268   2.261  0.2811  0.4082 -0.0245
 7916TIP3    H145163   0.952   2.254   2.355 -0.7338 -1.5171 -0.0887
 7916TIP3    H245164   0.984   2.349   2.241  0.7166  0.7527  2.0876
 7917TIP3   OH245165   2.703   1.094   2.547  0.1274 -0.2100 -0.1790
 7917TIP3    H145166   2.691   1.107   2.641 -0.2572 -0.8990 -0.1298
 7917TIP3    H245167   2.765   1.162   2.521  1.5066 -1.0260  0.8746
 7918TIP3   OH245168   3.644   2.193  12.597  0.1151  0.2023  0.1557
 7918TIP3    H145169   3.623   2.194  12.503 -1.2249 -1.0060  0.4108
 7918TIP3    H245170   3.583   2.254  12.636 -1.5630 -1.6681  0.6138
 7919TIP3   OH245171   3.272   1.357  16.511  0.0430 -0.4953 -0.0144
 7919TIP3    H145172   3.349   1.412  16.509 -0.1638 -0.2257 -1.6418
 7919TIP3    H245173   3.255   1.342  16.604  2.0447 -0.5833  0.3601
 7920TIP3   OH245174   1.849   4.531   2.312 -0.1020 -0.7255 -0.2555
 7920TIP3    H145175   1.811   4.470   2.375 -0.9137 -1.1887 -1.1728
 7920TIP3    H245176   1.865   4.611   2.363  1.2316 -1.7588  1.0329
 7921TIP3   OH245177   4.635   0.208  16.018 -0.5387 -0.3725  0.3063
 7921TIP3    H145178   4.688   0.250  16.086  0.7270 -0.5268 -0.5460
 7921TIP3    H245179   4.545   0.232  16.039  0.0057  1.4256  0.7643
 7922TIP3   OH245180   6.534   2.374   3.098 -0.0281  0.4527  0.2576
 7922TIP3    H145181   6.553   2.285   3.129  3.0782  0.3453 -1.5475
 7922TIP3    H245182   6.534   2.367   3.002  1.2974  2.5019  0.0380
 7923TIP3   OH245183   2.250   4.626   4.521 -0.2849  0.2301  0.1112
 7923TIP3    H145184   2.345   4.620   4.510  0.1301  2.8843  1.4900
 7923TIP3    H245185   2.234   4.592   4.609 -0.5410  0.3474  0.1102
 7924TIP3   OH245186   2.997   4.632  14.455 -0.3807  0.1784  0.3538
 7924TIP3    H145187   3.073   4.633  14.514  0.2090 -3.6003 -0.0773
 7924TIP3    H245188   2.922   4.618  14.512 -0.0930 -0.9878  0.4877
 7925TIP3   OH245189   6.783   1.480   5.275  0.5211 -0.0479 -0.2506
 7925TIP3    H145190   6.762   1.399   5.322 -1.2042  0.1127 -0.7018
 7925TIP3    H245191   6.787   1.454   5.183  0.1274  0.3549 -0.3815
 7926TIP3   OH245192   1.396   3.174  16.363  0.1111 -0.2121 -0.1738
 7926TIP3    H145193   1.450   3.233  16.311  1.1548 -1.1871 -0.2300
 7926TIP3    H245194   1.335   3.232  16.410 -0.0463  0.7696 -1.5264
 7927TIP3   OH245195   2.859   2.601   5.365 -0.0831 -0.1772  0.3224
 7927TIP3    H145196   2.937   2.546   5.373  0.7523  0.9254 -0.0115
 7927TIP3    H245197   2.859   2.654   5.445 -0.3351  0.0260  0.1889
 7928TIP3   OH245198   6.361   3.573  13.718  0.5232 -0.0138 -0.4768
 7928TIP3    H145199   6.346   3.556  13.625 -2.0233  1.8708 -0.5160
 7928TIP3    H245200   6.354   3.487  13.760  0.7759 -0.7606 -1.8987
 7929TIP3   OH245201   1.188   6.056   5.089  0.1701  0.0332 -0.3390
 7929TIP3    H145202   1.152   6.133   5.132  0.7542 -0.1212  0.4536
 7929TIP3    H245203   1.283   6.072   5.086  0.3624 -0.8655  0.2962
 7930TIP3   OH245204   3.705   6.729  12.836 -0.6599  0.4670  0.0176
 7930TIP3    H145205   3.741   6.653  12.881 -0.1883  0.3769 -0.5031
 7930TIP3    H245206   3.625   6.697  12.795  0.7836 -0.4192 -2.2670
 7931TIP3   OH245207   0.779   1.385  12.179  0.1336 -0.1265 -0.7044
 7931TIP3    H145208   0.764   1.300  12.220  0.4119  1.4468  2.9889
 7931TIP3    H245209   0.697   1.403  12.131 -0.9486 -1.3632  0.5954
 7932TIP3   OH245210   1.959   3.598   4.042 -0.0288  0.5856 -0.4272
 7932TIP3    H145211   1.912   3.640   3.970  1.5367  4.5138  0.5624
 7932TIP3    H245212   2.051   3.601   4.015  0.3487 -0.1003  0.7072
 7933TIP3   OH245213   1.142   0.979   4.131 -0.2373 -0.2615  0.3276
 7933TIP3    H145214   1.104   0.910   4.077  0.9346  0.5359 -1.5856
 7933TIP3    H245215   1.237   0.969   4.121 -0.0369  1.4837  0.1912
 7934TIP3   OH245216   3.605   2.092   5.484 -0.2282 -0.0945 -0.3564
 7934TIP3    H145217   3.552   2.167   5.454  0.9837  1.0011  0.1335
 7934TIP3    H245218   3.695   2.115   5.460  0.3938 -0.5882  1.3275
 7935TIP3   OH245219   1.529   5.333  11.061 -0.1345 -0.5686 -0.4256
 7935TIP3    H145220   1.439   5.345  11.093  0.0074  0.1561 -0.2733
 7935TIP3    H245221   1.580   5.397  11.110  0.5284 -1.1972 -0.2809
 7936TIP3   OH245222   0.871   6.459  13.186 -0.6815 -0.4803 -0.3190
 7936TIP3    H145223   0.782   6.436  13.213 -0.1736 -3.0356 -0.5659
 7936TIP3    H245224   0.910   6.501  13.263 -1.8107 -0.1154  0.0729
 7937TIP3   OH245225   6.675   5.951  15.429  0.8133 -0.0838  0.0506
 7937TIP3    H145226   6.728   5.872  15.427  0.1656 -0.5560  0.9905
 7937TIP3    H245227   6.591   5.925  15.392  0.5344  0.1140  0.5424
 7938TIP3   OH245228   5.915   2.104  15.318  0.7104 -0.2140 -0.3658
 7938TIP3    H145229   5.867   2.021  15.320 -0.8383  0.5520 -2.1306
 7938TIP3    H245230   5.864   2.162  15.373  1.1390 -0.1105 -0.0754
 7939TIP3   OH245231   6.223   4.600  14.526 -0.3334  0.4235  0.7398
 7939TIP3    H145232   6.197   4.522  14.575  0.6036 -1.2272 -1.2274
 7939TIP3    H245233   6.315   4.613  14.549  0.6145 -1.3530 -1.6247
 7940TIP3   OH245234   6.259   5.366   4.978 -0.6247  0.1396  0.0707
 7940TIP3    H145235   6.188   5.345   5.038 -1.1803 -1.4739 -1.0871
 7940TIP3    H245236   6.320   5.293   4.986  0.0181  0.6252 -0.2679
 7941TIP3   OH245237   2.716   0.384  15.365 -0.1154  0.1288  0.0450
 7941TIP3    H145238   2.678   0.430  15.440 -1.2720  0.6074 -0.8071
 7941TIP3    H245239   2.801   0.426  15.352  0.5350 -0.6179  1.6710
 7942TIP3   OH245240   2.288   5.203  14.839 -0.3781 -0.0395 -0.2151
 7942TIP3    H145241   2.343   5.146  14.787 -0.5013 -1.6818  1.3436
 7942TIP3    H245242   2.280   5.283  14.787  1.6006 -0.5908 -1.4821
 7943TIP3   OH245243   4.710   3.823  13.904  0.4552 -0.6118  0.1688
 7943TIP3    H145244   4.709   3.875  13.824 -1.5958 -0.1271  0.4436
 7943TIP3    H245245   4.718   3.888  13.975 -0.9135 -0.7333  0.4616
 7944TIP3   OH245246   4.928   2.712   1.905  0.7727  0.0289 -0.2937
 7944TIP3    H145247   4.951   2.741   1.993  1.9309 -1.4270 -0.0782
 7944TIP3    H245248   4.866   2.777   1.873  0.5987  0.7607  1.4678
 7945TIP3   OH245249   4.228   1.052  13.339  0.2017 -0.0611 -0.3165
 7945TIP3    H145250   4.221   0.956  13.334  0.8244 -0.0644 -1.9169
 7945TIP3    H245251   4.169   1.083  13.271 -2.2604  0.8662  2.1102
 7946TIP3   OH245252   4.528   1.207   6.376  0.8591 -0.0407  0.1752
 7946TIP3    H145253   4.592   1.251   6.431 -0.3574  0.3743  1.3189
 7946TIP3    H245254   4.508   1.269   6.307  1.1777  0.1034  0.2146
 7947TIP3   OH245255   0.217   0.636  12.947 -0.4346 -0.1296  0.6031
 7947TIP3    H145256   0.253   0.617  13.033 -0.9911  1.8600  1.3360
 7947TIP3    H245257   0.165   0.716  12.959  0.5646  1.0115 -1.8261
 7948TIP3   OH245258   3.185   6.134  10.247 -0.0324 -0.6505 -0.3377
 7948TIP3    H145259   3.137   6.217  10.255  0.8532 -0.1622  0.1130
 7948TIP3    H245260   3.277   6.160  10.248  0.2545 -1.6074 -0.7173
 7949TIP3   OH245261   3.315   2.099  14.897 -0.2956  0.5391 -0.1499
 7949TIP3    H145262   3.390   2.140  14.939  0.7410 -1.0278 -0.4014
 7949TIP3    H245263   3.239   2.149  14.930  0.9289  3.8678 -1.9038
 7950TIP3   OH245264   2.242   5.319   5.097 -0.0905  0.5369  0.4501
 7950TIP3    H145265   2.295   5.241   5.114 -0.3164  0.5432  1.2579
 7950TIP3    H245266   2.156   5.297   5.133  0.0743  1.4680  1.4679
 7951TIP3   OH245267   4.228   1.328  12.996 -0.3135  0.1287  0.2773
 7951TIP3    H145268   4.274   1.384  12.933 -1.1002 -0.5174 -0.9185
 7951TIP3    H245269   4.149   1.379  13.018 -0.6089 -0.1265 -0.1638
 7952TIP3   OH245270   4.390   0.905  16.031  0.2281  0.2488  0.6293
 7952TIP3    H145271   4.330   0.871  16.097  1.1206  0.0600  1.3621
 7952TIP3    H245272   4.334   0.955  15.971 -0.5756  0.5356  1.5981
 7953TIP3   OH245273   5.162   6.188  15.231  0.3764 -0.3884  0.0790
 7953TIP3    H145274   5.105   6.139  15.171  1.2494 -1.0899 -0.1896
 7953TIP3    H245275   5.101   6.239  15.285 -0.5668 -1.6835  0.2898
 7954TIP3   OH245276   3.014   1.568   3.936 -0.2916 -0.2729 -0.1152
 7954TIP3    H145277   3.073   1.610   3.874 -0.7783  0.4013 -0.1263
 7954TIP3    H245278   2.927   1.601   3.914 -0.4635  0.0404  0.9570
 7955TIP3   OH245279   5.085   0.351  15.962  0.1508  0.0561  0.0416
 7955TIP3    H145280   5.081   0.329  15.869 -1.3501  2.1642 -0.4721
 7955TIP3    H245281   5.023   0.291  16.004 -0.8043  0.5302 -0.6676
 7956TIP3   OH245282   3.026   4.965   3.553  0.6483  0.3420  0.4996
 7956TIP3    H145283   3.048   4.964   3.460  1.9690 -3.5837  0.6908
 7956TIP3    H245284   3.109   4.978   3.597 -0.1201  3.3787  1.2637
 7957TIP3   OH245285   3.396   2.632   2.088  0.1637 -0.3279 -0.1960
 7957TIP3    H145286   3.458   2.583   2.034  2.5844 -0.5745  2.6209
 7957TIP3    H245287   3.322   2.572   2.098  1.3318 -1.8108 -0.1047
 7958TIP3   OH245288   1.370   5.236  16.274  0.8203  0.0198  0.4115
 7958TIP3    H145289   1.387   5.161  16.217 -0.7155 -0.2906  0.2972
 7958TIP3    H245290   1.406   5.212  16.359  0.1396 -0.9730  0.4388
 7959TIP3   OH245291   3.032   4.924   0.976  0.0187  0.1648 -0.4790
 7959TIP3    H145292   3.119   4.928   0.937  0.7237 -0.5165  0.9493
 7959TIP3    H245293   3.046   4.943   1.069 -1.2097 -0.8935 -0.0446
 7960TIP3   OH245294   5.736   4.638  15.471  0.2283 -0.1671 -0.2830
 7960TIP3    H145295   5.646   4.670  15.470  1.3029  3.3382 -0.2102
 7960TIP3    H245296   5.761   4.635  15.563  0.6018  0.2933 -0.3633
 7961TIP3   OH245297   4.678   4.907   1.924  0.1814  0.1031  0.0447
 7961TIP3    H145298   4.616   4.851   1.971 -0.0370  0.4373  0.1606
 7961TIP3    H245299   4.732   4.946   1.993  0.2340  0.1542 -0.0250
 7962TIP3   OH245300   6.274   4.612  12.750 -0.0027  0.0237  0.3032
 7962TIP3    H145301   6.240   4.701  12.761  1.2236  0.4346  1.0372
 7962TIP3    H245302   6.269   4.574  12.837 -0.4521 -0.6095  0.0035
 7963TIP3   OH245303   6.152   3.330   0.280 -0.1900 -0.3833  0.0153
 7963TIP3    H145304   6.147   3.239   0.309  1.6593 -0.2540  0.8298
 7963TIP3    H245305   6.100   3.379   0.345 -0.9331 -0.7887 -0.2569
 7964TIP3   OH245306   3.746   1.085   2.274 -0.4798 -0.0227 -0.1315
 7964TIP3    H145307   3.837   1.093   2.302 -0.5444  1.1128 -0.1929
 7964TIP3    H245308   3.721   1.173   2.247 -1.4620 -0.4102 -0.5558
 7965TIP3   OH245309   3.600   6.124  16.636  0.0543 -0.1714 -0.0904
 7965TIP3    H145310   3.691   6.098  16.650  0.1956  0.8773  1.1906
 7965TIP3    H245311   3.569   6.067  16.566  1.9013 -0.0904 -1.0361
 7966TIP3   OH245312   0.586   1.763   2.094  0.5242 -0.0332 -0.2115
 7966TIP3    H145313   0.630   1.758   2.178 -0.4894  0.1554  0.3415
 7966TIP3    H245314   0.504   1.716   2.106  0.4318 -0.1430 -1.1405
 7967TIP3   OH245315   2.620   0.255  15.104 -0.4397  0.0480  0.3263
 7967TIP3    H145316   2.582   0.328  15.056 -1.0308 -1.0779 -1.0037
 7967TIP3    H245317   2.663   0.295  15.180 -0.9678  1.7219 -0.2189
 7968TIP3   OH245318   2.425   4.913   5.942 -0.0624 -0.2242 -0.3985
 7968TIP3    H145319   2.435   4.830   5.989 -1.3558  0.2482  0.7908
 7968TIP3    H245320   2.360   4.894   5.874 -3.3577  0.5991  2.2404
 7969TIP3   OH245321   2.361   5.943   5.514  0.2190 -0.1683  0.2635
 7969TIP3    H145322   2.416   6.021   5.511 -1.1527  0.8239  0.0942
 7969TIP3    H245323   2.283   5.970   5.562 -0.8819 -1.0140 -0.9644
 7970TIP3   OH245324   3.129   4.877   4.481 -0.1657  0.1789  0.2706
 7970TIP3    H145325   3.095   4.857   4.394 -2.2100 -1.2621  1.3361
 7970TIP3    H245326   3.116   4.972   4.490  0.9014  0.5063 -1.2902
 7971TIP3   OH245327   1.053   5.457   5.668  0.3098 -0.9204  0.4964
 7971TIP3    H145328   0.978   5.493   5.621  1.9415  0.6003 -1.1006
 7971TIP3    H245329   1.129   5.487   5.618  2.0395 -1.6884  2.5251
 7972TIP3   OH245330   0.836   3.726   2.948 -0.2212 -0.2688 -0.4171
 7972TIP3    H145331   0.845   3.794   3.014  0.2148 -2.2369  1.6625
 7972TIP3    H245332   0.926   3.696   2.932 -0.5702 -1.9955  0.5876
 7973TIP3   OH245333   1.084   3.016  16.912 -0.3289 -0.2463 -0.1202
 7973TIP3    H145334   1.170   3.059  16.914 -0.5969  0.3494 -0.8014
 7973TIP3    H245335   1.103   2.923  16.924  0.3724 -0.0670  0.2183
 7974TIP3   OH245336   3.004   0.363  11.991  0.1021  0.1369  0.1991
 7974TIP3    H145337   3.040   0.423  12.056 -1.6131  0.9115  0.4950
 7974TIP3    H245338   3.069   0.361  11.921  0.6911  1.5091  0.6718
 7975TIP3   OH245339   6.099   3.772  15.302 -0.6985  0.0225  0.1625
 7975TIP3    H145340   6.114   3.771  15.207 -2.1898 -1.1793 -0.1066
 7975TIP3    H245341   6.019   3.824  15.312  0.4224  1.6418  0.9618
 7976TIP3   OH245342   5.196   5.755   3.103  0.4111 -0.1745  0.0888
 7976TIP3    H145343   5.141   5.820   3.059 -0.4434 -0.4319  0.7481
 7976TIP3    H245344   5.137   5.683   3.122  1.2082 -0.8736 -0.0471
 7977TIP3   OH245345   0.383   0.794  12.141  0.5922  0.1059  0.5157
 7977TIP3    H145346   0.435   0.723  12.105  0.0200  0.0879 -0.3019
 7977TIP3    H245347   0.430   0.873  12.117 -0.0189  0.1181 -0.6887
 7978TIP3   OH245348   5.979   5.514   0.854 -0.4526  0.2332 -0.2403
 7978TIP3    H145349   6.047   5.562   0.903 -1.4648  2.1224 -0.6088
 7978TIP3    H245350   5.901   5.522   0.909 -0.5927 -1.3101 -0.1714
 7979TIP3   OH245351   1.431   3.566  11.334 -0.4458  0.3115 -0.1089
 7979TIP3    H145352   1.433   3.499  11.265  0.8301  1.3508 -1.1277
 7979TIP3    H245353   1.490   3.532  11.402 -0.3445  0.0786 -0.3118
 7980TIP3   OH245354   0.025   5.863  13.261  0.1268 -0.2974  0.2592
 7980TIP3    H145355  -0.012   5.947  13.232  1.0574  0.0479  0.0226
 7980TIP3    H245356   0.082   5.836  13.188 -0.0229 -1.0393  0.4170
 7981TIP3   OH245357   6.711   2.836   4.680 -0.3668  0.4964 -0.4535
 7981TIP3    H145358   6.718   2.885   4.598  1.8331  0.1744 -0.5144
 7981TIP3    H245359   6.798   2.799   4.694 -0.9972 -0.4295  1.4467
 7982TIP3   OH245360   6.044   1.025   5.392  0.5613 -0.3013  0.2864
 7982TIP3    H145361   6.088   1.102   5.430  0.6454 -0.8843  1.4135
 7982TIP3    H245362   6.108   0.955   5.400  0.4497 -0.5204 -0.6669
 7983TIP3   OH245363   0.695   4.281  13.811 -0.5255  0.2350 -0.0092
 7983TIP3    H145364   0.648   4.279  13.728 -0.0694  0.1136 -0.2686
 7983TIP3    H245365   0.629   4.261  13.877 -1.1165  1.3410 -0.2425
 7984TIP3   OH245366   5.028   5.622   4.436 -0.3000 -0.0209  0.2013
 7984TIP3    H145367   5.074   5.700   4.467 -0.3559  0.2195 -0.3093
 7984TIP3    H245368   5.086   5.549   4.458  1.3389  0.4187 -2.2138
 7985TIP3   OH245369   4.790   0.744   0.182  0.1844 -0.3950 -0.3101
 7985TIP3    H145370   4.836   0.828   0.192 -2.8358  1.2450  0.8690
 7985TIP3    H245371   4.829   0.688   0.249 -0.1481  1.2644  1.3546
 7986TIP3   OH245372   4.759   0.168  12.820 -0.3592  0.2422  0.4449
 7986TIP3    H145373   4.851   0.175  12.793 -0.3917 -0.0952  0.2490
 7986TIP3    H245374   4.720   0.107  12.758 -0.7449  0.4662  0.4630
 7987TIP3   OH245375   2.268   2.880   1.578  0.3713 -0.5311  0.1857
 7987TIP3    H145376   2.239   2.853   1.492  0.8139  0.0626 -0.1613
 7987TIP3    H245377   2.188   2.903   1.625  0.1216 -0.9657 -0.0235
 7988TIP3   OH245378   2.924   0.297   0.257 -0.5926 -0.2645  0.1242
 7988TIP3    H145379   2.895   0.278   0.168 -2.6906 -0.7769  0.8572
 7988TIP3    H245380   2.877   0.377   0.281 -0.0265 -0.1129  0.7669
 7989TIP3   OH245381   1.667   0.865  13.240 -0.0924 -0.2682  0.1005
 7989TIP3    H145382   1.633   0.819  13.164  1.2439  0.2061 -0.8217
 7989TIP3    H245383   1.719   0.800  13.287 -0.2161 -0.3354  0.1449
 7990TIP3   OH245384   4.986   0.460   2.653 -0.0520  0.2013 -0.6177
 7990TIP3    H145385   5.045   0.384   2.652  0.3243  0.4909 -0.7833
 7990TIP3    H245386   4.974   0.481   2.560 -0.2997  0.2343 -0.5779
 7991TIP3   OH245387   0.005   1.518  13.727 -0.2518  0.2071  0.1299
 7991TIP3    H145388   0.028   1.432  13.763  0.5753  0.7126  0.8413
 7991TIP3    H245389  -0.059   1.553  13.790 -0.6064  0.1127 -0.1724
 7992TIP3   OH245390   6.221   3.411  13.142  0.1590 -0.7184  0.0139
 7992TIP3    H145391   6.307   3.452  13.132 -0.5066  0.9643  0.8214
 7992TIP3    H245392   6.191   3.396  13.053  0.7121 -0.0592 -0.2880
 7993TIP3   OH245393   0.700   1.581  12.427  0.2777 -0.1781 -0.4380
 7993TIP3    H145394   0.697   1.491  12.393 -0.6684  0.1512 -1.2739
 7993TIP3    H245395   0.793   1.599  12.438  0.4650 -1.4987  0.4043
 7994TIP3   OH245396   2.235   2.676   1.174 -0.2578 -0.3349  0.5303
 7994TIP3    H145397   2.235   2.705   1.083 -0.8194  0.9750  0.9138
 7994TIP3    H245398   2.294   2.738   1.218 -0.4860 -0.5545  1.1572
 7995TIP3   OH245399   0.453   4.431   0.972  0.1554  0.6149 -0.4399
 7995TIP3    H145400   0.548   4.424   0.970  0.1821  0.5632  0.4687
 7995TIP3    H245401   0.430   4.470   0.888  0.9432  0.2520 -0.8351
 7996TIP3   OH245402   3.108   0.910  15.165 -1.1232 -0.3334  0.1122
 7996TIP3    H145403   3.123   0.818  15.187 -0.4263 -0.2749 -0.1053
 7996TIP3    H245404   3.020   0.929  15.199 -1.3105 -1.1056  0.0649
 7997TIP3   OH245405   5.962   6.636  13.585  0.5806 -0.7164 -0.0144
 7997TIP3    H145406   6.018   6.589  13.648 -0.7312 -1.4555  0.6328
 7997TIP3    H245407   6.008   6.626  13.501  1.1076 -1.8677  0.3845
 7998TIP3   OH245408   0.117   6.347  11.151 -0.2364  0.2932  0.4382
 7998TIP3    H145409   0.046   6.383  11.098  0.9337  0.9325 -0.7519
 7998TIP3    H245410   0.188   6.410  11.143  0.6983 -0.6299  1.0851
 7999TIP3   OH245411   1.778   3.888   1.995  0.1718  0.3881 -0.3273
 7999TIP3    H145412   1.711   3.820   1.990  1.4006 -0.8329 -0.6489
 7999TIP3    H245413   1.740   3.962   1.949 -1.9266  0.6082  1.5724
 8000TIP3   OH245414   4.942   2.772   1.425 -0.2297  0.1884 -0.3600
 8000TIP3    H145415   4.877   2.737   1.486 -0.0962 -0.8626 -0.7864
 8000TIP3    H245416   5.023   2.728   1.449  0.4710  1.8771  0.5061
 8001TIP3   OH245417   2.863   0.506   5.496  0.0322  0.2631 -0.1647
 8001TIP3    H145418   2.887   0.533   5.407 -2.0352  1.3049 -0.4743
 8001TIP3    H245419   2.884   0.412   5.499  2.1127  0.6428 -0.9903
 8002TIP3   OH245420   2.163   6.764  16.777 -0.2046 -0.2008  0.1070
 8002TIP3    H145421   2.177   6.720  16.693 -1.2173 -0.9219  0.2879
 8002TIP3    H245422   2.250   6.770  16.816  0.3817  0.7308 -1.2544
 8003TIP3   OH245423   0.015   1.385   5.015  0.2400  0.1188  0.5302
 8003TIP3    H145424   0.072   1.316   4.982 -1.0031 -0.0550 -1.4255
 8003TIP3    H245425   0.038   1.463   4.963 -0.2474  0.4467  0.7935
 8004TIP3   OH245426   5.943   4.527  11.244 -0.6533  0.8065  0.0044
 8004TIP3    H145427   6.027   4.562  11.215 -1.2018  1.0994 -1.2903
 8004TIP3    H245428   5.963   4.481  11.326  0.7909  0.7344 -0.3662
 8005TIP3   OH245429   6.196   5.081  15.496 -0.0833  0.5248  0.3089
 8005TIP3    H145430   6.261   5.015  15.472 -1.7019 -0.7256 -0.8487
 8005TIP3    H245431   6.193   5.140  15.421  0.1134  0.9247  0.6103
 8006TIP3   OH245432   0.751   0.447  11.866  0.3598  0.5250  0.1134
 8006TIP3    H145433   0.707   0.393  11.800 -0.7573 -0.1964  1.3991
 8006TIP3    H245434   0.813   0.499  11.816 -0.2601 -0.1864 -1.4807
 8007TIP3   OH245435   5.055   3.900  10.863 -0.3017  0.3990  0.1149
 8007TIP3    H145436   5.126   3.842  10.838  0.3380  1.4760 -0.6502
 8007TIP3    H245437   5.059   3.972  10.800 -1.1960  1.1794  0.9093
 8008TIP3   OH245438   3.145   1.770  11.841 -0.1296 -0.1745 -0.6000
 8008TIP3    H145439   3.223   1.729  11.805  0.0988  1.4290 -2.0807
 8008TIP3    H245440   3.076   1.751  11.777 -0.1301  1.2476 -1.0639
 8009TIP3   OH245441   3.398   6.031   3.761 -0.4468 -0.0440 -0.0734
 8009TIP3    H145442   3.448   6.014   3.681  1.8746  3.1999  0.4668
 8009TIP3    H245443   3.388   5.945   3.802 -0.5461 -1.6150 -3.1286
 8010TIP3   OH245444   2.749   6.188   4.727 -0.4087 -0.6311  0.9822
 8010TIP3    H145445   2.736   6.120   4.794 -1.4102  2.0322  3.7235
 8010TIP3    H245446   2.842   6.209   4.732 -0.1088 -1.6652  0.1734
 8011TIP3   OH245447   1.610   5.955  13.036  0.2843  0.7704  0.1751
 8011TIP3    H145448   1.579   5.866  13.018 -0.0413  0.7783  0.6836
 8011TIP3    H245449   1.640   5.952  13.127  3.6610  0.2427 -0.8232
 8012TIP3   OH245450   4.332   6.493   2.729  0.2355  0.0964 -0.6131
 8012TIP3    H145451   4.414   6.538   2.749  0.0443  0.6040 -0.9418
 8012TIP3    H245452   4.315   6.514   2.637 -0.6861  0.6769 -0.3192
 8013TIP3   OH245453   2.169   4.400   2.186  0.9611  0.4675 -0.2062
 8013TIP3    H145454   2.105   4.413   2.255 -1.2937 -0.0074 -2.0622
 8013TIP3    H245455   2.249   4.374   2.231 -0.3288  0.4138  2.2012
 8014TIP3   OH245456   3.480   3.366   2.761  0.6341 -0.0450  0.0592
 8014TIP3    H145457   3.461   3.459   2.748 -0.3701 -0.3312 -0.6188
 8014TIP3    H245458   3.451   3.324   2.680 -1.1821 -1.2617  1.2681
 8015TIP3   OH245459   6.171   3.753   3.899 -0.2113 -0.0828  0.0988
 8015TIP3    H145460   6.177   3.807   3.821 -0.9591 -1.0359 -0.6454
 8015TIP3    H245461   6.095   3.785   3.946 -1.7652 -1.5857 -1.2603
 8016TIP3   OH245462   0.283   5.805  12.585  0.3758  0.5455  0.1605
 8016TIP3    H145463   0.279   5.766  12.497  0.3805  1.3591 -0.2122
 8016TIP3    H245464   0.371   5.843  12.590  0.6245 -0.1145  0.7902
 8017TIP3   OH245465   1.624   0.986  12.514  0.3020 -0.5095 -0.3712
 8017TIP3    H145466   1.719   0.994  12.511  0.4099 -1.2654  0.5741
 8017TIP3    H245467   1.604   0.909  12.460  0.0118  0.8997 -2.3724
 8018TIP3   OH245468   3.803   0.098   2.783  0.0336  0.2265  0.0766
 8018TIP3    H145469   3.862   0.031   2.818 -0.7331 -0.9533 -0.7912
 8018TIP3    H245470   3.842   0.122   2.699 -0.6431 -0.4815 -0.4508
 8019TIP3   OH245471   0.144   5.935   6.073 -0.2215  0.2373 -0.3927
 8019TIP3    H145472   0.151   5.986   5.992 -1.5937  1.0230 -0.0427
 8019TIP3    H245473   0.051   5.933   6.092 -0.0272 -0.9619  0.5396
 8020TIP3   OH245474   2.385   0.320   1.434  0.2843  0.3429 -0.4018
 8020TIP3    H145475   2.329   0.361   1.368  0.0856 -0.6909 -0.8914
 8020TIP3    H245476   2.405   0.391   1.496 -1.0218  0.8892 -0.5685
 8021TIP3   OH245477   6.509   0.323  12.721 -0.6037  0.3226 -0.2787
 8021TIP3    H145478   6.512   0.247  12.778 -0.0396  0.0178 -0.7052
 8021TIP3    H245479   6.421   0.320  12.682 -1.2377  0.9041  1.0454
 8022TIP3   OH245480   3.468   0.111   2.637 -0.4063  0.4588  0.5327
 8022TIP3    H145481   3.476   0.199   2.676 -0.3721  0.2545  0.9996
 8022TIP3    H245482   3.398   0.120   2.572  1.8336  1.6774 -1.8843
 8023TIP3   OH245483   4.768   1.841   3.284 -0.5345  0.1822 -0.6946
 8023TIP3    H145484   4.708   1.864   3.214 -1.4022 -0.0952 -0.0557
 8023TIP3    H245485   4.743   1.752   3.309 -2.8721  1.5365  2.5480
 8024TIP3   OH245486   4.644   2.992   2.706  0.0295  0.0731 -0.1310
 8024TIP3    H145487   4.723   3.027   2.747  0.0588 -0.1193 -0.0224
 8024TIP3    H245488   4.675   2.926   2.644 -0.0628 -0.1983  0.1119
 8025TIP3   OH245489   5.055   0.077  12.929  0.1287 -0.0927  0.0818
 8025TIP3    H145490   5.060   0.172  12.935 -0.1034 -0.0979  0.3788
 8025TIP3    H245491   5.022   0.049  13.014 -0.5847 -0.3821 -0.2804
 8026TIP3   OH245492   4.325   4.142   3.836  0.5412 -0.2060  0.4955
 8026TIP3    H145493   4.380   4.065   3.853 -0.4321 -0.5603  2.3337
 8026TIP3    H245494   4.236   4.111   3.850 -0.0174  0.8077 -0.6500
 8027TIP3   OH245495   2.647   0.326   1.149 -0.7030  0.1607 -0.5332
 8027TIP3    H145496   2.656   0.297   1.240 -0.7071  0.1782 -0.5272
 8027TIP3    H245497   2.557   0.357   1.142 -0.4522  0.9940 -0.2986
 8028TIP3   OH245498   4.264   0.792  16.579 -0.7476 -0.1579  0.5674
 8028TIP3    H145499   4.191   0.851  16.562  0.0752  0.2237 -2.1847
 8028TIP3    H245500   4.264   0.781  16.674 -2.7370  1.8969  0.9095
 8029TIP3   OH245501   2.667   5.053   5.884 -0.1812  0.0307 -0.1497
 8029TIP3    H145502   2.584   5.007   5.897 -0.3894 -0.2725 -2.2371
 8029TIP3    H245503   2.716   4.998   5.822  0.3573  1.6419 -1.2187
 8030TIP3   OH245504   3.780   2.229   3.638 -0.2152 -0.0148 -0.5304
 8030TIP3    H145505   3.686   2.208   3.635 -0.1344 -0.3595 -0.7724
 8030TIP3    H245506   3.823   2.144   3.625  0.1540 -0.1859  1.4571
 8031TIP3   OH245507   1.859   1.985   2.023  0.5941 -0.1934  0.1621
 8031TIP3    H145508   1.784   2.030   1.985  0.4230 -0.5157  0.1141
 8031TIP3    H245509   1.933   2.012   1.969  0.6035  0.5493  0.5442
 8032TIP3   OH245510   1.958   3.157   3.659 -0.2421  0.1052 -0.6572
 8032TIP3    H145511   1.935   3.088   3.597 -2.6602  0.4363 -0.2209
 8032TIP3    H245512   1.951   3.238   3.609 -2.8093  0.4291  0.0788
 8033TIP3   OH245513   6.108   6.569   3.886 -0.0836  0.4708 -0.0880
 8033TIP3    H145514   6.060   6.515   3.948 -1.5550  0.6293 -1.0250
 8033TIP3    H245515   6.064   6.553   3.802  1.4566  0.7238 -0.9761
 8034TIP3   OH245516   3.157   4.990  10.487 -0.0134 -0.3256  0.2848
 8034TIP3    H145517   3.216   4.942  10.545 -0.3187 -0.8060  0.2030
 8034TIP3    H245518   3.163   4.943  10.403 -0.7513 -0.5793  0.3655
 8035TIP3   OH245519   3.480   0.584   6.310 -0.1653  0.0490  0.1928
 8035TIP3    H145520   3.464   0.636   6.231  0.0286  0.3410  0.3419
 8035TIP3    H245521   3.508   0.649   6.375 -1.0552 -0.0803  0.7172
 8036TIP3   OH245522   1.502   1.755  11.477 -0.0016  0.3411  0.2985
 8036TIP3    H145523   1.486   1.704  11.398  0.3632  0.0920  0.3833
 8036TIP3    H245524   1.458   1.706  11.547 -0.8600  0.8874  0.1572
 8037TIP3   OH245525   5.963   5.049   3.142  0.0505 -0.0379 -0.0807
 8037TIP3    H145526   6.040   4.993   3.153 -1.5163 -2.1410  0.7325
 8037TIP3    H245527   5.959   5.066   3.048  1.6366  0.3482 -0.1088
 8038TIP3   OH245528   6.361   6.428  16.224  0.3444 -0.0721  0.7665
 8038TIP3    H145529   6.348   6.442  16.317  0.5926  0.1353  0.7693
 8038TIP3    H245530   6.445   6.470  16.204  2.3613 -3.4637  1.2438
 8039TIP3   OH245531   6.737   6.757   3.073  0.0033  0.4801  0.4242
 8039TIP3    H145532   6.657   6.768   3.021 -0.4489  0.1701  1.0547
 8039TIP3    H245533   6.723   6.677   3.123  1.5189 -0.7047 -0.9254
 8040TIP3   OH245534   2.396   4.394  12.057 -0.0630 -0.3872 -0.0650
 8040TIP3    H145535   2.357   4.409  12.143  0.7295 -0.0032  0.2360
 8040TIP3    H245536   2.490   4.404  12.071 -0.0027  1.0917 -1.2280
 8041TIP3   OH245537   0.018   1.027  11.943  0.2619  0.9615  0.2593
 8041TIP3    H145538  -0.008   1.089  12.011 -0.6750  1.2548 -0.3412
 8041TIP3    H245539   0.009   1.076  11.862 -1.8604 -0.3349 -0.3600
 8042TIP3   OH245540   0.267   1.397   0.202  0.3136  0.2687  0.4210
 8042TIP3    H145541   0.184   1.442   0.218  0.2670  0.6933 -0.8364
 8042TIP3    H245542   0.246   1.331   0.137  1.1069  0.9804 -0.5944
 8043TIP3   OH245543   3.874   3.147  14.070 -0.0819  0.1074 -0.0566
 8043TIP3    H145544   3.952   3.182  14.025  0.2838 -0.6126  0.0018
 8043TIP3    H245545   3.813   3.127  13.999  1.0588 -2.4436 -0.4432
 8044TIP3   OH245546   5.377   5.754   4.025 -0.4828 -0.2403  0.2677
 8044TIP3    H145547   5.350   5.733   4.114 -0.1560 -0.7264  0.2571
 8044TIP3    H245548   5.337   5.686   3.971 -0.0307 -0.4127  0.1413
 8045TIP3   OH245549   4.701   1.439  13.738 -0.3535 -0.1872  0.2327
 8045TIP3    H145550   4.606   1.436  13.729 -0.5221  1.8849  0.8230
 8045TIP3    H245551   4.718   1.398  13.823 -0.6882 -0.8469 -0.0155
 8046TIP3   OH245552   6.318   5.605   1.297  0.0472  0.0187  0.4051
 8046TIP3    H145553   6.371   5.531   1.327  0.8413 -0.4302 -1.9110
 8046TIP3    H245554   6.352   5.680   1.346  1.7394 -0.5470  0.1663
 8047TIP3   OH245555   4.635   5.749  12.123  0.3389 -0.5520 -0.5055
 8047TIP3    H145556   4.700   5.792  12.178 -0.7451 -0.2409  0.5771
 8047TIP3    H245557   4.674   5.664  12.101  0.5735 -0.9253  1.2378
 8048TIP3   OH245558   1.886   6.610   5.528  0.2915  0.3775 -0.0113
 8048TIP3    H145559   1.976   6.641   5.525 -0.4102  3.0057  2.3262
 8048TIP3    H245560   1.890   6.528   5.577  1.5393 -0.4645 -1.4348
 8049TIP3   OH245561   0.752   0.166  11.783  0.3991  0.3725  0.4753
 8049TIP3    H145562   0.669   0.127  11.753  0.4357  1.4563 -1.1732
 8049TIP3    H245563   0.742   0.173  11.878 -0.8629 -0.7181  0.4600
 8050TIP3   OH245564   0.999   3.727  15.506  0.1171 -0.1119  0.4800
 8050TIP3    H145565   1.066   3.660  15.490 -1.4612 -1.7506  0.2829
 8050TIP3    H245566   1.008   3.788  15.433  1.7501  0.0408  0.7764
 8051TIP3   OH245567   5.361   0.142   4.626  0.2023 -0.0735 -0.0756
 8051TIP3    H145568   5.453   0.143   4.598  0.0684 -1.7276 -0.6447
 8051TIP3    H245569   5.321   0.072   4.575 -1.2651  0.2668  0.5667
 8052TIP3   OH245570   2.170   2.975   2.543  0.3634  0.3558 -0.4629
 8052TIP3    H145571   2.250   3.007   2.501  0.6132 -0.3425 -0.5326
 8052TIP3    H245572   2.101   3.033   2.510  0.9705  1.5927  0.3644
 8053TIP3   OH245573   5.633   1.659   5.048  0.3584  0.1972  0.0928
 8053TIP3    H145574   5.685   1.679   4.970 -0.8478  1.6202 -0.3841
 8053TIP3    H245575   5.688   1.686   5.121  1.4772 -1.0942 -0.2258
 8054TIP3   OH245576   2.765   6.348   5.215 -0.0137 -0.2293  0.3645
 8054TIP3    H145577   2.764   6.413   5.145  3.3874 -0.3880  0.0068
 8054TIP3    H245578   2.732   6.268   5.175  2.2384 -0.4255 -1.3130
 8055TIP3   OH245579   1.175   1.581   5.735  0.0189 -0.2799 -0.2282
 8055TIP3    H145580   1.150   1.672   5.722 -0.0262 -0.4776 -1.7171
 8055TIP3    H245581   1.270   1.581   5.730  0.4059  0.2357  3.8589
 8056TIP3   OH245582   3.674   6.341  14.370  0.1919 -0.3535 -0.3193
 8056TIP3    H145583   3.586   6.365  14.402 -1.1433 -1.0104 -3.1847
 8056TIP3    H245584   3.708   6.423  14.334  0.1990 -0.4064 -0.4292
 8057TIP3   OH245585   2.523   2.380   4.181 -0.2291  0.3578 -0.0718
 8057TIP3    H145586   2.490   2.341   4.262 -0.4896  0.5947 -0.0648
 8057TIP3    H245587   2.576   2.454   4.209  0.1250  0.1136 -0.0935
 8058TIP3   OH245588   6.503   5.369   2.969  0.0683  0.2628 -0.3137
 8058TIP3    H145589   6.568   5.435   2.942  0.8365  0.0238  0.8691
 8058TIP3    H245590   6.428   5.385   2.913  0.5944  1.5390 -0.6901
 8059TIP3   OH245591   0.100   2.486  13.187 -0.0252  0.2526 -0.2263
 8059TIP3    H145592   0.110   2.538  13.267  1.1382 -0.3497  0.0463
 8059TIP3    H245593   0.018   2.517  13.148 -0.4707  0.7511  1.0529
 8060TIP3   OH245594   3.802   2.951   3.742  0.5395 -0.3831  0.4211
 8060TIP3    H145595   3.898   2.949   3.741  0.5378 -0.6344 -0.0723
 8060TIP3    H245596   3.777   2.901   3.664  0.0097 -0.0869  0.3972
 8061TIP3   OH245597   3.572   2.118   1.623 -0.0868  0.1121  0.4658
 8061TIP3    H145598   3.495   2.108   1.679 -1.1634  1.4884 -0.7197
 8061TIP3    H245599   3.567   2.044   1.562 -1.8559  1.4655 -1.1421
 8062TIP3   OH245600   4.343   2.492  13.597  0.0895 -0.2261 -0.2815
 8062TIP3    H145601   4.315   2.566  13.651  0.5161 -0.4651  0.2749
 8062TIP3    H245602   4.324   2.415  13.650  1.6425 -0.4007  0.0449
 8063TIP3   OH245603   0.665   0.902  16.170  0.9904  0.1388 -0.2297
 8063TIP3    H145604   0.742   0.848  16.153  1.2380  0.7664 -1.1867
 8063TIP3    H245605   0.688   0.952  16.248  0.9115 -0.8300  0.4375
 8064TIP3   OH245606   4.573   0.664   5.653  0.4145  0.4975 -0.2675
 8064TIP3    H145607   4.662   0.634   5.670 -0.6369 -1.7484  1.9166
 8064TIP3    H245608   4.561   0.739   5.712  1.0500  1.2422 -1.0720
 8065TIP3   OH245609   5.197   5.255  15.662 -0.1726  0.5482  0.0133
 8065TIP3    H145610   5.206   5.201  15.741  0.3979 -0.7752 -0.9126
 8065TIP3    H245611   5.150   5.333  15.691 -0.8841 -0.3733  1.4521
 8066TIP3   OH245612   0.351   4.544   6.281 -0.1158 -0.0064 -0.1572
 8066TIP3    H145613   0.295   4.621   6.279 -0.4058 -0.1243  1.5637
 8066TIP3    H245614   0.348   4.514   6.372  0.0851 -1.9761 -0.7319
 8067TIP3   OH245615   1.513   3.961  13.261 -0.2615  0.4259  0.6620
 8067TIP3    H145616   1.477   3.995  13.180 -0.8385  0.2688  0.8496
 8067TIP3    H245617   1.594   3.917  13.235 -1.3134 -1.1519 -0.0846
 8068TIP3   OH245618   3.560   1.899   1.485  0.4960 -0.3188  0.7139
 8068TIP3    H145619   3.580   1.844   1.409  0.6140  0.5626  0.0936
 8068TIP3    H245620   3.531   1.837   1.552 -1.4636 -0.9574 -0.6331
 8069TIP3   OH245621   1.915   1.278   5.520 -0.5498 -0.0176  0.1452
 8069TIP3    H145622   1.896   1.268   5.613  0.2095  0.4502  0.3653
 8069TIP3    H245623   1.942   1.370   5.511  0.1648 -0.2705 -0.3873
 8070TIP3   OH245624   1.263   2.439   3.538  0.0034  0.1459  0.1255
 8070TIP3    H145625   1.326   2.486   3.483  0.4586  0.2680  0.7469
 8070TIP3    H245626   1.178   2.464   3.503  0.3007 -1.0197 -1.5569
 8071TIP3   OH245627   6.484   3.967   1.787  0.5380  0.3036  0.1701
 8071TIP3    H145628   6.510   3.961   1.879  0.2320 -0.4105  0.2160
 8071TIP3    H245629   6.523   4.049   1.756  1.0784  0.2865  0.7940
 8072TIP3   OH245630   4.972   0.996  13.364 -0.2757 -0.2253  0.0522
 8072TIP3    H145631   4.967   0.971  13.457  1.2596 -1.0188 -0.0474
 8072TIP3    H245632   4.988   1.091  13.366 -0.8269 -0.1389  0.5789
 8073TIP3   OH245633   6.628   6.479   3.812 -0.3601  0.4001  0.0806
 8073TIP3    H145634   6.625   6.554   3.753  1.4546  1.6682  1.4865
 8073TIP3    H245635   6.546   6.484   3.861  0.0404  1.9293  0.6501
 8074TIP3   OH245636   4.779   2.081   2.426 -0.1419 -0.4577  0.1391
 8074TIP3    H145637   4.833   2.002   2.434  1.5170  0.4156 -1.6282
 8074TIP3    H245638   4.811   2.124   2.346 -1.4013  1.6988  0.7154
 8075TIP3   OH245639   1.628   4.684  11.984  0.2235  0.5117  0.4827
 8075TIP3    H145640   1.542   4.648  12.003 -0.1954  0.4110 -1.4509
 8075TIP3    H245641   1.621   4.776  12.006 -1.3031  1.1346 -2.2017
 8076TIP3   OH245642   0.349   0.914   4.599  0.5349  0.1675 -0.4014
 8076TIP3    H145643   0.411   0.987   4.598  1.0934 -0.2880 -0.0581
 8076TIP3    H245644   0.359   0.874   4.512  2.3170 -1.1870  0.3707
 8077TIP3   OH245645   2.365   0.049  12.587 -0.1935 -0.0289 -0.2748
 8077TIP3    H145646   2.367  -0.000  12.669 -1.7569  1.4136  0.6977
 8077TIP3    H245647   2.272   0.063  12.570  0.1440  0.7220 -1.6721
 8078TIP3   OH245648   2.797   4.475   2.013  0.6057 -0.1364  0.6393
 8078TIP3    H145649   2.773   4.415   1.942  0.1946  2.4437 -1.5334
 8078TIP3    H245650   2.893   4.471   2.015  0.7359  0.9551 -1.2508
 8079TIP3   OH245651   3.080   2.539  15.330  0.6720  0.2265 -0.0093
 8079TIP3    H145652   3.085   2.530  15.425  0.1698 -0.0989 -0.0124
 8079TIP3    H245653   3.049   2.628  15.316 -0.0448  0.0028  0.1500
 8080TIP3   OH245654   4.583   5.428   0.189  0.4869  0.0667 -0.2542
 8080TIP3    H145655   4.599   5.335   0.169 -2.8391 -0.5835 -0.5199
 8080TIP3    H245656   4.582   5.471   0.104 -1.1102 -0.3080 -0.4538
 8081TIP3   OH245657   4.456   0.186  17.183  0.2576 -0.0019  0.2406
 8081TIP3    H145658   4.441   0.275  17.216 -0.3863 -0.4740  1.2410
 8081TIP3    H245659   4.543   0.191  17.143  0.7787  0.7727  1.4036
 8082TIP3   OH245660   2.015   1.945  15.807 -0.3116 -0.4079  0.0866
 8082TIP3    H145661   2.103   1.984  15.809 -0.9478  1.0870  1.0140
 8082TIP3    H245662   1.960   2.008  15.854 -1.5629 -2.1263  1.0568
 8083TIP3   OH245663   0.951   1.798  14.538  0.4236 -0.3238 -0.0842
 8083TIP3    H145664   0.926   1.774  14.628  1.7151 -0.8821  0.1530
 8083TIP3    H245665   1.046   1.808  14.542  0.3878  0.5648 -1.1964
 8084TIP3   OH245666   6.018   6.527   5.709 -0.2974  0.0034 -0.2755
 8084TIP3    H145667   6.011   6.448   5.655 -2.4716 -0.1648  0.1505
 8084TIP3    H245668   6.053   6.593   5.650  1.3859 -1.1978 -0.7023
 8085TIP3   OH245669   5.633   4.055   2.864 -0.0853 -0.5372 -0.0446
 8085TIP3    H145670   5.703   4.079   2.803  1.0552 -0.6183  1.1978
 8085TIP3    H245671   5.629   4.127   2.926 -1.2321 -0.4591 -0.1943
 8086TIP3   OH245672   2.739   4.441   3.440 -0.0266 -0.2048  0.4793
 8086TIP3    H145673   2.709   4.388   3.514 -1.7815 -0.0529 -0.0832
 8086TIP3    H245674   2.793   4.382   3.388 -2.2044 -1.6093 -0.3136
 8087TIP3   OH245675   0.639   3.934   4.576 -0.3238  0.3909  0.2701
 8087TIP3    H145676   0.584   3.858   4.555 -1.4456  1.7055 -1.7859
 8087TIP3    H245677   0.729   3.900   4.571 -0.8154 -1.5647  2.7645
 8088TIP3   OH245678   5.188   0.312   5.327 -0.2755  0.2202 -0.3898
 8088TIP3    H145679   5.237   0.246   5.278  1.9313  0.5180  1.2603
 8088TIP3    H245680   5.115   0.263   5.365  1.7157 -1.5688  1.4359
 8089TIP3   OH245681   5.873   4.984  13.331 -0.3983 -0.1137 -0.3596
 8089TIP3    H145682   5.788   4.979  13.286 -0.4543  0.1158 -0.2793
 8089TIP3    H245683   5.910   5.068  13.302  0.7185 -1.1180 -2.0202
 8090TIP3   OH245684   4.753   3.924   2.737 -0.5354 -0.3101 -0.0701
 8090TIP3    H145685   4.779   3.836   2.708 -0.2321  0.4538 -2.2409
 8090TIP3    H245686   4.662   3.913   2.764 -0.5281 -1.2865 -0.3716
 8091TIP3   OH245687   1.640   2.487   2.086 -0.6265 -0.3880  0.6655
 8091TIP3    H145688   1.724   2.517   2.050 -0.6656 -0.8680  0.1742
 8091TIP3    H245689   1.663   2.446   2.169 -0.3182 -0.9275  0.3149
 8092TIP3   OH245690   3.700   4.962   0.151  0.3006  0.0071 -0.4816
 8092TIP3    H145691   3.705   5.019   0.075  0.7383 -0.5083 -0.8432
 8092TIP3    H245692   3.676   4.877   0.116  0.7411 -0.2913 -0.0723
 8093TIP3   OH245693   4.694   3.903  12.547 -0.5984 -0.3100  0.2401
 8093TIP3    H145694   4.643   3.898  12.628  0.3426  2.0774  1.0901
 8093TIP3    H245695   4.632   3.880  12.478 -2.9480  2.3824  1.2050
 8094TIP3   OH245696   1.362   1.183  12.435  0.8686 -0.0086  0.4506
 8094TIP3    H145697   1.448   1.192  12.394  0.9411  1.8892  0.9328
 8094TIP3    H245698   1.315   1.120  12.379  2.2859 -0.4562 -0.2710
 8095TIP3   OH245699   0.587   2.614   1.570 -0.0243 -0.5477 -0.6310
 8095TIP3    H145700   0.612   2.524   1.590 -1.5871 -0.8738 -0.0370
 8095TIP3    H245701   0.596   2.620   1.475  0.1853 -1.3011 -0.6679
 8096TIP3   OH245702   6.604   2.807   3.661 -0.1498 -0.2743  0.5326
 8096TIP3    H145703   6.626   2.826   3.752  1.4451 -0.0188  0.1222
 8096TIP3    H245704   6.661   2.734   3.637  0.0522  0.1943 -0.4926
 8097TIP3   OH245705   4.176   5.544   2.164 -0.1482  0.5016  0.3279
 8097TIP3    H145706   4.238   5.492   2.214  0.7578  0.3589 -0.9062
 8097TIP3    H245707   4.202   5.532   2.073 -0.0747  2.8761 -0.0285
 8098TIP3   OH245708   1.517   1.423  14.048  0.2350  0.0292 -0.1000
 8098TIP3    H145709   1.485   1.511  14.064  0.1347 -0.1571  0.7623
 8098TIP3    H245710   1.574   1.431  13.971  0.6262  0.9272  0.2860
 8099TIP3   OH245711   6.793   5.927   2.473  0.7044  0.6604  0.3725
 8099TIP3    H145712   6.750   6.008   2.501 -0.3605  0.4894 -0.7072
 8099TIP3    H245713   6.887   5.945   2.482  0.5066  2.2143 -0.3713
 8100TIP3   OH245714   2.179   2.183  12.984 -0.6571 -0.0438  0.0985
 8100TIP3    H145715   2.162   2.090  12.972  0.1310 -0.2883  0.8660
 8100TIP3    H245716   2.092   2.224  12.976 -1.0704 -0.8808  0.1954
 8101TIP3   OH245717   3.903   5.558   2.142 -0.5164 -0.2879  0.3461
 8101TIP3    H145718   3.910   5.638   2.089 -0.4072  0.7276  1.8233
 8101TIP3    H245719   3.993   5.538   2.166 -0.7417  1.0216  2.5729
 8102TIP3   OH245720   3.164   3.164   1.722 -0.2960  0.1473  0.0397
 8102TIP3    H145721   3.125   3.130   1.641 -0.9869  0.7474  0.1070
 8102TIP3    H245722   3.107   3.237   1.747  0.8075  0.9732  0.2206
 8103TIP3   OH245723   1.239   4.005  16.593  0.1953  0.1793 -0.4515
 8103TIP3    H145724   1.267   3.950  16.666  0.9217  0.6200 -0.3902
 8103TIP3    H245725   1.144   3.993  16.589  0.4022 -1.5030 -0.7965
 8104TIP3   OH245726   2.780   5.926   3.582  0.1557 -0.4123  0.0682
 8104TIP3    H145727   2.799   5.854   3.522  2.3822 -0.7765  1.1168
 8104TIP3    H245728   2.724   5.984   3.532  1.6393 -0.8584 -2.2851
 8105TIP3   OH245729   6.414   4.723   0.122  0.1251  0.5379  0.3554
 8105TIP3    H145730   6.401   4.655   0.056  0.5274  0.4163  0.3963
 8105TIP3    H245731   6.336   4.719   0.177  0.9633 -1.2072  1.5262
 8106TIP3   OH245732   0.635   4.941   3.596 -0.0065  0.0706  0.7725
 8106TIP3    H145733   0.605   4.933   3.506 -0.8658 -0.9862  1.1316
 8106TIP3    H245734   0.697   4.869   3.608 -1.6054 -1.2157  1.6606
 8107TIP3   OH245735   3.528   6.363   2.929 -0.1202 -0.6593  0.0648
 8107TIP3    H145736   3.452   6.327   2.974 -1.5044 -0.6210 -2.1561
 8107TIP3    H245737   3.510   6.457   2.923  0.8412 -0.4067  0.8510
 8108TIP3   OH245738   3.079   0.948   3.971 -0.3488 -0.1936  0.2454
 8108TIP3    H145739   3.019   0.985   4.036  0.6335  1.4264  0.3039
 8108TIP3    H245740   3.161   0.936   4.019 -0.3893 -1.6582 -0.0215
 8109TIP3   OH245741   5.909   3.812   2.981  0.2394 -0.2345  0.3556
 8109TIP3    H145742   5.982   3.869   3.006 -0.7216  0.6321  1.2788
 8109TIP3    H245743   5.833   3.850   3.025 -0.2954 -2.7952  1.7839
 8110TIP3   OH245744   4.891   0.708   2.804 -0.8137  0.0096  0.1848
 8110TIP3    H145745   4.925   0.629   2.760  1.0602 -0.1560  1.7719
 8110TIP3    H245746   4.815   0.678   2.853 -1.4281 -0.3255 -0.9476
 8111TIP3   OH245747   1.650   4.440  12.413 -0.1943  0.1509  0.4864
 8111TIP3    H145748   1.595   4.506  12.454 -1.9735 -0.1571 -1.2608
 8111TIP3    H245749   1.597   4.406  12.341  1.4426 -1.7770  0.1102
 8112TIP3   OH245750   6.615   5.364   3.233  0.1179 -0.6726 -0.0523
 8112TIP3    H145751   6.699   5.385   3.192 -0.1550  1.4256  0.3426
 8112TIP3    H245752   6.552   5.369   3.161 -0.2675  2.3737  0.3651
 8113TIP3   OH245753   5.398   4.883   1.353 -0.1482  0.1810  0.3949
 8113TIP3    H145754   5.395   4.824   1.278  3.2607 -0.6032  0.7240
 8113TIP3    H245755   5.310   4.879   1.390 -1.3819 -0.8866 -2.4059
 8114TIP3   OH245756   0.392   5.723   1.878 -0.0188  0.2557 -0.3305
 8114TIP3    H145757   0.385   5.808   1.834 -2.0738 -0.5170 -1.6367
 8114TIP3    H245758   0.316   5.673   1.846 -0.0847 -1.3202  2.0539
 8115TIP3   OH245759   5.443   1.336  12.921 -0.1720 -0.2431 -0.0781
 8115TIP3    H145760   5.495   1.416  12.914 -1.5530  0.9626  2.1233
 8115TIP3    H245761   5.506   1.265  12.912  1.1578  1.0553 -1.7567
 8116TIP3   OH245762   5.399   4.899   4.629 -0.0427 -0.0218 -0.3120
 8116TIP3    H145763   5.454   4.975   4.611 -2.4622  2.5865  2.2573
 8116TIP3    H245764   5.453   4.843   4.685  0.5261  1.8111  1.0699
 8117TIP3   OH245765   6.197   6.091   0.399  0.7819  0.2178  0.5841
 8117TIP3    H145766   6.240   6.118   0.481  1.8958  2.7186 -0.7065
 8117TIP3    H245767   6.269   6.079   0.337 -0.1462  0.3576 -0.5514
 8118TIP3   OH245768   2.772   6.526  11.352 -0.0465 -0.5118 -0.1797
 8118TIP3    H145769   2.769   6.621  11.339 -0.7487 -0.3628  0.9259
 8118TIP3    H245770   2.681   6.498  11.342 -0.2817 -0.6849  1.9700
 8119TIP3   OH245771   3.686   3.998   5.450  0.1674  0.2464 -0.0703
 8119TIP3    H145772   3.631   3.943   5.395 -0.7184  0.6202  0.4103
 8119TIP3    H245773   3.676   4.086   5.414  0.5630  0.2989 -0.0588
 8120TIP3   OH245774   5.026   0.432  11.069 -0.4813 -0.6031  0.0824
 8120TIP3    H145775   5.058   0.438  10.979 -0.1330 -1.0405  0.1727
 8120TIP3    H245776   5.035   0.340  11.091 -1.8561 -0.7443  0.1061
 8121TIP3   OH245777   4.611   4.869  12.585  0.2947  0.1012 -0.7830
 8121TIP3    H145778   4.604   4.835  12.496  1.6023 -2.6664  0.0628
 8121TIP3    H245779   4.630   4.792  12.639 -1.8964  1.4197  2.1442
 8122TIP3   OH245780   1.358   3.933  10.921 -0.0630 -0.3508 -0.3498
 8122TIP3    H145781   1.304   3.891  10.855  0.8737 -0.6038 -0.9638
 8122TIP3    H245782   1.307   4.010  10.948 -0.8908 -0.7888 -0.6357
 8123TIP3   OH245783   2.456   6.709   1.491 -0.1117  0.5461 -0.5769
 8123TIP3    H145784   2.536   6.659   1.473 -1.1954 -1.1520 -0.8831
 8123TIP3    H245785   2.411   6.715   1.407 -1.1299 -0.0473 -0.0964
 8124TIP3   OH245786   2.452   1.571  14.512  0.1680  0.3729  0.2532
 8124TIP3    H145787   2.454   1.585  14.607  0.5992  1.0374  0.1522
 8124TIP3    H245788   2.440   1.658  14.475  0.2831  0.1510 -0.3157
 8125TIP3   OH245789   4.193   3.098  11.787 -0.5859  0.0428  0.0015
 8125TIP3    H145790   4.194   3.008  11.821 -2.1192  0.0001 -0.0266
 8125TIP3    H245791   4.221   3.090  11.696  2.1601 -0.0158  0.7534
 8126TIP3   OH245792   4.965   5.418   0.461 -0.4139  0.0727 -0.2807
 8126TIP3    H145793   4.877   5.400   0.494  0.1909 -0.9159  0.8635
 8126TIP3    H245794   4.979   5.353   0.393 -0.4512  0.0418 -0.2588
 8127TIP3   OH245795   4.160   6.106  13.796 -0.5812 -0.2876  0.4843
 8127TIP3    H145796   4.195   6.065  13.874 -0.8687 -2.9924 -0.6910
 8127TIP3    H245797   4.218   6.180  13.779 -0.5418  0.4065  3.2005
 8128TIP3   OH245798   3.411   6.207  16.824  0.3934  0.1656  0.1254
 8128TIP3    H145799   3.432   6.127  16.872  0.9831  0.2437  0.0005
 8128TIP3    H245800   3.447   6.193  16.736  0.1202  0.3983 -0.0282
 8129TIP3   OH245801   5.005   0.261  14.934  0.2962 -0.6890  0.8182
 8129TIP3    H145802   4.962   0.315  15.000  2.2757  1.5277  0.4478
 8129TIP3    H245803   5.097   0.263  14.957  0.9332 -0.6432 -1.4357
 8130TIP3   OH245804   5.281   2.476  12.935  0.1725  0.6138  0.3599
 8130TIP3    H145805   5.230   2.423  12.997 -0.0690  1.5328  0.9826
 8130TIP3    H245806   5.372   2.450  12.950  0.2336  1.6152  1.9363
 8131TIP3   OH245807   4.517   4.213   1.845 -0.9943 -0.0688 -0.2388
 8131TIP3    H145808   4.501   4.306   1.834 -1.2138 -0.1160 -0.3266
 8131TIP3    H245809   4.450   4.184   1.907  0.9883  0.4436  2.3147
 8132TIP3   OH245810   6.261   6.610   6.470  0.4310 -0.6472 -0.6782
 8132TIP3    H145811   6.284   6.585   6.381 -0.0787 -2.1710 -0.4139
 8132TIP3    H245812   6.322   6.560   6.525  0.7098  0.2387 -0.1509
 8133TIP3   OH245813   6.048   3.604  14.150 -0.3042 -0.1735 -0.1538
 8133TIP3    H145814   6.100   3.525  14.167 -0.5752 -0.1048  1.1060
 8133TIP3    H245815   6.078   3.667  14.216  0.1607  0.9256 -1.3617
 8134TIP3   OH245816   3.098   1.712   6.345  0.1175  0.5713 -0.1656
 8134TIP3    H145817   3.021   1.675   6.387 -0.2727  0.3146 -1.0773
 8134TIP3    H245818   3.067   1.742   6.259  1.0764  0.2006 -0.6670
 8135TIP3   OH245819   4.267   5.199   5.352 -0.3722 -0.3906 -0.3843
 8135TIP3    H145820   4.345   5.221   5.302 -0.6639  0.1863 -0.5961
 8135TIP3    H245821   4.224   5.283   5.368 -0.6567 -0.6402  0.2168
 8136TIP3   OH245822   0.084   0.165   0.317  0.1381  0.1499  0.4530
 8136TIP3    H145823   0.083   0.072   0.338 -1.8617 -0.1407 -0.6510
 8136TIP3    H245824   0.032   0.206   0.386 -1.0333  0.0654 -0.3361
 8137TIP3   OH245825   2.211   4.599   1.158 -0.3850  0.2520  0.5608
 8137TIP3    H145826   2.222   4.518   1.208 -2.4401 -1.4739 -1.5852
 8137TIP3    H245827   2.117   4.615   1.157 -0.2178  1.4252 -0.9279
 8138TIP3   OH245828   0.820   2.925   1.978 -0.3926 -0.2856  0.0038
 8138TIP3    H145829   0.728   2.951   1.980 -0.0499  1.1104 -0.6007
 8138TIP3    H245830   0.820   2.838   1.937 -1.3952  0.0048 -0.6511
 8139TIP3   OH245831   2.224   3.207   5.624  0.4091  0.1707  0.4841
 8139TIP3    H145832   2.313   3.241   5.637 -0.7333  3.4644  0.8319
 8139TIP3    H245833   2.179   3.227   5.706 -0.6706 -1.4571  0.3203
 8140TIP3   OH245834   1.382   1.713   0.653 -0.6325 -0.5611  0.3907
 8140TIP3    H145835   1.358   1.721   0.561  0.1844  2.6773  0.3465
 8140TIP3    H245836   1.312   1.661   0.691 -2.4962  0.3813 -1.5486
 8141TIP3   OH245837   5.272   1.222  11.315  0.0292  1.1371  0.1958
 8141TIP3    H145838   5.272   1.316  11.329 -1.6510  0.9881  1.4571
 8141TIP3    H245839   5.340   1.207  11.250 -0.1232  3.2804 -0.4998
 8142TIP3   OH245840   5.441   0.082  14.281 -0.4181 -0.4413  0.1450
 8142TIP3    H145841   5.374   0.150  14.293 -0.8198 -0.6053 -1.0783
 8142TIP3    H245842   5.489   0.108  14.202  2.2602  0.7065  1.9851
 8143TIP3   OH245843   1.773   0.446   2.087  0.0237  0.1748  0.9171
 8143TIP3    H145844   1.844   0.437   2.024  1.1937 -0.2096  2.2496
 8143TIP3    H245845   1.699   0.477   2.034  1.0060  0.0858 -0.5966
 8144TIP3   OH245846   4.996   0.297   2.164  0.8669 -0.1052  0.4131
 8144TIP3    H145847   4.933   0.369   2.156  2.3422  0.9787 -3.2912
 8144TIP3    H245848   5.023   0.300   2.256 -0.0016  3.3341  0.7093
 8145TIP3   OH245849   1.731   1.423   2.963  0.2122 -0.0219 -0.3718
 8145TIP3    H145850   1.737   1.328   2.965 -0.4960 -0.0697 -0.3894
 8145TIP3    H245851   1.638   1.442   2.963  0.3130  0.7082  1.4429
 8146TIP3   OH245852   1.517   5.149  11.768  0.2997  0.7932  0.4434
 8146TIP3    H145853   1.470   5.089  11.826 -0.9171  1.0322 -0.2719
 8146TIP3    H245854   1.558   5.212  11.826  1.1341 -0.3725  1.1770
 8147TIP3   OH245855   3.917   2.839   0.223  0.2211 -0.6535 -0.3280
 8147TIP3    H145856   3.849   2.781   0.258 -1.0501  0.5565 -0.6988
 8147TIP3    H245857   3.939   2.897   0.296  0.9594 -1.1331 -0.1690
 8148TIP3   OH245858   2.552   6.685  16.183 -0.2623  0.0396  0.2354
 8148TIP3    H145859   2.645   6.663  16.178 -0.2396  0.2381 -0.2446
 8148TIP3    H245860   2.514   6.614  16.235  0.1286 -0.1318  0.2925
 8149TIP3   OH245861   0.046   1.092  16.888 -0.8379  0.0188 -0.4309
 8149TIP3    H145862   0.017   1.182  16.906 -0.6219  0.0959 -0.4672
 8149TIP3    H245863   0.141   1.099  16.878 -0.8482 -0.1751 -0.6743
 8150TIP3   OH245864   6.242   4.875   1.698 -0.2650  0.3958 -0.3029
 8150TIP3    H145865   6.313   4.811   1.710 -0.1184  0.6277  0.1017
 8150TIP3    H245866   6.267   4.925   1.621 -1.0610 -0.9222 -1.4592
 8151TIP3   OH245867   1.469   3.940   0.423 -0.6490  0.3147  0.6013
 8151TIP3    H145868   1.398   3.882   0.394 -1.0429  0.0076  2.0950
 8151TIP3    H245869   1.428   4.027   0.427 -0.5694  0.3750  0.1961
 8152TIP3   OH245870   2.334   2.329  13.158  0.3845  0.3802 -0.0092
 8152TIP3    H145871   2.339   2.420  13.128  3.3078  0.2945 -0.0890
 8152TIP3    H245872   2.281   2.285  13.092  1.2539  1.5169 -1.5445
 8153TIP3   OH245873   0.633   0.800   0.459  0.3766 -0.0164 -0.2245
 8153TIP3    H145874   0.603   0.887   0.432 -1.1492  0.1134  1.6787
 8153TIP3    H245875   0.727   0.809   0.470  0.2023  1.4819  0.2028
 8154TIP3   OH245876   1.232   4.686   1.032  0.0505  0.0031  0.9721
 8154TIP3    H145877   1.240   4.776   1.001 -1.3184 -0.0701  0.3319
 8154TIP3    H245878   1.138   4.668   1.030  0.0973 -0.7667  3.0788
 8155TIP3   OH245879   3.726   4.858   2.925  0.3312 -0.5282 -0.1340
 8155TIP3    H145880   3.796   4.793   2.918 -0.0808 -1.0131  0.2613
 8155TIP3    H245881   3.721   4.879   3.018  2.2600  2.0662 -0.4921
 8156TIP3   OH245882   5.884   6.673  12.299  0.4996 -0.3222 -0.0069
 8156TIP3    H145883   5.798   6.657  12.260 -1.0356  1.3413  2.3941
 8156TIP3    H245884   5.912   6.757  12.262  1.0496 -0.7730 -0.6449
 8157TIP3   OH245885   2.715   4.243   1.883 -0.5123  0.3271  0.1331
 8157TIP3    H145886   2.770   4.173   1.848  0.5707 -0.0271  2.3714
 8157TIP3    H245887   2.626   4.216   1.863 -0.0144 -0.6339 -0.8744
 8158TIP3   OH245888   3.446   3.383  14.031 -0.2853 -0.1396  0.3778
 8158TIP3    H145889   3.530   3.391  14.078  0.2781  0.1080 -0.6440
 8158TIP3    H245890   3.458   3.308  13.974 -0.0918  0.9567 -1.0843
 8159TIP3   OH245891   2.935   4.759   6.471  0.6085  0.2732  0.0029
 8159TIP3    H145892   2.914   4.758   6.377 -0.8903 -0.5537  0.3157
 8159TIP3    H245893   2.915   4.848   6.499 -2.3913 -0.3808  0.2115
 8160TIP3   OH245894   5.280   0.137   4.252 -0.6394 -0.1775  0.8513
 8160TIP3    H145895   5.189   0.160   4.234 -0.6440 -0.3463  0.6377
 8160TIP3    H245896   5.274   0.061   4.310 -0.6413 -0.4247  0.5312
 8161TIP3   OH245897   6.352   2.471   3.650 -0.1855 -0.1360  0.3216
 8161TIP3    H145898   6.370   2.378   3.637  0.2589 -0.0837  0.5160
 8161TIP3    H245899   6.298   2.496   3.576  1.0305 -0.1791 -0.6067
 8162TIP3   OH245900   2.301   4.429   2.550  0.4048  0.5163 -0.5343
 8162TIP3    H145901   2.353   4.352   2.524  2.2726  2.2063 -2.1675
 8162TIP3    H245902   2.216   4.416   2.508  0.5251 -0.8455 -0.4047
 8163TIP3   OH245903   5.368   4.802  16.056  0.5764 -0.6897 -0.3571
 8163TIP3    H145904   5.324   4.724  16.021  1.0629 -1.1256  0.0051
 8163TIP3    H245905   5.338   4.873  15.999  0.0892 -1.1283 -0.6578
 8164TIP3   OH245906   2.892   2.100   0.625 -0.0254 -0.4574 -0.2914
 8164TIP3    H145907   2.903   2.030   0.689  1.6127 -0.1582 -0.1973
 8164TIP3    H245908   2.797   2.107   0.613 -0.3041 -1.4120  1.0977
 8165TIP3   OH245909   4.881   3.145   2.075 -0.0618 -0.2056 -0.1890
 8165TIP3    H145910   4.860   3.082   2.007 -0.2423  1.7442 -2.0547
 8165TIP3    H245911   4.797   3.185   2.098  0.1602  0.0070  0.2701
 8166TIP3   OH245912   2.914   2.051  12.168  0.0384  0.3246 -0.7877
 8166TIP3    H145913   2.894   1.971  12.217 -1.2895  1.4357  0.5608
 8166TIP3    H245914   2.841   2.061  12.108 -0.5401  1.2799  0.0567
 8167TIP3   OH245915   0.245   4.425  15.124 -0.4331 -0.1323  0.2851
 8167TIP3    H145916   0.312   4.408  15.191  0.6011 -1.6692 -1.0580
 8167TIP3    H245917   0.181   4.480  15.169  1.1438  0.4657  1.9762
 8168TIP3   OH245918   2.310   4.881  10.227 -0.2580  0.1526  0.3362
 8168TIP3    H145919   2.286   4.831  10.305 -1.5700  1.4927  0.8422
 8168TIP3    H245920   2.335   4.967  10.260  1.0712  0.1507 -0.5835
 8169TIP3   OH245921   3.116   1.350   5.216  0.3847  0.5365  0.2007
 8169TIP3    H145922   3.055   1.420   5.192 -0.5784 -0.6733 -0.9769
 8169TIP3    H245923   3.084   1.319   5.301 -0.9700 -0.3885 -0.6039
 8170TIP3   OH245924   4.440   3.731   5.382  0.1887  0.1376  0.2139
 8170TIP3    H145925   4.519   3.725   5.437 -0.5792  0.3003  1.3666
 8170TIP3    H245926   4.428   3.825   5.367 -0.4234  0.1995  1.0187
 8171TIP3   OH245927   4.441   6.692  14.638 -0.8730 -0.1697 -0.0527
 8171TIP3    H145928   4.352   6.677  14.607 -1.8760 -0.8682  2.9238
 8171TIP3    H245929   4.488   6.611  14.617 -1.0585 -0.0370 -1.0634
 8172TIP3   OH245930   1.869   2.563  14.287  0.5015 -0.3036 -0.1015
 8172TIP3    H145931   1.956   2.522  14.287  0.5467 -0.2058  0.2524
 8172TIP3    H245932   1.848   2.573  14.194  0.6316 -0.8270 -0.1910
 8173TIP3   OH245933   2.516   5.920  14.139  0.0476  0.1902 -0.5460
 8173TIP3    H145934   2.603   5.947  14.170  0.3096 -0.4604 -0.6825
 8173TIP3    H245935   2.532   5.889  14.050 -0.5254  1.1029 -0.9834
 8174TIP3   OH245936   1.062   2.647  17.075  0.2736 -0.2473  0.3810
 8174TIP3    H145937   0.999   2.638  17.004  0.5816 -0.0785  0.0834
 8174TIP3    H245938   1.027   2.592  17.146 -1.6591  1.9108  1.2400
 8175TIP3   OH245939   3.034   3.421   5.739  0.0172 -0.0704  0.2432
 8175TIP3    H145940   3.105   3.457   5.793  0.6473 -2.2918  1.0018
 8175TIP3    H245941   3.066   3.428   5.649  2.1806 -2.7604  0.6604
 8176TIP3   OH245942   6.101   4.199  15.540 -0.1891  0.6373 -0.6807
 8176TIP3    H145943   6.133   4.206  15.630  1.4406 -0.7008 -1.1129
 8176TIP3    H245944   6.036   4.129  15.543 -0.8925  1.2935 -0.3681
 8177TIP3   OH245945   6.474   0.515  15.754 -0.2489  0.1042  0.5891
 8177TIP3    H145946   6.560   0.481  15.779 -0.1433 -0.2112 -0.1934
 8177TIP3    H245947   6.484   0.610  15.758 -0.2688  0.0772  1.8349
 8178TIP3   OH245948   2.417   3.295   2.616 -0.1423  0.6795  0.2187
 8178TIP3    H145949   2.409   3.239   2.538  0.2087  1.1953 -0.1942
 8178TIP3    H245950   2.327   3.302   2.649 -0.1258 -0.5378  0.5769
 8179TIP3   OH245951   6.137   6.547  13.349 -0.7460  0.4249 -0.3880
 8179TIP3    H145952   6.171   6.582  13.266 -0.1286 -0.6563 -0.6181
 8179TIP3    H245953   6.066   6.488  13.323 -0.3124 -0.1974 -0.1824
 8180TIP3   OH245954   4.926   2.451   6.347 -0.2066  0.0159  0.0692
 8180TIP3    H145955   5.021   2.452   6.364 -0.2967 -0.2117  0.6243
 8180TIP3    H245956   4.895   2.374   6.394 -0.7245  0.3029  0.2044
 8181TIP3   OH245957   0.490   6.533  11.603 -0.7374 -0.1385 -1.1900
 8181TIP3    H145958   0.461   6.442  11.601  0.3546 -0.4858 -1.8804
 8181TIP3    H245959   0.585   6.529  11.589 -0.8164  1.1726 -2.3038
 8182TIP3   OH245960   6.306   0.358  16.261  0.1392 -0.3766 -0.3563
 8182TIP3    H145961   6.339   0.307  16.188 -2.0325 -2.2594 -0.1287
 8182TIP3    H245962   6.314   0.300  16.337 -1.0185  0.1423  0.1911
 8183TIP3   OH245963   1.155   1.167   1.818  0.2807 -0.4085  0.0758
 8183TIP3    H145964   1.226   1.113   1.782  0.5804  0.9057 -1.3930
 8183TIP3    H245965   1.082   1.154   1.758  0.6161  1.4072 -0.7968
 8184TIP3   OH245966   4.897   3.020   2.873  0.6394 -0.7303  0.7338
 8184TIP3    H145967   4.957   3.003   2.800  0.4906  3.0218 -0.5117
 8184TIP3    H245968   4.949   3.074   2.934 -0.7632  0.7627  0.6702
 8185TIP3   OH245969   0.194   5.066   2.079  0.4034  0.2027 -0.3467
 8185TIP3    H145970   0.259   5.118   2.033 -0.4784  0.7202 -1.0490
 8185TIP3    H245971   0.231   5.053   2.167  1.3977  0.5491 -0.7049
 8186TIP3   OH245972   2.885   1.825  14.233  0.1430 -0.8182 -0.4607
 8186TIP3    H145973   2.935   1.805  14.154  0.5307 -2.0375  0.0576
 8186TIP3    H245974   2.826   1.750  14.244 -1.7348  0.5091 -0.9658
 8187TIP3   OH245975   6.140   4.565  11.064 -0.7112  0.0289  0.5162
 8187TIP3    H145976   6.111   4.537  10.977 -0.2091 -0.1290  0.3979
 8187TIP3    H245977   6.220   4.515  11.080 -0.9824 -0.1915  1.2122
 8188TIP3   OH245978   4.873   5.955  13.839  0.3850  0.3442 -0.2252
 8188TIP3    H145979   4.881   5.927  13.748 -0.2220  1.2814 -0.5812
 8188TIP3    H245980   4.960   5.987  13.863  0.7702 -0.6820 -0.1911
 8189TIP3   OH245981   1.670   1.266   4.125  0.1899 -0.3511 -0.1145
 8189TIP3    H145982   1.725   1.194   4.153  0.3522 -0.5129 -0.8133
 8189TIP3    H245983   1.603   1.274   4.192  0.8221 -0.4254  0.5292
 8190TIP3   OH245984   5.089   6.481  10.814 -0.7640 -0.4058 -0.5354
 8190TIP3    H145985   4.996   6.500  10.818 -0.6780 -0.0768  0.0369
 8190TIP3    H245986   5.119   6.524  10.734 -0.9118  0.3935 -0.1698
 8191TIP3   OH245987   4.519   6.013  11.122 -0.4559 -0.1927  0.0711
 8191TIP3    H145988   4.611   5.992  11.111 -0.5688 -1.3678  1.1749
 8191TIP3    H245989   4.507   6.094  11.072  1.0264 -0.3259 -0.5550
 8192TIP3   OH245990   0.929   4.292  12.579  0.4482  0.2456  0.0539
 8192TIP3    H145991   1.004   4.248  12.539 -0.3345 -0.4149 -0.7398
 8192TIP3    H245992   0.876   4.221  12.615 -1.0435  0.4479 -1.6071
 8193TIP3   OH245993   6.645   6.331  15.089 -0.5199  0.3612 -0.0983
 8193TIP3    H145994   6.584   6.306  15.020  0.4594 -1.3620 -0.3918
 8193TIP3    H245995   6.593   6.325  15.170 -1.5484  1.9636 -0.5937
 8194TIP3   OH245996   4.032   1.081   2.305  0.2342 -0.4449  0.2243
 8194TIP3    H145997   4.098   1.142   2.337 -0.2413 -0.5866  1.5570
 8194TIP3    H245998   4.045   1.079   2.210 -0.4753  2.5882 -0.0402
 8195TIP3   OH245999   0.366   5.607   2.710  0.2105 -0.3218 -0.4272
 8195TIP3    H146000   0.286   5.655   2.731 -0.1292 -0.2208 -1.8638
 8195TIP3    H246001   0.437   5.664   2.739 -0.2085  0.6141 -1.1904
 8196TIP3   OH246002   3.619   0.579  11.891  0.1086 -0.1554 -0.0388
 8196TIP3    H146003   3.573   0.544  11.967  0.3485 -0.1965  0.0878
 8196TIP3    H246004   3.550   0.593  11.825  0.0970 -1.4626 -0.3293
 8197TIP3   OH246005   5.678   6.058  14.498 -0.1647  0.0699 -0.0960
 8197TIP3    H146006   5.688   5.965  14.480 -1.2451  0.2172 -1.6094
 8197TIP3    H246007   5.608   6.062  14.563 -0.4094 -0.1554 -0.3419
 8198TIP3   OH246008   2.040   6.635   3.501 -0.2268 -1.0290 -0.5205
 8198TIP3    H146009   2.000   6.691   3.568 -0.4089 -1.0946 -0.5753
 8198TIP3    H246010   1.992   6.656   3.421 -0.6774 -1.6776 -0.4254
 8199TIP3   OH246011   4.980   3.209  14.224 -0.6787 -0.2265 -0.6205
 8199TIP3    H146012   4.946   3.121  14.207 -0.9342 -0.2587  0.0242
 8199TIP3    H246013   5.063   3.194  14.270 -1.3748 -0.1438  0.7198
 8200TIP3   OH246014   1.595   0.039  14.295 -0.0256  0.1446 -0.4727
 8200TIP3    H146015   1.528   0.104  14.316 -1.6299 -1.8626  0.9931
 8200TIP3    H246016   1.601   0.040  14.200 -2.1748  0.3734 -0.6501
 8201TIP3   OH246017   0.905   5.779  10.291 -0.4776  0.0270 -0.7535
 8201TIP3    H146018   0.896   5.720  10.216 -1.1707  0.1325 -0.7647
 8201TIP3    H246019   0.823   5.769  10.339 -1.0753  1.7528 -1.3290
 8202TIP3   OH246020   6.516   6.709  13.386 -0.4233  0.1573  0.2942
 8202TIP3    H146021   6.473   6.746  13.309 -1.0896  0.2043  0.6801
 8202TIP3    H246022   6.446   6.704  13.452 -0.0473 -0.6149  0.6439
 8203TIP3   OH246023   1.497   1.545   6.685  0.0302  0.1634  0.2837
 8203TIP3    H146024   1.502   1.526   6.778 -0.6557 -0.5022  0.1890
 8203TIP3    H246025   1.537   1.469   6.642 -0.2189  0.1870  0.0099
 8204TIP3   OH246026   1.740   4.606  15.998  0.2730  0.4835  0.0426
 8204TIP3    H146027   1.795   4.532  16.024 -0.2760  0.0522 -0.0142
 8204TIP3    H246028   1.710   4.584  15.910  1.4785  1.5685 -0.6675
 8205TIP3   OH246029   1.955   3.097   2.414  0.0649  0.1581  0.0739
 8205TIP3    H146030   1.920   3.020   2.370 -0.9854  0.6275  0.0761
 8205TIP3    H246031   1.892   3.167   2.396 -0.3471  0.4064  2.1857
 8206TIP3   OH246032   0.999   3.255  16.753 -0.8391  0.1852 -0.6858
 8206TIP3    H146033   1.000   3.237  16.659  1.8057  0.5750 -0.8057
 8206TIP3    H246034   1.011   3.169  16.793  1.6003  0.3644 -0.8969
 8207TIP3   OH246035   3.892   2.342   5.678 -0.0396  0.3702  0.4987
 8207TIP3    H146036   3.921   2.309   5.763  0.9354 -2.2379 -0.7636
 8207TIP3    H246037   3.804   2.307   5.668  0.8702 -1.7504 -0.6944
 8208TIP3   OH246038   0.458   3.743   4.015 -0.0622 -0.5346  0.6353
 8208TIP3    H146039   0.516   3.819   4.018 -0.4254 -0.2741  1.2355
 8208TIP3    H246040   0.404   3.758   3.938  1.2379 -1.2172 -0.4546
 8209TIP3   OH246041   0.665   6.731   6.154 -0.2460  0.5189  0.4193
 8209TIP3    H146042   0.628   6.642   6.159 -2.5101  0.9029 -4.2000
 8209TIP3    H246043   0.615   6.781   6.218 -2.4852 -0.6168 -0.3293
 8210TIP3   OH246044   3.138   4.926   0.608  0.2138 -0.1186 -0.4430
 8210TIP3    H146045   3.172   4.840   0.632 -0.5863 -0.5847 -0.9166
 8210TIP3    H246046   3.046   4.909   0.585 -0.0615  0.9320 -0.1425
 8211TIP3   OH246047   4.549   2.664  14.009  0.0579 -0.2229 -0.7241
 8211TIP3    H146048   4.492   2.616  14.070  0.5981  1.7361  1.4592
 8211TIP3    H246049   4.632   2.616  14.011 -1.0165 -2.4146 -3.0306
 8212TIP3   OH246050   5.159   3.358   0.231  0.0083  0.1164  1.0906
 8212TIP3    H146051   5.189   3.436   0.277  0.1762 -0.1568  1.4464
 8212TIP3    H246052   5.227   3.342   0.165  0.6761 -0.5032  1.8955
 8213TIP3   OH246053   6.341   0.961   1.552  0.1204 -0.0017  0.0850
 8213TIP3    H146054   6.407   1.029   1.567  0.5883 -0.1691 -1.1213
 8213TIP3    H246055   6.371   0.887   1.605  0.8725 -0.0484 -0.3817
 8214TIP3   OH246056   2.194   0.938   2.430  0.2423 -0.2760  0.4656
 8214TIP3    H146057   2.261   0.875   2.407  0.4618  0.1290 -0.0160
 8214TIP3    H246058   2.139   0.946   2.352 -0.2442 -0.4466  0.7822
 8215TIP3   OH246059   1.831   5.018   4.806 -0.3345  0.1173  0.0104
 8215TIP3    H146060   1.862   5.036   4.717  0.9011 -1.9861 -0.0411
 8215TIP3    H246061   1.815   5.105   4.844  2.0107  1.1846 -1.2656
 8216TIP3   OH246062   3.585   2.053   5.137  0.3424 -0.9511 -0.1255
 8216TIP3    H146063   3.635   2.131   5.161 -2.4476  0.8684  0.2233
 8216TIP3    H246064   3.587   1.998   5.216  3.5344 -2.0705 -0.8277
 8217TIP3   OH246065   3.677   0.894  17.100  0.0359 -0.0178  0.1269
 8217TIP3    H146066   3.641   0.949  17.170 -0.2767  0.0994 -0.1224
 8217TIP3    H246067   3.645   0.935  17.019 -0.2180 -0.5765 -0.0612
 8218TIP3   OH246068   1.538   6.237   4.272  0.0320 -0.5107 -0.1405
 8218TIP3    H146069   1.489   6.159   4.246 -0.4510 -0.8978  1.8169
 8218TIP3    H246070   1.470   6.301   4.296  0.4360  0.3504 -1.2199
 8219TIP3   OH246071   4.391   3.548   6.283 -0.7552  0.3572  0.3106
 8219TIP3    H146072   4.338   3.481   6.326 -0.1649 -0.6385 -0.4679
 8219TIP3    H246073   4.327   3.614   6.254 -1.4957 -0.4818 -0.0061
 8220TIP3   OH246074   1.109   2.783   4.236  0.4357  0.5988  0.3993
 8220TIP3    H146075   1.142   2.706   4.190 -1.8122  0.0132 -0.3514
 8220TIP3    H246076   1.139   2.772   4.327 -1.1990 -2.0781  0.7101
 8221TIP3   OH246077   4.770   0.559   6.001  0.8076  0.2829 -0.0622
 8221TIP3    H146078   4.734   0.597   6.081  2.4113  1.2419  0.2563
 8221TIP3    H246079   4.806   0.634   5.953  0.0126 -0.2918 -1.6444
 8222TIP3   OH246080   2.424   1.035  11.660 -0.1628  0.4536  0.1462
 8222TIP3    H146081   2.330   1.048  11.663 -0.6084 -1.2141 -2.8713
 8222TIP3    H246082   2.436   0.942  11.680  0.8696  0.6781  0.6457
 8223TIP3   OH246083   3.211   3.357  10.526  0.3935 -0.5510 -0.2413
 8223TIP3    H146084   3.138   3.335  10.467  0.0625  2.5503 -1.1837
 8223TIP3    H246085   3.268   3.280  10.523 -0.3445 -1.1242 -3.4840
 8224TIP3   OH246086   5.448   2.235   3.431 -0.2151 -0.0964  0.4999
 8224TIP3    H146087   5.481   2.325   3.428 -0.3486 -0.0528  0.3485
 8224TIP3    H246088   5.492   2.190   3.358  0.0609 -0.2277  0.7406
 8225TIP3   OH246089   1.961   2.723  15.455  0.8659  0.2049 -0.1763
 8225TIP3    H146090   2.025   2.713  15.384 -1.9926  1.3612 -3.1685
 8225TIP3    H246091   1.934   2.633  15.474 -0.6333 -0.0887 -3.0340
 8226TIP3   OH246092   5.290   6.131   2.582 -0.2369  0.6890 -0.3897
 8226TIP3    H146093   5.259   6.194   2.518  1.7679  2.8291  0.5961
 8226TIP3    H246094   5.341   6.068   2.531 -0.4230  1.1418 -1.1461
 8227TIP3   OH246095   1.395   5.289   5.991  0.2217  0.2766  0.0809
 8227TIP3    H146096   1.409   5.343   5.913  0.2858 -0.3346 -0.3303
 8227TIP3    H246097   1.300   5.287   6.001  0.2296  0.6883  0.2535
 8228TIP3   OH246098   5.420   3.797   4.914 -0.1136  0.3555  0.1806
 8228TIP3    H146099   5.450   3.872   4.863  0.6666  0.3100  0.5671
 8228TIP3    H246100   5.421   3.827   5.005 -0.5094  0.1113  0.2678
 8229TIP3   OH246101   4.890   1.028  11.524 -0.0042  0.2812 -0.2959
 8229TIP3    H146102   4.872   0.970  11.599 -0.4282  0.8115  0.0265
 8229TIP3    H246103   4.808   1.028  11.475  0.8824 -1.6697 -1.9146
 8230TIP3   OH246104   5.337   0.381  14.651 -0.3777  0.1861  0.4336
 8230TIP3    H146105   5.359   0.470  14.623  1.8375 -0.3645  0.1954
 8230TIP3    H246106   5.395   0.364  14.725 -1.1002 -0.9015  0.7855
 8231TIP3   OH246107   0.887   5.541  14.135 -0.5363 -0.3374 -0.0276
 8231TIP3    H146108   0.937   5.475  14.184 -0.5686 -0.6472 -0.4092
 8231TIP3    H246109   0.845   5.492  14.064 -0.9504  0.0131 -0.0287
 8232TIP3   OH246110   2.227   4.369  12.970  0.2947 -0.4582  0.4906
 8232TIP3    H146111   2.141   4.370  12.927  0.5184 -0.7072  0.0362
 8232TIP3    H246112   2.288   4.398  12.902  0.5112  0.2060  0.9524
 8233TIP3   OH246113   0.663   4.598   1.248 -0.4154  0.3695 -0.6342
 8233TIP3    H146114   0.641   4.678   1.200 -2.4406  0.0336 -0.3607
 8233TIP3    H246115   0.735   4.623   1.305 -0.7965  1.9328 -0.7890
 8234TIP3   OH246116   6.695   2.695  16.200 -0.2877  0.6479  0.4054
 8234TIP3    H146117   6.765   2.726  16.142 -1.4305  2.1842 -0.2556
 8234TIP3    H246118   6.714   2.603  16.214 -0.4688 -0.0971 -3.2581
 8235TIP3   OH246119   3.673   6.452   3.465 -0.0696 -0.4759 -0.2190
 8235TIP3    H146120   3.750   6.409   3.501 -0.5972 -0.8602  0.4623
 8235TIP3    H246121   3.609   6.453   3.537 -0.6095  0.0687 -0.6892
 8236TIP3   OH246122   2.564   2.360   2.555 -0.7662 -0.7824 -0.0096
 8236TIP3    H146123   2.567   2.276   2.601  1.0944 -0.7105  0.0981
 8236TIP3    H246124   2.614   2.419   2.611  0.5051 -0.3781 -1.4971
 8237TIP3   OH246125   2.607   0.175   1.394  0.2969  0.4493  0.4548
 8237TIP3    H146126   2.516   0.201   1.405  0.0652 -0.4220  0.7269
 8237TIP3    H246127   2.628   0.125   1.474  0.3972 -1.0178 -0.4444
 8238TIP3   OH246128   1.510   3.407  16.271  0.1127  0.0625 -0.4147
 8238TIP3    H146129   1.433   3.458  16.244 -0.8743 -0.8933  0.4698
 8238TIP3    H246130   1.570   3.472  16.307 -1.4511  0.5929  1.4359
 8239TIP3   OH246131   0.447   6.048  12.613 -0.3643  0.5484  0.2791
 8239TIP3    H146132   0.492   6.132  12.609  0.0232  0.3079 -0.5638
 8239TIP3    H246133   0.502   5.994  12.669  0.0755  0.4491 -0.2449
 8240TIP3   OH246134   1.422   4.572  12.591  0.4389 -0.1201  0.1640
 8240TIP3    H146135   1.399   4.518  12.666 -0.3900  0.8496  0.6292
 8240TIP3    H246136   1.390   4.523  12.515  1.0898 -0.9993  0.4391
 8241TIP3   OH246137   0.569   1.507  14.450  0.1533 -0.2859 -0.1469
 8241TIP3    H146138   0.476   1.530  14.445  0.0518 -0.8568 -1.1759
 8241TIP3    H246139   0.615   1.588  14.429 -0.1789 -0.6318 -2.4212
 8242TIP3   OH246140   4.782   3.981   3.548 -0.2039  0.2504  0.1579
 8242TIP3    H146141   4.853   3.921   3.524 -1.2961 -0.3569 -1.8590
 8242TIP3    H246142   4.748   3.947   3.630  2.7787  1.4994  2.0961
 8243TIP3   OH246143   2.128   5.145   2.682  0.1633  0.7874  0.3094
 8243TIP3    H146144   2.085   5.147   2.597 -0.7532  1.4542  0.7773
 8243TIP3    H246145   2.219   5.121   2.662  0.0592  1.3105 -0.8980
 8244TIP3   OH246146   4.101   2.802   6.618 -0.4686 -0.0642 -0.8210
 8244TIP3    H146147   4.081   2.751   6.697 -0.7905  0.4692 -0.5547
 8244TIP3    H246148   4.102   2.737   6.548 -2.4402 -0.2486 -0.7435
 8245TIP3   OH246149   0.135   5.339   0.826 -0.1095  0.1272 -0.1011
 8245TIP3    H146150   0.154   5.339   0.732 -0.4879  0.2535 -0.1836
 8245TIP3    H246151   0.039   5.338   0.830 -0.0907 -0.4747  0.2903
 8246TIP3   OH246152   1.586   1.593  12.815 -0.3952  0.0290  0.7572
 8246TIP3    H146153   1.613   1.617  12.727 -0.7266  0.4623  0.7753
 8246TIP3    H246154   1.564   1.675  12.858 -4.4729 -0.3667 -0.1206
 8247TIP3   OH246155   2.586   1.528  13.283 -0.2284 -0.0892  0.0904
 8247TIP3    H146156   2.590   1.519  13.187  1.6913  0.2286  0.0937
 8247TIP3    H246157   2.556   1.443  13.314 -1.5463  0.0085 -0.7995
 8248TIP3   OH246158   3.753   3.302  12.155 -0.0904 -0.0398 -0.1053
 8248TIP3    H146159   3.717   3.340  12.074 -2.3469  0.6336  1.1303
 8248TIP3    H246160   3.811   3.232  12.125 -1.5237 -0.3805 -2.3099
 8249TIP3   OH246161   0.599   2.019   2.807  0.2272 -0.0612  0.4207
 8249TIP3    H146162   0.536   2.068   2.755 -0.1422 -1.3999 -0.4342
 8249TIP3    H246163   0.669   2.081   2.826  0.0007  0.6613 -1.0267
 8250TIP3   OH246164   2.298   0.393   2.878  0.1833  0.1015  0.7052
 8250TIP3    H146165   2.366   0.414   2.814 -1.0696 -0.4236 -0.8588
 8250TIP3    H246166   2.282   0.475   2.924  1.5848  0.3266  0.8407
 8251TIP3   OH246167   2.727   6.416  14.932 -0.5873 -0.4267  0.4233
 8251TIP3    H146168   2.661   6.485  14.938  0.8039  0.8511  1.8533
 8251TIP3    H246169   2.696   6.348  14.992 -1.4799 -0.6624 -0.2756
 8252TIP3   OH246170   3.717   0.775   5.332 -0.2269  0.2916  0.6535
 8252TIP3    H146171   3.680   0.858   5.360  1.6248  0.9607  1.3196
 8252TIP3    H246172   3.782   0.754   5.399  1.7200  0.0307 -1.1853
 8253TIP3   OH246173   0.435   2.234   1.395  0.2831  0.1116  0.5672
 8253TIP3    H146174   0.490   2.229   1.317 -1.2340  0.5930 -0.5664
 8253TIP3    H246175   0.473   2.170   1.455  1.0138 -0.8365 -0.8568
 8254TIP3   OH246176   5.757   0.029   0.990  0.4755 -0.0535  0.3367
 8254TIP3    H146177   5.778  -0.064   0.994  1.7254  0.1815 -0.2678
 8254TIP3    H246178   5.840   0.074   1.009  0.2575  0.9329 -0.9017
 8255TIP3   OH246179   3.903   0.973  12.196  0.1231  0.5514 -0.5302
 8255TIP3    H146180   3.821   1.004  12.159 -0.4137 -0.3949 -0.1503
 8255TIP3    H246181   3.930   1.043  12.255 -0.9468  0.4282  0.1291
 8256TIP3   OH246182   1.483   2.218  16.424 -0.0510  0.1935  0.1334
 8256TIP3    H146183   1.515   2.196  16.512  0.1586 -2.0299 -0.4447
 8256TIP3    H246184   1.557   2.262  16.382  0.5815 -0.5765  0.4123
 8257TIP3   OH246185   2.615   0.926  11.973  0.0573  0.1110 -0.0598
 8257TIP3    H146186   2.587   0.867  11.903 -0.8663  0.0352  0.3572
 8257TIP3    H246187   2.563   1.005  11.959  0.3873  0.3629  0.1242
 8258TIP3   OH246188   5.561   4.093  15.359 -0.7960 -0.2944 -0.0248
 8258TIP3    H146189   5.589   4.010  15.397  0.5120  0.0886 -0.1040
 8258TIP3    H246190   5.573   4.157  15.429  0.5487  0.2240 -0.6967
 8259TIP3   OH246191   2.267   0.993   1.224  0.0074 -0.0254 -0.1476
 8259TIP3    H146192   2.357   1.021   1.238 -0.0761 -0.1284  0.5882
 8259TIP3    H246193   2.251   0.926   1.290 -1.0137  0.8917  0.5657
 8260TIP3   OH246194   4.822   3.249  15.280  0.6488 -0.5346 -0.2714
 8260TIP3    H146195   4.738   3.205  15.272 -0.4964  1.4947 -0.2503
 8260TIP3    H246196   4.877   3.208  15.213 -0.6625 -1.2728 -0.9400
 8261TIP3   OH246197   1.983   2.151  15.065  0.8759  0.8922  0.0325
 8261TIP3    H146198   1.987   2.165  14.970  1.8679  0.7276  0.0419
 8261TIP3    H246199   1.895   2.182  15.090  0.2600  0.1037 -1.0654
 8262TIP3   OH246200   6.324   2.339  13.622  0.3517 -0.2669  0.7332
 8262TIP3    H146201   6.300   2.262  13.569 -1.0987  0.3512  0.4576
 8262TIP3    H246202   6.419   2.329  13.636  0.3915 -1.5380 -0.2104
 8263TIP3   OH246203   0.916   2.281  11.060  0.4959 -0.7415 -0.0098
 8263TIP3    H146204   0.970   2.306  10.984  0.8983 -0.8572  0.2343
 8263TIP3    H246205   0.876   2.363  11.088  0.7099 -0.6135 -0.0674
 8264TIP3   OH246206   2.639   6.625  16.694  0.5198 -0.2604  0.0604
 8264TIP3    H146207   2.703   6.616  16.623  0.3112 -0.9258 -0.0453
 8264TIP3    H246208   2.653   6.714  16.726  1.1322 -0.2090 -0.3172
 8265TIP3   OH246209   0.049   4.404   3.136 -0.5635 -0.2275 -0.3343
 8265TIP3    H146210  -0.023   4.366   3.085 -1.5879  0.7005  0.3761
 8265TIP3    H246211   0.047   4.357   3.220 -0.8362  0.3190 -0.0308
 8266TIP3   OH246212   3.858   2.191   2.090 -0.6502 -0.3778  0.0159
 8266TIP3    H146213   3.941   2.201   2.044 -0.0858  0.7158  1.1954
 8266TIP3    H246214   3.830   2.281   2.108 -0.6933 -0.7291  1.9780
 8267TIP3   OH246215   4.666   3.697   0.524  0.0787 -0.5325 -0.3148
 8267TIP3    H146216   4.706   3.753   0.457 -0.4459 -0.2029 -0.3570
 8267TIP3    H246217   4.572   3.707   0.510 -0.0607  0.3618  1.1429
 8268TIP3   OH246218   0.494   5.395   2.849 -0.0097 -0.1199 -0.3216
 8268TIP3    H146219   0.453   5.462   2.794  0.5756 -0.3551 -1.0796
 8268TIP3    H246220   0.575   5.374   2.802  0.3691 -0.5301  0.5069
 8269TIP3   OH246221   5.531   3.431  12.929 -0.5285  0.0457  0.1574
 8269TIP3    H146222   5.626   3.429  12.917 -0.5026  0.7249  0.1966
 8269TIP3    H246223   5.496   3.422  12.840 -0.3905  1.5982 -0.0744
 8270TIP3   OH246224   6.338   5.561  13.002  0.3119 -0.4447  0.3534
 8270TIP3    H146225   6.392   5.524  13.071 -0.3505 -0.0323  1.1061
 8270TIP3    H246226   6.249   5.561  13.037 -0.1529 -0.8597 -0.7627
 8271TIP3   OH246227   3.037   4.401  12.506 -0.0896  0.7078 -0.1380
 8271TIP3    H146228   2.997   4.467  12.562  3.6029  0.9041  2.6352
 8271TIP3    H246229   3.130   4.423  12.505  0.7377 -2.2190 -2.3806
 8272TIP3   OH246230   4.656   3.392  11.989  0.1628 -0.0041 -0.1092
 8272TIP3    H146231   4.602   3.462  12.026  0.2501  0.2607 -0.4745
 8272TIP3    H246232   4.697   3.351  12.065  1.3600  1.3690  0.0234
 8273TIP3   OH246233   2.885   4.744  11.630 -0.5309 -0.2003  0.0664
 8273TIP3    H146234   2.864   4.651  11.618 -0.2378 -0.3894  0.9466
 8273TIP3    H246235   2.881   4.781  11.542  2.9380 -1.7900 -0.9136
 8274TIP3   OH246236   2.158   1.404  17.065 -1.0539 -0.6304  0.4918
 8274TIP3    H146237   2.230   1.463  17.043 -1.0216 -0.9635 -0.3431
 8274TIP3    H246238   2.107   1.452  17.130 -1.6891  0.8623 -1.0145
 8275TIP3   OH246239   6.234   5.069   2.417  0.0067 -0.6949 -0.0493
 8275TIP3    H146240   6.147   5.057   2.379 -1.5083  3.6278  1.4862
 8275TIP3    H246241   6.290   5.094   2.343 -0.8256 -0.5231 -0.6307
 8276TIP3   OH246242   3.089   3.077  15.645 -0.0332  0.6559 -0.2256
 8276TIP3    H146243   3.134   3.134  15.582 -0.9030 -0.3435 -1.8480
 8276TIP3    H246244   3.131   2.991  15.633 -1.4495  0.0090 -0.8682
 8277TIP3   OH246245   4.356   4.526   1.837 -0.1475 -0.0583  0.0487
 8277TIP3    H146246   4.450   4.530   1.819 -0.0168  2.7732  0.8109
 8277TIP3    H246247   4.350   4.501   1.929 -0.2939 -2.2033 -0.4894
 8278TIP3   OH246248   2.734   1.807  11.307  0.1857  0.2025 -0.0104
 8278TIP3    H146249   2.750   1.719  11.273  2.3348  0.2952  0.6357
 8278TIP3    H246250   2.714   1.794  11.400 -2.5101  0.2170 -0.4996
 8279TIP3   OH246251   5.507   0.466  12.160  0.1766  0.2548  0.1197
 8279TIP3    H146252   5.482   0.558  12.172  0.5084  0.5384 -1.1386
 8279TIP3    H246253   5.424   0.418  12.164 -0.1861  0.7924 -0.6374
 8280TIP3   OH246254   4.419   2.638  15.481  0.7957  0.1522 -0.2886
 8280TIP3    H146255   4.366   2.696  15.425 -2.5504 -1.6049  0.7852
 8280TIP3    H246256   4.406   2.672  15.569  0.9448 -0.7033  0.0693
 8281TIP3   OH246257   4.715   3.857  15.730 -0.3585 -0.5742  0.6663
 8281TIP3    H146258   4.743   3.827  15.644 -1.2153 -0.1639  0.2260
 8281TIP3    H246259   4.786   3.832  15.789  0.6821  0.0017 -0.3077
 8282TIP3   OH246260   5.447   2.481   5.222  0.1618 -0.1258  0.1264
 8282TIP3    H146261   5.511   2.549   5.201 -0.9211  0.8748 -0.1093
 8282TIP3    H246262   5.470   2.407   5.168  1.5623 -0.0632  0.6062
 8283TIP3   OH246263   4.590   0.752  12.803  0.4698  0.4125  0.1975
 8283TIP3    H146264   4.680   0.776  12.779  0.3572  0.7201  0.0805
 8283TIP3    H246265   4.545   0.836  12.812 -0.0434  0.2314 -0.6413
 8284TIP3   OH246266   0.925   2.453  13.417 -0.1457 -0.1037 -0.3756
 8284TIP3    H146267   0.924   2.512  13.341  0.3464  1.3155  0.6865
 8284TIP3    H246268   0.940   2.510  13.492  0.4651 -1.6014  0.6943
 8285TIP3   OH246269   0.780   4.148  14.305  0.1882 -0.1043  0.4856
 8285TIP3    H146270   0.786   4.243  14.319  0.2877  0.2805 -1.7195
 8285TIP3    H246271   0.871   4.118  14.306  0.1302 -0.2798  1.6451
 8286TIP3   OH246272   6.423   1.079   4.998  0.6723 -0.0213  0.0359
 8286TIP3    H146273   6.456   1.090   5.087 -1.0006 -1.4229  0.8973
 8286TIP3    H246274   6.334   1.114   5.001 -0.4191 -2.5542 -0.2919
 8287TIP3   OH246275   4.040   5.679   4.786 -0.2875 -0.2773  0.8592
 8287TIP3    H146276   4.130   5.683   4.752  0.8418 -0.0793  3.5982
 8287TIP3    H246277   4.012   5.589   4.771 -0.0871 -0.0509 -1.0301
 8288TIP3   OH246278   6.390   2.100   4.217  0.1199  0.6899 -0.7570
 8288TIP3    H146279   6.404   2.113   4.311  0.4847  1.8663 -0.9610
 8288TIP3    H246280   6.362   2.009   4.210 -0.2233  0.6708  0.5260
 8289TIP3   OH246281   0.473   4.430  13.401 -0.2661 -0.5086  0.1639
 8289TIP3    H146282   0.444   4.387  13.320  1.3694  0.1963 -0.8456
 8289TIP3    H246283   0.396   4.477  13.433 -0.4403  0.8745 -2.1116
 8290TIP3   OH246284   3.535   6.648   3.735 -0.3097 -0.2210  0.5277
 8290TIP3    H146285   3.441   6.631   3.741 -0.8918  2.6395  0.9582
 8290TIP3    H246286   3.552   6.713   3.803  2.1711 -1.1982  0.9767
 8291TIP3   OH246287   5.351   0.639   4.395 -0.3993  0.2344 -0.1662
 8291TIP3    H146288   5.397   0.636   4.311  1.9195  0.9109  0.9968
 8291TIP3    H246289   5.332   0.547   4.415 -0.4232  0.0181 -1.1183
 8292TIP3   OH246290   6.460   2.697   5.541 -0.0890 -0.4883 -0.1275
 8292TIP3    H146291   6.441   2.605   5.559  2.1292 -1.1931 -1.0521
 8292TIP3    H246292   6.505   2.729   5.620  0.6183 -0.6885 -0.4428
 8293TIP3   OH246293   2.749   4.314  12.757 -0.1524 -0.2816  0.1367
 8293TIP3    H146294   2.843   4.315  12.774 -0.0874 -0.4712 -0.2004
 8293TIP3    H246295   2.713   4.257  12.825 -0.1418  0.5341  0.8376
 8294TIP3   OH246296   4.717   4.693  12.793 -0.4254  0.1900  0.9100
 8294TIP3    H146297   4.717   4.752  12.869 -0.0907  1.2055  0.1396
 8294TIP3    H246298   4.677   4.612  12.826  0.2705  0.3884  2.3306
 8295TIP3   OH246299   3.790   5.165   4.027 -0.2797 -0.3258  0.4907
 8295TIP3    H146300   3.723   5.107   3.991  0.6063 -2.6855  2.3276
 8295TIP3    H246301   3.866   5.150   3.972 -0.7174  0.9751 -0.4956
 8296TIP3   OH246302   0.020   1.566  13.183 -0.2215  0.1048  0.0024
 8296TIP3    H146303  -0.016   1.551  13.271 -0.6343  2.4533  0.2835
 8296TIP3    H246304   0.106   1.523  13.185  0.3803  1.2735  2.0450
 8297TIP3   OH246305   6.182   6.691  11.752 -0.1895 -0.0503  0.1511
 8297TIP3    H146306   6.164   6.669  11.844  0.4932 -0.9760  0.0798
 8297TIP3    H246307   6.123   6.634  11.702  0.4149 -0.5599 -0.0002
 8298TIP3   OH246308   4.039   0.343  11.895 -0.0326 -0.3678 -0.0501
 8298TIP3    H146309   3.947   0.325  11.914  0.2547  0.3302  2.4088
 8298TIP3    H246310   4.043   0.349  11.800 -1.9905 -2.9936 -0.4166
 8299TIP3   OH246311   0.784   2.660   0.413 -0.2196  0.0441 -0.0473
 8299TIP3    H146312   0.847   2.667   0.485 -0.2956 -1.2091  0.1585
 8299TIP3    H246313   0.797   2.741   0.362  0.3361  0.6077  0.9596
 8300TIP3   OH246314   6.686   0.953  11.395 -0.1312 -0.2787 -0.5467
 8300TIP3    H146315   6.610   0.993  11.436 -0.7558 -2.9937  1.1494
 8300TIP3    H246316   6.656   0.930  11.307 -0.2164  1.4729 -1.0178
 8301TIP3   OH246317   5.908   4.416  12.650 -0.2944 -0.5410 -0.0374
 8301TIP3    H146318   5.813   4.422  12.662 -0.5798 -0.9913 -1.7426
 8301TIP3    H246319   5.927   4.323  12.656  0.0464 -0.4533  0.2827
 8302TIP3   OH246320   4.612   3.256   4.866 -0.9193  0.3402  0.4703
 8302TIP3    H146321   4.608   3.171   4.823 -0.1375  0.5333  0.0008
 8302TIP3    H246322   4.537   3.304   4.831 -2.2708 -0.6520  1.8681
 8303TIP3   OH246323   4.834   1.839  11.065 -0.2228 -0.6197  0.4642
 8303TIP3    H146324   4.808   1.755  11.104 -0.6006 -0.8709 -0.2926
 8303TIP3    H246325   4.755   1.892  11.067  0.0874 -0.1765  1.1890
 8304TIP3   OH246326   3.881   2.228   6.533 -0.3777  0.1680  0.1825
 8304TIP3    H146327   3.840   2.303   6.577 -1.7953 -0.4567 -0.0184
 8304TIP3    H246328   3.898   2.165   6.604  0.9034  0.6874  0.3664
 8305TIP3   OH246329   5.237   4.807  15.533 -0.3697  0.7273 -0.5923
 8305TIP3    H146330   5.258   4.838  15.621 -0.2442  0.7665 -0.6355
 8305TIP3    H246331   5.183   4.876  15.495  0.6793  1.3482 -1.0223
 8306TIP3   OH246332   0.956   3.238   0.525  0.3745  0.5072  0.5594
 8306TIP3    H146333   0.981   3.328   0.544  1.2102  0.2790  0.5691
 8306TIP3    H246334   0.862   3.242   0.510  0.2022  1.1981  1.6879
 8307TIP3   OH246335   4.104   2.267   1.688 -0.3867  0.4422 -0.2851
 8307TIP3    H146336   4.053   2.227   1.619 -0.8458 -0.0378  0.3233
 8307TIP3    H246337   4.074   2.358   1.691 -0.2989  0.4902 -0.7651
 8308TIP3   OH246338   2.107   2.592  13.078  0.1072 -0.3246  0.3546
 8308TIP3    H146339   2.037   2.529  13.060  0.1160 -0.3756  0.5041
 8308TIP3    H246340   2.118   2.590  13.173 -0.5281  0.5842  0.4640
 8309TIP3   OH246341   2.188   4.847   1.544  0.2942  0.0501 -0.1885
 8309TIP3    H146342   2.185   4.906   1.620 -0.2132 -1.8404  1.3523
 8309TIP3    H246343   2.227   4.767   1.578 -0.2668 -0.9717 -1.8643
 8310TIP3   OH246344   1.095   1.303   4.965  0.5002 -0.1890  0.4871
 8310TIP3    H146345   1.080   1.243   4.892 -0.2408  0.1775  0.3304
 8310TIP3    H246346   1.080   1.249   5.043  0.3371 -0.3341  0.3565
 8311TIP3   OH246347   2.630   6.656  16.993  0.1537  0.3338 -0.0739
 8311TIP3    H146348   2.634   6.657  17.089  0.7648  0.1995 -0.0953
 8311TIP3    H246349   2.721   6.669  16.965  0.2752 -1.4226 -0.6176
 8312TIP3   OH246350   0.704   4.592   0.501  0.5367 -0.6032 -0.1036
 8312TIP3    H146351   0.698   4.672   0.554  1.1800 -0.7824  0.2578
 8312TIP3    H246352   0.613   4.562   0.493  0.2235  0.4863 -0.7611
 8313TIP3   OH246353   0.689   3.461   2.762  1.0243  0.2603 -0.0329
 8313TIP3    H146354   0.659   3.394   2.700  1.4477 -0.0809  0.1256
 8313TIP3    H246355   0.684   3.418   2.847  0.8954  0.5714  0.1140
 8314TIP3   OH246356   3.630   0.821   4.071 -0.4483  0.1884 -0.0502
 8314TIP3    H146357   3.622   0.810   4.166 -2.5436  2.4857  0.1530
 8314TIP3    H246358   3.610   0.735   4.035 -0.3704 -0.5405  1.5435
 8315TIP3   OH246359   0.992   3.639   5.811 -0.3377 -0.4682  0.2797
 8315TIP3    H146360   1.072   3.689   5.794 -0.8624 -0.0722 -1.2246
 8315TIP3    H246361   0.984   3.637   5.906  0.7182  0.6920  0.4164
 8316TIP3   OH246362   5.215   2.480   3.696 -0.4761 -0.2776  0.0540
 8316TIP3    H146363   5.143   2.537   3.720  0.5498  1.1097 -0.0526
 8316TIP3    H246364   5.252   2.519   3.617 -0.2271 -1.5476 -0.4932
 8317TIP3   OH246365   4.544   6.469  13.330  0.0447  0.6930 -0.0565
 8317TIP3    H146366   4.542   6.449  13.424 -2.2771  2.5294  0.3812
 8317TIP3    H246367   4.633   6.501  13.315  0.9707 -1.1169  1.1119
 8318TIP3   OH246368   2.227   2.974   5.471 -0.1993 -0.1222 -0.0150
 8318TIP3    H146369   2.267   2.909   5.529 -0.6324 -1.3120 -1.0038
 8318TIP3    H246370   2.211   3.050   5.528  3.3101  0.4355  0.4914
 8319TIP3   OH246371   0.814   1.022   0.840  0.3577  0.6814  0.3208
 8319TIP3    H146372   0.730   0.999   0.801  0.7512  0.3042 -0.3180
 8319TIP3    H246373   0.879   1.003   0.772  1.1131 -0.4937  1.3292
 8320TIP3   OH246374   1.349   5.651  13.145 -0.4672 -0.5734 -0.1119
 8320TIP3    H146375   1.306   5.566  13.156  0.9814 -1.2507  0.6707
 8320TIP3    H246376   1.387   5.647  13.057  2.7700 -2.3618  1.1856
 8321TIP3   OH246377   0.074   3.803  16.140  0.4788  0.1976  0.2041
 8321TIP3    H146378   0.034   3.720  16.167 -1.7421  1.2382  0.3007
 8321TIP3    H246379   0.152   3.811  16.196 -1.0738 -0.2800  2.5620
 8322TIP3   OH246380   5.216   6.785   2.553  0.1218 -0.1712 -0.4409
 8322TIP3    H146381   5.212   6.690   2.547  0.9542 -0.4085  1.7824
 8322TIP3    H246382   5.284   6.810   2.490 -0.1011 -1.0227 -1.0451
 8323TIP3   OH246383   2.311   2.633   3.375  0.4510 -0.0752 -0.2166
 8323TIP3    H146384   2.363   2.570   3.326  0.9734  0.8747 -0.8984
 8323TIP3    H246385   2.351   2.635   3.462 -0.0291 -1.2214  0.0421
 8324TIP3   OH246386   1.859   6.630   4.088 -0.2441  0.2691  0.0999
 8324TIP3    H146387   1.822   6.717   4.075  1.8012  1.2864  0.6088
 8324TIP3    H246388   1.862   6.619   4.183 -0.0399 -0.1407  0.0483
 8325TIP3   OH246389   4.781   4.361   6.187 -0.3858 -0.4080  0.1487
 8325TIP3    H146390   4.813   4.451   6.197  0.1618 -0.2461 -2.4653
 8325TIP3    H246391   4.857   4.306   6.205 -0.5903 -0.3615  1.2355
 8326TIP3   OH246392   4.281   3.414   0.109 -0.0217 -0.0159 -0.2009
 8326TIP3    H146393   4.223   3.488   0.128  0.3672  0.5313 -1.0451
 8326TIP3    H246394   4.347   3.417   0.178  0.2128  0.6809 -0.4433
 8327TIP3   OH246395   4.358   3.303  15.224  0.2863  0.2538 -0.1572
 8327TIP3    H146396   4.411   3.302  15.303 -0.6918 -0.2629  0.5205
 8327TIP3    H246397   4.406   3.359  15.163 -0.0569  2.5896  1.5900
 8328TIP3   OH246398   2.465   5.142   3.493  0.0420  0.3189  0.7365
 8328TIP3    H146399   2.543   5.197   3.487  0.1859 -0.0289 -0.8208
 8328TIP3    H246400   2.499   5.052   3.488 -0.4672  0.1717 -0.1001
 8329TIP3   OH246401   4.574   1.558  14.405  0.5255 -0.2447 -0.1922
 8329TIP3    H146402   4.621   1.520  14.479  2.0796  0.1050 -0.9528
 8329TIP3    H246403   4.615   1.517  14.328 -0.0887  0.4493 -0.9045
 8330TIP3   OH246404   0.868   6.005  16.316 -0.0326  0.3328 -0.8159
 8330TIP3    H146405   0.800   5.992  16.249 -2.1975  1.0672  1.0979
 8330TIP3    H246406   0.880   5.918  16.355  1.6340 -0.2126 -2.4377
 8331TIP3   OH246407   5.204   3.811   0.797 -1.3163 -0.0858 -0.5724
 8331TIP3    H146408   5.259   3.889   0.804  0.0073 -1.1393  2.6782
 8331TIP3    H246409   5.225   3.774   0.711  2.4740  0.0601  0.1216
 8332TIP3   OH246410   0.458   2.068  14.931 -0.2136 -0.2352 -0.2710
 8332TIP3    H146411   0.373   2.079  14.973 -0.4098 -1.2199 -0.3823
 8332TIP3    H246412   0.510   2.142  14.962 -1.3127  0.7444 -0.7345
 8333TIP3   OH246413   6.504   5.823   2.385  0.1668 -0.1519  0.1635
 8333TIP3    H146414   6.440   5.772   2.433  0.5199  1.4249  2.4776
 8333TIP3    H246415   6.567   5.852   2.451  0.6740  2.1867 -1.2097
 8334TIP3   OH246416   4.842   3.718  10.602  0.4638  0.5348 -0.3941
 8334TIP3    H146417   4.814   3.631  10.630  0.4593  0.7694  0.3376
 8334TIP3    H246418   4.790   3.735  10.523 -0.4684  0.4028  0.1763
 8335TIP3   OH246419   0.858   6.604   1.509  0.3442  0.2523  0.8429
 8335TIP3    H146420   0.788   6.612   1.574 -0.7097  1.4642 -0.3679
 8335TIP3    H246421   0.915   6.679   1.524 -1.0201  1.7309 -0.8076
 8336TIP3   OH246422   0.315   4.224   2.326 -0.3751 -0.4793  0.1464
 8336TIP3    H146423   0.256   4.216   2.401  0.0001 -0.9236  0.4057
 8336TIP3    H246424   0.307   4.140   2.280 -2.7961  0.8011 -1.9992
 8337TIP3   OH246425   5.721   1.996   2.481  0.1557  0.2496 -0.4309
 8337TIP3    H146426   5.641   1.965   2.524  1.0376  0.0948  1.1701
 8337TIP3    H246427   5.691   2.062   2.419 -1.4043 -1.1710 -1.2608
 8338TIP3   OH246428   4.676   3.853   2.336  0.1472  0.1300 -0.3534
 8338TIP3    H146429   4.735   3.925   2.310 -1.8445  1.8640 -0.3228
 8338TIP3    H246430   4.608   3.853   2.268 -0.6321 -0.8373  0.4076
 8339TIP3   OH246431   3.716   6.598  11.369  0.1023 -0.3438 -0.6301
 8339TIP3    H146432   3.626   6.621  11.390  0.7396  0.3731  1.5495
 8339TIP3    H246433   3.755   6.679  11.337  0.8569  0.3151  1.7709
 8340TIP3   OH246434   1.759   0.458   2.575  0.2360 -0.4843 -0.3269
 8340TIP3    H146435   1.670   0.472   2.605 -1.3556 -1.4443 -3.9996
 8340TIP3    H246436   1.755   0.377   2.523  2.7163  0.5388 -2.3492
 8341TIP3   OH246437   3.288   4.979  14.655  0.1945  0.6327  0.4547
 8341TIP3    H146438   3.308   4.925  14.578 -0.8754  1.1454 -0.1987
 8341TIP3    H246439   3.373   5.011  14.684  0.6211  0.4137 -0.5074
 8342TIP3   OH246440   0.213   6.355  15.012  0.1568  0.1357 -0.1104
 8342TIP3    H146441   0.155   6.280  15.016 -0.1007  0.3774  1.0436
 8342TIP3    H246442   0.190   6.400  14.931  0.4765 -1.1399 -0.9358
 8343TIP3   OH246443   1.297   0.940  11.068  0.2132  0.0180 -0.1268
 8343TIP3    H146444   1.348   0.893  11.002 -2.2269  0.0425 -2.1536
 8343TIP3    H246445   1.322   1.031  11.057 -0.3511  0.0511 -1.2073
 8344TIP3   OH246446   5.658   1.349  11.476  0.0662  0.0832 -0.5206
 8344TIP3    H146447   5.680   1.437  11.507  2.4382  0.5652 -3.1217
 8344TIP3    H246448   5.611   1.364  11.394 -1.0931 -1.0917 -0.0843
 8345TIP3   OH246449   3.839   1.112   1.803 -0.0327 -0.2077 -0.1157
 8345TIP3    H146450   3.772   1.180   1.810 -2.4609 -2.4568  0.2181
 8345TIP3    H246451   3.838   1.086   1.711  0.1770 -0.4533 -0.0491
 8346TIP3   OH246452   4.775   4.643  16.741  0.1240 -0.4278  0.2021
 8346TIP3    H146453   4.764   4.557  16.782  2.5296 -1.7285 -1.6744
 8346TIP3    H246454   4.727   4.636  16.658 -0.1734  0.2948  0.3018
 8347TIP3   OH246455   2.232   5.988   5.102  0.4410  0.1171 -0.4702
 8347TIP3    H146456   2.214   6.082   5.112  0.6404  0.0669  0.4055
 8347TIP3    H246457   2.154   5.945   5.138 -0.0412 -0.0630 -1.6696
 8348TIP3   OH246458   2.379   3.964   3.570 -0.4656 -0.1873 -0.3338
 8348TIP3    H146459   2.469   3.932   3.560 -0.2285  0.6122 -0.8487
 8348TIP3    H246460   2.331   3.923   3.498 -0.2741  0.2094 -0.6917
 8349TIP3   OH246461   5.908   0.082  11.267  0.7465 -0.0035 -0.5506
 8349TIP3    H146462   5.813   0.076  11.273  0.8696 -0.8357  1.0207
 8349TIP3    H246463   5.931   0.028  11.192  0.0525 -0.6260 -0.3216
 8350TIP3   OH246464   4.491   5.867   1.104  0.7196  1.1880 -0.4006
 8350TIP3    H146465   4.463   5.915   1.182 -1.4342 -0.9508  0.2347
 8350TIP3    H246466   4.479   5.929   1.032 -1.8550  1.7380  0.4015
 8351TIP3   OH246467   2.699   0.729  13.665  0.2085  0.1495  0.2465
 8351TIP3    H146468   2.691   0.691  13.753  0.8723  0.3971  0.4251
 8351TIP3    H246469   2.792   0.719  13.644  0.4616  1.9377  0.4215
 8352TIP3   OH246470   2.852   4.100  11.522  0.1949 -0.4376  0.2263
 8352TIP3    H146471   2.914   4.117  11.593  0.7962  1.1925 -0.6265
 8352TIP3    H246472   2.768   4.131  11.556  0.2635 -0.6696  0.6148
 8353TIP3   OH246473   1.725   1.386  15.048  0.1638  0.8491  0.2578
 8353TIP3    H146474   1.740   1.477  15.075 -1.7014  1.2624  0.0423
 8353TIP3    H246475   1.677   1.347  15.121  0.6869  0.1156  0.2172
 8354TIP3   OH246476   2.990   1.276  15.877 -0.1844  0.2338  0.2175
 8354TIP3    H146477   3.056   1.271  15.808  0.1338  0.1361  0.5265
 8354TIP3    H246478   3.040   1.276  15.959 -0.5280  1.0409  0.4363
 8355TIP3   OH246479   3.413   2.968   5.752  0.8095  0.5414  0.2006
 8355TIP3    H146480   3.459   3.052   5.751  2.4334 -0.2917  1.4502
 8355TIP3    H246481   3.427   2.934   5.840  1.4119 -1.7038 -0.7124
 8356TIP3   OH246482   0.672   0.127  12.373 -0.5080 -0.2040 -0.1236
 8356TIP3    H146483   0.754   0.083  12.393 -0.6292  0.0201  0.8975
 8356TIP3    H246484   0.614   0.105  12.446 -1.1509  0.1720 -0.5066
 8357TIP3   OH246485   5.251   6.006  15.563 -0.0268 -0.3733  0.4041
 8357TIP3    H146486   5.345   6.002  15.547 -0.5432  0.4454 -4.1415
 8357TIP3    H246487   5.235   6.096  15.591  0.5245 -0.6880  1.8288
 8358TIP3   OH246488   6.659   4.478   3.812 -0.0405 -0.2913 -0.5679
 8358TIP3    H146489   6.603   4.425   3.868  0.9431  0.2020  0.9255
 8358TIP3    H246490   6.747   4.443   3.825  0.7338  1.9343  0.8488
 8359TIP3   OH246491   1.722   4.833   3.485 -0.1634  0.5305  0.1033
 8359TIP3    H146492   1.758   4.864   3.402  1.6392  0.1224  0.6960
 8359TIP3    H246493   1.788   4.856   3.550 -1.8702  1.4930  1.5654
 8360TIP3   OH246494   0.422   4.671  13.060  0.0118  0.7862  0.1276
 8360TIP3    H146495   0.407   4.760  13.028  0.6215  0.2149 -1.9093
 8360TIP3    H246496   0.490   4.636  13.003  1.8895 -0.0679  2.6535
 8361TIP3   OH246497   0.374   6.032   4.460 -0.4900  0.0281  0.4015
 8361TIP3    H146498   0.432   6.107   4.472  0.8287 -0.6664 -1.2502
 8361TIP3    H246499   0.433   5.960   4.439 -1.9237 -0.8184 -0.8398
 8362TIP3   OH246500   5.903   5.763   5.149  0.1193 -0.7710 -0.1816
 8362TIP3    H146501   5.971   5.819   5.184  0.2946 -1.2230  0.2113
 8362TIP3    H246502   5.951   5.689   5.111  0.1084  0.6542 -3.2645
 8363TIP3   OH246503   0.975   4.765  12.263  0.1763  0.0025 -0.6161
 8363TIP3    H146504   1.052   4.707  12.265 -0.7301 -1.2671 -1.2981
 8363TIP3    H246505   0.962   4.785  12.170  1.0218  2.1185 -0.3383
 8364TIP3   OH246506   3.468   2.092   2.085  0.1556 -0.8749 -0.8759
 8364TIP3    H146507   3.455   2.020   2.147 -0.4076 -0.5871 -0.6461
 8364TIP3    H246508   3.552   2.074   2.044  0.4982 -1.1144 -0.0797
 8365TIP3   OH246509   1.681   1.552   4.281 -0.0234  0.0839 -0.0323
 8365TIP3    H146510   1.713   1.570   4.192  0.7822 -1.9077 -0.2062
 8365TIP3    H246511   1.644   1.635   4.311 -2.3627  0.2979 -3.0592
 8366TIP3   OH246512   0.308   4.401   3.439 -0.4579 -0.6042  0.0875
 8366TIP3    H146513   0.217   4.429   3.435 -0.7659 -1.5892  0.2169
 8366TIP3    H246514   0.330   4.399   3.532 -0.5466 -1.1476  0.0976
 8367TIP3   OH246515   3.006   0.753  16.226  0.1067  0.5030 -0.5865
 8367TIP3    H146516   3.022   0.823  16.289 -0.8099 -0.2438  0.5151
 8367TIP3    H246517   3.013   0.795  16.141  2.2254  1.3524 -0.0357
 8368TIP3   OH246518   1.079   5.186  11.335  0.4648 -0.5351 -0.6639
 8368TIP3    H146519   1.140   5.114  11.317  0.2809 -0.6627 -0.7766
 8368TIP3    H246520   1.093   5.207  11.427  1.0677 -0.2060 -0.8206
 8369TIP3   OH246521   0.911   0.550  16.887 -0.0311 -0.4685  0.0338
 8369TIP3    H146522   0.903   0.490  16.813  0.5476 -1.5464  0.8181
 8369TIP3    H246523   0.856   0.513  16.955 -1.0353  0.8380 -0.0243
 8370TIP3   OH246524   5.788   0.840  14.423 -0.8397  0.0281  0.2643
 8370TIP3    H146525   5.778   0.894  14.345  0.7058 -1.3855 -1.0018
 8370TIP3    H246526   5.827   0.899  14.488  0.0268  0.6695 -0.7995
 8371TIP3   OH246527   2.005   5.999  16.970 -0.0246 -0.4218  0.1947
 8371TIP3    H146528   1.980   5.954  16.890  0.8001  1.3243 -1.1244
 8371TIP3    H246529   2.025   5.929  17.033 -0.8510 -1.8224 -1.0578
 8372TIP3   OH246530   2.107   6.215   4.711 -0.0075  0.4473 -0.3403
 8372TIP3    H146531   2.140   6.154   4.777 -0.7356 -1.5271 -1.7303
 8372TIP3    H246532   2.082   6.293   4.761  1.4658 -0.1472  1.4255
 8373TIP3   OH246533   6.312   5.288  16.004 -0.2224  0.2811  0.0894
 8373TIP3    H146534   6.385   5.247  16.050 -0.4582 -0.0622  0.1681
 8373TIP3    H246535   6.262   5.214  15.968 -1.0526  0.4558  0.8493
 8374TIP3   OH246536   4.423   1.168   3.452 -0.8027  0.3727 -0.1752
 8374TIP3    H146537   4.513   1.153   3.479 -0.9536 -1.4010 -0.5679
 8374TIP3    H246538   4.371   1.108   3.505 -1.5614  0.1293 -1.1642
 8375TIP3   OH246539   2.241   1.422   2.255  0.7346 -0.0382  0.2795
 8375TIP3    H146540   2.159   1.458   2.223  0.6359  0.7886  1.3846
 8375TIP3    H246541   2.218   1.373   2.333  1.2747  0.1570  0.5716
 8376TIP3   OH246542   3.621   0.075  13.085 -0.0551 -0.1053 -0.8463
 8376TIP3    H146543   3.664   0.063  13.000  0.0204  0.4397 -0.8868
 8376TIP3    H246544   3.611  -0.014  13.119  0.5634 -0.2840 -1.1059
 8377TIP3   OH246545   5.380   6.471  16.633 -0.4588 -0.6325 -0.2650
 8377TIP3    H146546   5.295   6.458  16.676  0.5740 -0.0086  2.1277
 8377TIP3    H246547   5.368   6.549  16.579 -2.1842 -2.1853 -2.3097
 8378TIP3   OH246548   1.026   1.624  12.588  0.4661 -0.0584 -0.0523
 8378TIP3    H146549   1.118   1.626  12.561  0.5903 -0.0680  0.3617
 8378TIP3    H246550   0.986   1.699  12.543  1.3063  1.7025  1.9612
 8379TIP3   OH246551   2.296   5.737   5.013  0.2724 -0.0151  0.1206
 8379TIP3    H146552   2.292   5.828   5.044 -0.2566  0.0687 -0.1824
 8379TIP3    H246553   2.378   5.733   4.964  0.0954  0.4211 -0.2227
 8380TIP3   OH246554   4.808   4.307   4.508  0.2662 -0.1281  0.3479
 8380TIP3    H146555   4.758   4.234   4.470 -0.3115  0.5490 -0.2282
 8380TIP3    H246556   4.851   4.269   4.584 -0.2743 -1.0034  0.2370
 8381TIP3   OH246557   4.068   5.985  15.481 -0.1028 -0.0571 -0.3400
 8381TIP3    H146558   4.089   5.942  15.564 -0.8855 -1.5348 -0.8768
 8381TIP3    H246559   3.979   5.957  15.460 -0.1668  0.8205 -1.3636
 8382TIP3   OH246560   6.162   5.535  10.487 -0.0012  0.2868 -0.5870
 8382TIP3    H146561   6.193   5.618  10.523  1.7809 -1.0865  1.2918
 8382TIP3    H246562   6.125   5.489  10.562 -0.9356 -0.6315 -1.5915
 8383TIP3   OH246563   3.542   3.047  16.613  0.2753  0.1633  0.7166
 8383TIP3    H146564   3.591   3.129  16.620  1.2956 -0.1266 -1.9113
 8383TIP3    H246565   3.604   2.979  16.639 -0.2650  0.0985  1.9302
 8384TIP3   OH246566   2.944   3.819  16.233 -0.5511  0.3796 -0.3628
 8384TIP3    H146567   2.928   3.908  16.203 -0.1345  0.2482 -0.9830
 8384TIP3    H246568   2.933   3.765  16.155  0.2720  0.0076 -0.2298
 8385TIP3   OH246569   3.384   5.038   1.444 -0.3054  0.5379 -0.1163
 8385TIP3    H146570   3.311   5.028   1.505  0.1863 -0.1190  0.3851
 8385TIP3    H246571   3.386   5.132   1.423 -0.1464  0.8647  1.3060
 8386TIP3   OH246572   3.254   2.650  11.906  0.1924 -0.3878 -0.2969
 8386TIP3    H146573   3.163   2.669  11.885  0.8563  0.8394 -2.2166
 8386TIP3    H246574   3.280   2.719  11.967 -0.0820 -0.6493  0.1276
 8387TIP3   OH246575   4.502   4.333  12.343  0.2493  0.3760  0.4716
 8387TIP3    H146576   4.522   4.325  12.437 -0.5254 -2.2312  0.5164
 8387TIP3    H246577   4.407   4.335  12.339  0.1758 -1.7928 -0.2850
 8388TIP3   OH246578   1.606   0.930  11.737 -0.6565  0.1691  0.2325
 8388TIP3    H146579   1.651   0.953  11.656  0.0635 -0.9447  0.3007
 8388TIP3    H246580   1.578   0.839  11.724  1.4011 -0.8125  2.0362
 8389TIP3   OH246581   5.997   2.693   1.336 -0.2909  0.0178 -0.5775
 8389TIP3    H146582   6.079   2.692   1.286 -0.9215 -1.7257 -1.6752
 8389TIP3    H246583   6.008   2.622   1.400  0.1552  1.6507  1.2499
 8390TIP3   OH246584   4.742   1.936   0.319  0.2130 -0.2215 -0.4433
 8390TIP3    H146585   4.671   2.000   0.318  0.3753 -0.0338 -1.6711
 8390TIP3    H246586   4.729   1.884   0.240  1.0963 -0.5706 -0.3784
 8391TIP3   OH246587   3.825   5.296  14.314 -0.2239 -0.1428  0.1688
 8391TIP3    H146588   3.892   5.356  14.281 -1.5030  0.3709 -1.6302
 8391TIP3    H246589   3.750   5.309  14.256 -1.6513 -1.2174  1.6771
 8392TIP3   OH246590   3.768   4.171  16.108 -0.0183  0.2044  0.4072
 8392TIP3    H146591   3.695   4.128  16.064  0.3530 -0.1820  0.1545
 8392TIP3    H246592   3.836   4.103  16.113  0.4673  0.6753  0.2814
 8393TIP3   OH246593   0.062   3.515  15.825 -0.4256  0.5135 -0.1527
 8393TIP3    H146594   0.091   3.547  15.739  1.3519 -1.2771 -0.3138
 8393TIP3    H246595   0.118   3.560  15.888 -1.3889  1.4511  0.0618
 8394TIP3   OH246596   4.622   1.129  13.774 -0.3297  0.2858 -0.1238
 8394TIP3    H146597   4.569   1.109  13.852  0.8991  1.5708  1.0919
 8394TIP3    H246598   4.558   1.158  13.709 -1.4220 -1.1064  0.2545
 8395TIP3   OH246599   4.289   3.024   4.127  0.3769  0.2081 -0.5372
 8395TIP3    H146600   4.352   3.009   4.057  0.1397 -3.4145 -0.1578
 8395TIP3    H246601   4.209   2.980   4.097 -0.0152 -0.6291  1.5504
 8396TIP3   OH246602   3.467   4.419   1.580  0.0608 -0.4173  0.1265
 8396TIP3    H146603   3.372   4.413   1.573  0.2018 -1.6300 -0.9510
 8396TIP3    H246604   3.482   4.478   1.654 -1.5273 -1.5292  1.3908
 8397TIP3   OH246605   0.060   5.385  14.286 -0.0287 -0.7378 -0.0888
 8397TIP3    H146606   0.110   5.460  14.257 -0.4746 -0.9288 -1.3950
 8397TIP3    H246607  -0.011   5.376  14.222 -0.3162 -1.9273  0.3590
 8398TIP3   OH246608   5.877   6.271   0.243  0.1251  0.0160 -0.5520
 8398TIP3    H146609   5.955   6.215   0.232 -1.3411 -1.9521 -1.6795
 8398TIP3    H246610   5.831   6.264   0.160 -0.4486  2.5420 -0.5206
 8399TIP3   OH246611   5.407   5.784  14.809 -0.0346 -0.2672  0.2459
 8399TIP3    H146612   5.338   5.750  14.752  1.0659 -0.6701 -0.9000
 8399TIP3    H246613   5.489   5.757  14.767  0.9172  2.7107 -0.0953
 8400TIP3   OH246614   2.706   2.653  14.147 -0.0550  0.1634  0.2883
 8400TIP3    H146615   2.765   2.697  14.209  2.3370 -1.3208 -0.7754
 8400TIP3    H246616   2.640   2.611  14.202  1.0720  0.1805  1.7242
 8401TIP3   OH246617   5.435   5.171   2.365 -0.4168  0.5129 -0.7161
 8401TIP3    H146618   5.413   5.258   2.332  0.2502  0.3512 -1.6403
 8401TIP3    H246619   5.419   5.112   2.291 -0.1619 -0.0409 -0.3391
 8402TIP3   OH246620   3.290   4.550  12.524  0.1523 -0.7840  1.0503
 8402TIP3    H146621   3.322   4.635  12.554  3.1562 -2.0074  1.7086
 8402TIP3    H246622   3.265   4.564  12.433  2.0331  0.5457  0.6743
 8403TIP3   OH246623   6.137   5.628   3.647  0.3784  0.3082 -0.3084
 8403TIP3    H146624   6.185   5.661   3.570  0.3729 -1.3015 -1.0484
 8403TIP3    H246625   6.092   5.705   3.682 -0.2419  0.9718 -2.3889
 8404TIP3   OH246626   3.796   3.936   0.253  0.3508 -0.3633 -0.9560
 8404TIP3    H146627   3.706   3.935   0.221 -0.3308  1.1738  0.7079
 8404TIP3    H246628   3.832   4.019   0.222  0.0711  0.5696  1.0661
 8405TIP3   OH246629   2.263   3.728   1.219  0.1726 -0.2249 -0.5224
 8405TIP3    H146630   2.253   3.761   1.309  0.3368  1.1867 -0.9930
 8405TIP3    H246631   2.232   3.800   1.164 -1.6065 -1.7129 -1.5919
 8406TIP3   OH246632   1.772   0.648  14.195  0.1720  0.0861 -0.4694
 8406TIP3    H146633   1.744   0.723  14.142  0.9777  0.9776  0.3243
 8406TIP3    H246634   1.814   0.589  14.132 -1.0256 -0.0191 -1.2101
 8407TIP3   OH246635   2.750   1.257  16.809 -0.0944  0.1330 -0.9908
 8407TIP3    H146636   2.680   1.239  16.872  1.5039 -0.8160  0.6122
 8407TIP3    H246637   2.744   1.186  16.745  0.0651 -0.5702 -0.2347
 8408TIP3   OH246638   1.452   5.024   2.808 -0.0080  0.1072 -0.0719
 8408TIP3    H146639   1.537   5.053   2.841  0.3640 -1.0168 -0.0115
 8408TIP3    H246640   1.392   5.039   2.881  0.6258 -1.4335  0.8289
 8409TIP3   OH246641   3.293   0.096  14.009 -0.5339  0.2476  0.2092
 8409TIP3    H146642   3.363   0.150  14.045 -0.1368 -1.1962  1.7412
 8409TIP3    H246643   3.283   0.025  14.072 -0.4882 -1.9268 -2.0816
 8410TIP3   OH246644   0.947   6.758   0.857  0.6835 -0.2829 -0.5174
 8410TIP3    H146645   0.887   6.787   0.787  1.2240 -0.4562 -1.0613
 8410TIP3    H246646   0.908   6.793   0.937 -0.3378 -0.6999 -0.8182
 8411TIP3   OH246647   1.366   0.839   0.981  0.5395  0.7328  0.2672
 8411TIP3    H146648   1.425   0.910   1.001  0.3271  1.6790 -2.0988
 8411TIP3    H246649   1.327   0.863   0.897 -3.0315  0.0593  1.5361
 8412TIP3   OH246650   1.668   2.459  14.894  0.5510  0.2704 -0.0136
 8412TIP3    H146651   1.642   2.503  14.814  2.6531  1.1263 -0.2936
 8412TIP3    H246652   1.701   2.529  14.951  3.1220 -0.7197 -0.1224
 8413TIP3   OH246653   2.455   0.180   4.620  0.2924 -1.1757  0.0235
 8413TIP3    H146654   2.519   0.173   4.691  0.1359 -0.7304  0.2143
 8413TIP3    H246655   2.444   0.090   4.588  1.3454 -1.1992 -0.3097
 8414TIP3   OH246656   0.744   6.477  11.152  0.1557 -0.9039  0.5483
 8414TIP3    H146657   0.785   6.401  11.111 -0.2246 -0.4343 -0.7567
 8414TIP3    H246658   0.786   6.552  11.109  0.2737 -0.3755  1.5641
 8415TIP3   OH246659   6.370   0.517  13.721 -0.0035  0.2109  0.1599
 8415TIP3    H146660   6.446   0.523  13.778 -0.9457 -1.8654  1.7587
 8415TIP3    H246661   6.316   0.447  13.759 -1.5239 -0.0878 -2.3008
 8416TIP3   OH246662   2.330   5.134  13.256 -0.5993  0.1561  0.5212
 8416TIP3    H146663   2.401   5.189  13.291  1.9832 -2.1282 -0.7638
 8416TIP3    H246664   2.358   5.114  13.166 -1.4903 -3.0007  0.8321
 8417TIP3   OH246665   3.468   1.394   5.798 -0.3447  0.4972 -0.0383
 8417TIP3    H146666   3.453   1.376   5.891 -0.8110  1.9396  0.1914
 8417TIP3    H246667   3.407   1.337   5.752 -0.1870 -0.1511  0.5387
 8418TIP3   OH246668   5.167   4.254   1.383  0.0179  0.6048 -0.1235
 8418TIP3    H146669   5.249   4.272   1.337 -0.1812 -0.4452 -0.9330
 8418TIP3    H246670   5.168   4.159   1.398 -0.6847  0.6940  0.5759
 8419TIP3   OH246671   5.322   3.190   6.429 -0.0751  0.3635 -0.4499
 8419TIP3    H146672   5.230   3.169   6.412  0.1849 -0.1549 -1.2633
 8419TIP3    H246673   5.319   3.270   6.481 -0.9912  0.3218 -0.4249
 8420TIP3   OH246674   2.124   2.364  14.212  0.7345  0.6798  0.3673
 8420TIP3    H146675   2.213   2.328  14.214 -0.0434 -1.6343 -1.8382
 8420TIP3    H246676   2.107   2.381  14.119 -1.1606  1.0383  0.7363
 8421TIP3   OH246677   2.320   5.712   3.935 -0.0806 -0.7265  0.5332
 8421TIP3    H146678   2.285   5.777   3.874  0.8598 -1.1063 -0.4367
 8421TIP3    H246679   2.392   5.758   3.980 -0.6033 -0.5303  1.1879
 8422TIP3   OH246680   4.750   6.369   1.646 -0.2346  0.3370 -0.6485
 8422TIP3    H146681   4.671   6.378   1.700  0.3531  1.4811  0.0658
 8422TIP3    H246682   4.719   6.378   1.556 -1.1992 -1.3311 -0.5167
 8423TIP3   OH246683   2.365   1.885  16.213 -0.0840 -0.0213  0.1752
 8423TIP3    H146684   2.454   1.849  16.205 -0.0303  0.1399  0.0304
 8423TIP3    H246685   2.373   1.954  16.278  0.5444  1.9874 -1.9032
 8424TIP3   OH246686   6.298   2.667   4.468  0.3662 -0.8035  0.2688
 8424TIP3    H146687   6.245   2.615   4.528 -1.9881  2.1186  0.9633
 8424TIP3    H246688   6.264   2.646   4.381 -0.5982 -0.4867  0.5506
 8425TIP3   OH246689   1.207   5.336   2.716  0.3114  0.0118 -0.4027
 8425TIP3    H146690   1.181   5.392   2.789 -1.3360  0.1882 -1.0830
 8425TIP3    H246691   1.218   5.249   2.755 -2.1899 -0.2714 -0.1589
 8426TIP3   OH246692   4.951   2.497   2.346  0.4880  0.2140 -0.0742
 8426TIP3    H146693   4.858   2.490   2.326  0.2285  1.6508  0.5319
 8426TIP3    H246694   4.993   2.436   2.285 -0.6407  1.1991 -1.9375
 8427TIP3   OH246695   6.679   2.399  11.614 -0.5274  0.1576  0.1246
 8427TIP3    H146696   6.713   2.424  11.528 -0.4812  0.2489  0.1694
 8427TIP3    H246697   6.734   2.447  11.676 -1.0974  0.7490  0.1859
 8428TIP3   OH246698   3.224   1.918  14.369 -0.1655 -0.1270  0.1272
 8428TIP3    H146699   3.296   1.962  14.415  0.9736 -1.0672 -0.7085
 8428TIP3    H246700   3.156   1.985  14.362  0.3192  0.5700  1.5964
 8429TIP3   OH246701   3.631   2.298   5.695  0.3499  0.3390 -0.4241
 8429TIP3    H146702   3.609   2.227   5.636  2.9409 -1.3532  0.4769
 8429TIP3    H246703   3.562   2.296   5.762 -0.0726 -0.7844 -0.8733
 8430TIP3   OH246704   4.559   2.781   3.730  0.4706  0.3913  0.0853
 8430TIP3    H146705   4.621   2.802   3.799  0.6610  1.7876 -0.4958
 8430TIP3    H246706   4.603   2.803   3.648 -0.2092 -0.0731 -0.4291
 8431TIP3   OH246707   3.986   5.766   3.611  0.1040 -0.3765  1.3508
 8431TIP3    H146708   4.078   5.756   3.585 -0.5897 -1.1881 -1.0921
 8431TIP3    H246709   3.984   5.739   3.702  2.3197 -0.1360  1.5346
 8432TIP3   OH246710   0.930   3.617   0.884  0.8066  0.2568  0.4853
 8432TIP3    H146711   1.020   3.591   0.903  0.9286 -0.8084 -1.3104
 8432TIP3    H246712   0.880   3.536   0.892  0.3607  0.4250 -0.4782
 8433TIP3   OH246713   2.038   5.286  14.612  0.2148  0.1032  0.3457
 8433TIP3    H146714   1.985   5.207  14.613 -0.3805  0.5007  0.4369
 8433TIP3    H246715   1.991   5.348  14.668  0.5301  0.6122  0.0590
 8434TIP3   OH246716   6.042   3.290  12.291  0.3027  0.5670  0.4379
 8434TIP3    H146717   6.036   3.365  12.351  0.7989  0.0546  1.1508
 8434TIP3    H246718   6.129   3.298  12.251  1.0957 -0.5726  1.8420
 8435TIP3   OH246719   3.722   4.459  16.906  0.0314  0.2261 -0.0339
 8435TIP3    H146720   3.736   4.450  17.000 -0.0625  2.6029  0.2626
 8435TIP3    H246721   3.751   4.375  16.869 -1.2875 -1.3271  2.2012
 8436TIP3   OH246722   3.649   5.787   4.359  0.2102  0.1150 -0.6084
 8436TIP3    H146723   3.563   5.759   4.327  0.6114 -2.5321  0.3941
 8436TIP3    H246724   3.651   5.760   4.451  3.1507 -2.6797 -1.3245
 8437TIP3   OH246725   5.247   0.320   2.883  0.2557  0.6615 -0.2806
 8437TIP3    H146726   5.242   0.253   2.950 -2.4010  0.4535 -0.6092
 8437TIP3    H246727   5.224   0.401   2.928  0.2499  0.8225 -0.5692
 8438TIP3   OH246728   2.958   3.027  17.103  0.5142 -0.0809 -0.1614
 8438TIP3    H146729   3.019   2.953  17.106  0.1690 -0.4153 -0.9257
 8438TIP3    H246730   2.873   2.987  17.084  0.0912  0.3987  0.6759
 8439TIP3   OH246731   6.528   6.520  11.230 -0.3806 -0.0578  0.7062
 8439TIP3    H146732   6.494   6.576  11.159  1.8423 -0.1092 -0.4962
 8439TIP3    H246733   6.578   6.452  11.185  0.2064 -0.7300  2.3077
 8440TIP3   OH246734   4.567   2.681   5.483 -0.0640 -0.5783 -0.0761
 8440TIP3    H146735   4.560   2.744   5.411  0.9645 -1.6501 -1.1581
 8440TIP3    H246736   4.555   2.596   5.441  0.7061 -1.2304  1.0015
 8441TIP3   OH246737   5.626   5.413  16.684 -0.4438  0.0551 -0.1742
 8441TIP3    H146738   5.546   5.382  16.725 -0.6551 -0.3610 -0.8927
 8441TIP3    H246739   5.631   5.366  16.601  0.2751  0.4590 -0.3718
 8442TIP3   OH246740   2.977   3.270  14.665  0.0313 -0.1704  0.2050
 8442TIP3    H146741   2.954   3.333  14.596  0.1032  0.0057  0.3415
 8442TIP3    H246742   3.022   3.199  14.619  0.5047  0.1706  0.1332
 8443TIP3   OH246743   0.883   3.584  12.559 -0.2381  0.1702 -0.3760
 8443TIP3    H146744   0.848   3.539  12.483 -1.4827 -0.1362  0.3633
 8443TIP3    H246745   0.917   3.515  12.615 -1.5802  0.1799  0.4718
 8444TIP3   OH246746   1.636   3.179   0.469  0.1414  0.0936  0.0221
 8444TIP3    H146747   1.547   3.178   0.502 -0.1439  0.0274 -0.7316
 8444TIP3    H246748   1.656   3.272   0.456 -0.6126  0.0455 -1.8471
 8445TIP3   OH246749   2.019   5.256  13.028  0.2667 -0.0776 -0.5098
 8445TIP3    H146750   2.019   5.199  12.951  0.2760 -0.6489 -0.0893
 8445TIP3    H246751   2.100   5.305  13.022  0.4792 -0.4432 -0.6317
 8446TIP3   OH246752   0.965   6.524   6.640  0.0209 -0.0055 -0.1212
 8446TIP3    H146753   0.930   6.612   6.625 -1.4299 -0.3387  1.0979
 8446TIP3    H246754   1.059   6.538   6.651 -0.0031  1.2210 -1.1608
 8447TIP3   OH246755   6.199   0.162  16.506 -0.8741 -0.0809 -0.5825
 8447TIP3    H146756   6.149   0.086  16.535 -0.1526 -0.0714  0.7879
 8447TIP3    H246757   6.290   0.135  16.516 -0.5891  1.2549  0.8641
 8448TIP3   OH246758   5.070   5.871   0.172  0.4484  0.0165 -0.4866
 8448TIP3    H146759   5.142   5.912   0.221 -0.5819  0.9836  0.2933
 8448TIP3    H246760   5.039   5.801   0.229  0.7579 -0.3896 -0.8149
 8449TIP3   OH246761   3.685   1.226  13.742  0.1334  0.1613 -0.0688
 8449TIP3    H146762   3.774   1.211  13.710  0.0797 -0.5258  0.1053
 8449TIP3    H246763   3.629   1.196  13.670  0.0335  1.1408 -0.4244
 8450TIP3   OH246764   3.948   2.905  10.826  0.1686  0.2686  0.0408
 8450TIP3    H146765   3.872   2.892  10.769  0.6534 -2.2644 -0.1372
 8450TIP3    H246766   4.008   2.958  10.773 -1.1432  1.7083 -0.0753
 8451TIP3   OH246767   5.964   2.939   1.453  0.4369  0.2787 -0.1585
 8451TIP3    H146768   5.992   2.861   1.405  1.7115 -0.2850  1.4232
 8451TIP3    H246769   6.036   3.000   1.443  0.9273 -0.0135  1.3591
 8452TIP3   OH246770   3.210   1.540   1.837 -0.3762 -0.2986 -0.3004
 8452TIP3    H146771   3.196   1.555   1.930  2.0890  1.1706 -0.0676
 8452TIP3    H246772   3.225   1.446   1.829 -0.4689 -0.4118  0.7861
 8453TIP3   OH246773   3.668   5.787  16.019  0.2944 -0.2631  0.5056
 8453TIP3    H146774   3.722   5.825  16.088  0.3850 -3.6962  2.5653
 8453TIP3    H246775   3.585   5.766  16.062 -0.8750  0.3461 -1.3106
 8454TIP3   OH246776   6.449   0.277  15.177 -0.3126  0.4006 -0.5401
 8454TIP3    H146777   6.469   0.238  15.091 -0.8714 -0.5151 -0.2688
 8454TIP3    H246778   6.534   0.282  15.221 -0.5603 -4.5813  1.0784
 8455TIP3   OH246779   2.022   2.034  13.657 -0.4700 -0.8796  0.4155
 8455TIP3    H146780   2.073   1.973  13.603 -1.6542 -2.6252  1.1791
 8455TIP3    H246781   1.950   1.981  13.691 -2.7551  1.4418 -0.5144
 8456TIP3   OH246782   3.449   5.593   2.252  0.1213 -0.1228 -0.0548
 8456TIP3    H146783   3.447   5.685   2.228 -2.1978  0.2502  1.2597
 8456TIP3    H246784   3.537   5.580   2.288  0.4461  1.6247 -0.1187
 8457TIP3   OH246785   2.230   5.414   1.483  0.1137  0.0132  0.4893
 8457TIP3    H146786   2.271   5.408   1.397  0.0260  2.2427  0.2160
 8457TIP3    H246787   2.209   5.507   1.493 -1.3530 -0.4392  2.2551
 8458TIP3   OH246788   5.225   2.612   2.689  0.4603  0.1909  0.1754
 8458TIP3    H146789   5.146   2.560   2.676  0.2027  0.9350 -1.4671
 8458TIP3    H246790   5.292   2.568   2.637  0.2556  1.4015 -1.1893
 8459TIP3   OH246791   6.743   3.746   0.467  0.2331  0.7474  0.1491
 8459TIP3    H146792   6.763   3.716   0.378 -2.3846 -2.4345  0.4577
 8459TIP3    H246793   6.678   3.815   0.455  2.2434  2.6756 -0.3860
 8460TIP3   OH246794   0.083   0.299   2.188  0.4261  0.0275  0.7286
 8460TIP3    H146795   0.178   0.302   2.176  0.2611 -0.1474 -0.8960
 8460TIP3    H246796   0.061   0.381   2.231  1.3608 -0.1151  1.5026
 8461TIP3   OH246797   0.256   5.781  13.835 -0.0246 -0.5415  0.3539
 8461TIP3    H146798   0.341   5.825  13.835 -1.0621  1.6327  0.0890
 8461TIP3    H246799   0.276   5.688  13.840  2.5262 -0.3711 -3.1205
 8462TIP3   OH246800   5.066   3.442   4.638 -0.0649  0.0717 -0.7528
 8462TIP3    H146801   5.101   3.529   4.620 -0.1659  0.1585 -0.5341
 8462TIP3    H246802   4.984   3.458   4.685  0.1316 -0.1470 -0.3281
 8463TIP3   OH246803   0.918   5.514  10.530 -0.4290 -0.6295 -0.3727
 8463TIP3    H146804   0.890   5.601  10.559  1.1601 -0.3273  0.3400
 8463TIP3    H246805   0.983   5.487  10.594  1.0002 -1.2398 -2.0045
 8464TIP3   OH246806   2.898   5.223   5.395 -0.1700  0.5928 -0.1727
 8464TIP3    H146807   2.945   5.234   5.478  0.2772 -0.4003 -0.2791
 8464TIP3    H246808   2.930   5.140   5.361  0.4619  1.5035 -1.8711
 8465TIP3   OH246809   2.111   1.208   0.922  0.3451  0.3529 -0.1313
 8465TIP3    H146810   2.189   1.191   0.975 -0.3636 -0.5410  0.6756
 8465TIP3    H246811   2.114   1.302   0.903  1.1793  0.4810  0.6024
 8466TIP3   OH246812   3.982   2.720   2.475 -0.0305 -0.4735 -0.2124
 8466TIP3    H146813   3.889   2.717   2.454  0.0569 -1.0104 -0.5365
 8466TIP3    H246814   4.023   2.662   2.411  0.6122  0.2992 -0.5216
 8467TIP3   OH246815   3.690   4.345   4.290 -0.8831  0.7105  0.2493
 8467TIP3    H146816   3.734   4.420   4.330 -0.1329  0.2459  0.3192
 8467TIP3    H246817   3.710   4.271   4.348 -1.6107  0.4517  0.1829
 8468TIP3   OH246818   4.333   0.268   3.356  0.2580  0.2463 -0.5339
 8468TIP3    H146819   4.306   0.214   3.431  1.6068 -0.6784 -0.6728
 8468TIP3    H246820   4.284   0.232   3.282  0.9333 -0.6330 -0.5714
 8469TIP3   OH246821   3.577   2.060  15.294  0.3066 -0.5715 -0.0592
 8469TIP3    H146822   3.487   2.050  15.323 -0.7133 -0.4187 -2.8765
 8469TIP3    H246823   3.615   2.124  15.354 -1.9883  0.7005  0.1405
 8470TIP3   OH246824   6.295   2.281   2.028 -0.6057  0.6449  0.4573
 8470TIP3    H146825   6.240   2.282   2.107 -1.0791  1.7028  0.1357
 8470TIP3    H246826   6.289   2.191   1.996 -0.4390  0.2063  1.5949
 8471TIP3   OH246827   0.231   2.562   5.126 -0.0731 -0.6653 -0.2631
 8471TIP3    H146828   0.136   2.559   5.119 -0.0820 -1.2825  0.0228
 8471TIP3    H246829   0.254   2.653   5.110 -0.8297 -0.2083  1.0710
 8472TIP3   OH246830   0.589   4.677   5.013  0.1771  0.0756 -0.1384
 8472TIP3    H146831   0.629   4.761   5.037 -0.4632  0.1644  0.6950
 8472TIP3    H246832   0.596   4.674   4.918  0.7656  0.7899 -0.1332
 8473TIP3   OH246833   2.658   1.686   3.215  0.4857 -0.0016 -0.3953
 8473TIP3    H146834   2.583   1.656   3.163  0.1730  2.4399 -1.4896
 8473TIP3    H246835   2.632   1.668   3.306 -1.5967  1.0347 -0.7165
 8474TIP3   OH246836   1.187   5.987  17.057  0.2746  0.1470  0.5768
 8474TIP3    H146837   1.254   6.028  17.002  0.4746 -0.1349  0.6059
 8474TIP3    H246838   1.156   6.058  17.114  0.2157  0.3886  0.2433
 8475TIP3   OH246839   2.077   6.046   0.395 -0.0424 -0.4715 -0.6137
 8475TIP3    H146840   2.033   5.986   0.456 -0.5245 -1.1493 -1.6058
 8475TIP3    H246841   2.090   6.126   0.446 -1.2153 -0.7214  0.1261
 8476TIP3   OH246842   1.683   0.146   2.049  0.4131 -0.0945  0.3538
 8476TIP3    H146843   1.725   0.158   1.964 -0.2244  0.4878  0.1155
 8476TIP3    H246844   1.607   0.204   2.047 -0.3776 -1.0904  0.7948
 8477TIP3   OH246845   2.165   6.682   5.512 -0.2677  0.3545  0.0170
 8477TIP3    H146846   2.253   6.644   5.505 -0.3265  0.5031 -2.4034
 8477TIP3    H246847   2.181   6.777   5.517 -0.2422  0.2877  2.8846
 8478TIP3   OH246848   6.073   4.483  11.495 -0.3692  0.6942  0.3527
 8478TIP3    H146849   6.110   4.460  11.580  1.2742  0.3843 -0.4267
 8478TIP3    H246850   6.105   4.572  11.477  0.5484  0.1802 -0.6166
 8479TIP3   OH246851   4.739   5.224   0.866 -0.7419 -0.1609  0.4164
 8479TIP3    H146852   4.803   5.205   0.935 -0.9850  0.5045  0.8347
 8479TIP3    H246853   4.759   5.314   0.839 -0.1736 -0.6553 -0.9136
 8480TIP3   OH246854   2.726   1.679   4.753  0.4385  0.0383 -0.2087
 8480TIP3    H146855   2.705   1.752   4.811 -1.3684 -0.2061 -0.4959
 8480TIP3    H246856   2.669   1.608   4.783  1.8720 -1.1643 -0.1835
 8481TIP3   OH246857   2.358   1.137   5.008  0.2626  0.5298  0.5778
 8481TIP3    H146858   2.357   1.166   5.099 -0.3206  1.4764  0.2891
 8481TIP3    H246859   2.449   1.144   4.982  0.1868  1.8133  0.6228
 8482TIP3   OH246860   4.131   6.613   0.509  0.7653  0.4673  0.4533
 8482TIP3    H146861   4.157   6.525   0.536  0.9795  0.2228 -0.5356
 8482TIP3    H246862   4.212   6.655   0.481  0.4705  0.5260 -0.3277
 8483TIP3   OH246863   6.641   2.681  15.565  0.0666  0.5025 -0.4140
 8483TIP3    H146864   6.703   2.738  15.611 -0.0902  1.0490 -0.8740
 8483TIP3    H246865   6.632   2.604  15.622  1.0892  0.4600 -0.2962
 8484TIP3   OH246866   0.971   4.408  14.662  0.0258  0.3118 -0.7218
 8484TIP3    H146867   1.008   4.433  14.747 -0.3017  0.1227 -0.5216
 8484TIP3    H246868   0.930   4.488  14.629  0.6577  0.5393 -0.9745
 8485TIP3   OH246869   1.424   6.606  15.903  0.4042 -0.1016 -0.1466
 8485TIP3    H146870   1.340   6.582  15.942  0.4339 -0.4770 -0.3098
 8485TIP3    H246871   1.438   6.540  15.835  0.3977  0.4772 -0.7237
 8486TIP3   OH246872   4.286   2.573  15.810 -0.5287 -0.2663  0.2240
 8486TIP3    H146873   4.273   2.657  15.854  0.2123  0.5527 -1.0626
 8486TIP3    H246874   4.259   2.508  15.874  1.2636  0.8191  2.1915
 8487TIP3   OH246875   1.644   5.655   1.918 -0.7091 -0.0215  0.2656
 8487TIP3    H146876   1.647   5.672   1.823  1.8646 -1.0404  0.0998
 8487TIP3    H246877   1.630   5.742   1.956 -0.9219  0.5355 -1.0027
 8488TIP3   OH246878   3.021   0.406   4.843  0.2649  0.1118  0.1218
 8488TIP3    H146879   2.953   0.431   4.906  0.7991  0.0509  0.7393
 8488TIP3    H246880   2.976   0.401   4.759 -0.6756 -0.7923  0.6580
 8489TIP3   OH246881   1.329   5.462   4.956  0.0686  0.4451  0.2274
 8489TIP3    H146882   1.365   5.544   4.991  2.3082 -0.6484  0.6950
 8489TIP3    H246883   1.245   5.452   4.999  0.1608  2.0325  0.8479
 8490TIP3   OH246884   0.990   0.311  11.284  1.1071 -0.0084  0.1013
 8490TIP3    H146885   1.080   0.343  11.294  1.2435 -0.7021  1.2765
 8490TIP3    H246886   0.960   0.295  11.373  0.0487 -0.4530 -0.3165
 8491TIP3   OH246887   1.185   1.540  11.321 -0.4650  0.0896  0.2417
 8491TIP3    H146888   1.261   1.598  11.312 -0.0071 -0.2514  1.5945
 8491TIP3    H246889   1.130   1.582  11.387 -0.8904 -0.2458  0.1073
 8492TIP3   OH246890   5.418   0.169   0.842  0.3292 -0.2178 -0.4209
 8492TIP3    H146891   5.505   0.136   0.818  0.6677  1.5388 -1.8300
 8492TIP3    H246892   5.390   0.113   0.914  2.7196 -0.6928  0.2099
 8493TIP3   OH246893   2.599   1.473   2.314 -0.7918 -0.1597  0.4054
 8493TIP3    H146894   2.689   1.482   2.285 -1.3018  0.0054 -1.2152
 8493TIP3    H246895   2.562   1.561   2.308 -1.2326 -0.3354  0.4654
 8494TIP3   OH246896   2.549   5.761   6.060 -0.3078 -0.3285 -0.1881
 8494TIP3    H146897   2.504   5.681   6.031  2.1886 -1.4408 -1.2839
 8494TIP3    H246898   2.527   5.826   5.994  0.8120 -1.2929 -1.5879
 8495TIP3   OH246899   6.204   3.451   5.074  0.1558  0.4424 -0.0956
 8495TIP3    H146900   6.140   3.426   5.007  1.9649 -0.9086 -1.4426
 8495TIP3    H246901   6.203   3.379   5.137 -1.7201  1.8269  1.5735
 8496TIP3   OH246902   6.539   0.812   2.812 -0.3854 -0.1150  0.2473
 8496TIP3    H146903   6.614   0.865   2.785 -0.3883 -0.4894 -0.5252
 8496TIP3    H246904   6.466   0.873   2.816 -0.0389  0.2664  1.0641
 8497TIP3   OH246905   3.571   4.954   4.890 -0.3704  0.7267 -0.0934
 8497TIP3    H146906   3.637   5.022   4.876  0.9918 -0.2850  1.0279
 8497TIP3    H246907   3.565   4.946   4.985 -1.1014 -0.1637 -0.2036
 8498TIP3   OH246908   6.492   6.799   5.340 -0.6559 -0.1782  0.3099
 8498TIP3    H146909   6.408   6.825   5.302 -0.0726 -0.2442 -1.0868
 8498TIP3    H246910   6.520   6.725   5.287  0.8458  0.5837 -0.0136
 8499TIP3   OH246911   4.653   6.029  13.605  0.1733 -0.0222 -0.4250
 8499TIP3    H146912   4.697   6.031  13.690  0.4512  0.2848 -0.5753
 8499TIP3    H246913   4.604   5.946  13.605  0.9778 -0.5061 -0.3697
 8500TIP3   OH246914   3.944   2.895  16.887 -0.4440  0.0345  0.5203
 8500TIP3    H146915   3.946   2.964  16.820 -1.5288  2.0314  2.4105
 8500TIP3    H246916   3.880   2.926  16.951 -0.2365 -2.3027  1.9666
 8501TIP3   OH246917   6.346   4.976   3.419  0.3051 -0.4950 -0.1233
 8501TIP3    H146918   6.385   4.919   3.485 -1.2303 -1.8723 -0.3502
 8501TIP3    H246919   6.418   4.998   3.360  1.1357 -1.3686  0.5483
 8502TIP3   OH246920   2.205   0.506  11.727  0.5371  0.2509  0.3646
 8502TIP3    H146921   2.124   0.547  11.759  1.0394  0.6920  1.0940
 8502TIP3    H246922   2.210   0.532  11.635  1.0165  2.1357  0.8878
 8503TIP3   OH246923   1.841   3.106  13.562  0.1189  0.6974 -0.1501
 8503TIP3    H146924   1.838   3.034  13.499  1.3427  0.9391 -0.4982
 8503TIP3    H246925   1.807   3.068  13.643  0.2662 -0.1234 -0.4663
 8504TIP3   OH246926   3.085   3.309   0.694 -0.1548  0.3267 -0.1398
 8504TIP3    H146927   3.157   3.245   0.685 -1.3711 -0.8241 -2.7263
 8504TIP3    H246928   3.114   3.384   0.643 -0.9349 -0.3452 -1.6297
 8505TIP3   OH246929   3.178   1.490  12.850  0.0917 -0.2679 -0.7140
 8505TIP3    H146930   3.247   1.480  12.785 -0.2086  0.0018 -1.0712
 8505TIP3    H246931   3.099   1.508  12.800 -0.8751 -3.4712 -0.5341
 8506TIP3   OH246932   4.310   5.750   1.929  0.0513  0.1224 -0.0608
 8506TIP3    H146933   4.247   5.747   1.858 -1.3392 -1.1741  1.1396
 8506TIP3    H246934   4.327   5.843   1.944 -2.5272  0.5745  0.3584
 8507TIP3   OH246935   6.726   3.270   1.045 -0.5981  0.2853 -0.0503
 8507TIP3    H146936   6.768   3.302   0.965  0.1035 -2.7549 -1.0300
 8507TIP3    H246937   6.651   3.220   1.014 -0.4659 -0.7327  1.1923
 8508TIP3   OH246938   2.085   2.260  12.081  0.1261 -0.3211 -0.0543
 8508TIP3    H146939   2.129   2.177  12.060  0.3885  0.0961 -1.2336
 8508TIP3    H246940   2.153   2.314  12.120  0.2811 -0.2175 -0.4634
 8509TIP3   OH246941   3.391   3.598   1.840  0.3924  0.3181 -0.5537
 8509TIP3    H146942   3.415   3.673   1.895  0.2687 -0.1864  0.2053
 8509TIP3    H246943   3.304   3.621   1.805 -0.6843 -0.4080  1.4811
 8510TIP3   OH246944   6.544   6.040   3.273 -0.4486 -0.1295  0.4145
 8510TIP3    H146945   6.513   6.121   3.314 -1.6605 -0.2406 -0.2450
 8510TIP3    H246946   6.487   6.028   3.198  0.5458 -0.9318 -0.2366
 8511TIP3   OH246947   0.318   6.635  16.865 -0.1510  0.1818  0.7694
 8511TIP3    H146948   0.290   6.561  16.918 -2.3667  0.1548 -0.3508
 8511TIP3    H246949   0.411   6.618  16.848 -0.5690 -2.3264  0.5719
 8512TIP3   OH246950   0.464   0.070   1.039 -0.9365  0.1676  0.0316
 8512TIP3    H146951   0.413   0.120   1.102 -1.0501  0.6738 -0.4523
 8512TIP3    H246952   0.413   0.075   0.958 -0.2853  0.3990 -0.3699
 8513TIP3   OH246953   4.167   4.838  12.935 -0.1092 -0.3276  0.0285
 8513TIP3    H146954   4.251   4.844  12.980  0.5791  2.8518 -1.3678
 8513TIP3    H246955   4.104   4.876  12.997 -0.1059 -0.6208  0.2128
 8514TIP3   OH246956   5.543   0.197   4.013 -0.3756 -0.5144  0.1159
 8514TIP3    H146957   5.545   0.117   4.066  1.4556  0.1606  1.1340
 8514TIP3    H246958   5.605   0.256   4.055 -0.5212  0.8879 -1.5137
 8515TIP3   OH246959   5.284   5.291   3.829  0.0887  0.5109 -0.2104
 8515TIP3    H146960   5.272   5.281   3.924  0.9004 -1.9362 -0.2815
 8515TIP3    H246961   5.338   5.216   3.804 -1.5523  0.1031 -2.9037
 8516TIP3   OH246962   2.687   4.322  13.129 -0.0717 -0.0226  0.6274
 8516TIP3    H146963   2.597   4.354  13.120 -0.9997 -2.2824  1.3011
 8516TIP3    H246964   2.722   4.370  13.205 -0.2437  1.7277 -0.3356
 8517TIP3   OH246965   0.077   6.709  12.936 -0.3804 -1.5219  0.2064
 8517TIP3    H146966   0.143   6.769  12.901 -0.0274 -0.7464  2.0760
 8517TIP3    H246967   0.047   6.659  12.860  0.4749 -0.0903 -1.1280
 8518TIP3   OH246968   0.686   2.454  13.701  0.0205 -0.0672  0.0015
 8518TIP3    H146969   0.743   2.524  13.670 -0.9183  0.3236 -0.9339
 8518TIP3    H246970   0.647   2.418  13.621 -1.5993  0.1768  0.6423
 8519TIP3   OH246971   3.744   1.632  14.784  0.0001  0.5426  0.1935
 8519TIP3    H146972   3.821   1.684  14.807  0.8292 -0.5190 -0.1023
 8519TIP3    H246973   3.670   1.691  14.799  0.7692  1.1871  1.7144
 8520TIP3   OH246974   4.052   1.365   5.544 -0.2517  0.1857 -0.5613
 8520TIP3    H146975   4.116   1.430   5.573 -1.6157  0.2840  2.6731
 8520TIP3    H246976   3.967   1.402   5.570 -1.1627 -2.3552  0.3617
 8521TIP3   OH246977   1.144   5.665  12.672  0.5272  0.5543  0.9736
 8521TIP3    H146978   1.172   5.691  12.760  1.3249 -3.6995  2.2307
 8521TIP3    H246979   1.211   5.700  12.614  0.9756  1.9415  2.2497
 8522TIP3   OH246980   5.156   1.114  13.760  0.8050  0.5181 -0.0549
 8522TIP3    H146981   5.179   1.206  13.771  0.6950  0.9439 -2.7290
 8522TIP3    H246982   5.060   1.113  13.760  0.7811  0.1622  1.2740
 8523TIP3   OH246983   0.637   5.301  16.027 -0.1224  0.1799  0.3961
 8523TIP3    H146984   0.728   5.282  16.003 -0.0119  1.3737 -0.2296
 8523TIP3    H246985   0.644   5.346  16.111 -0.0231  1.1821 -0.1250
 8524TIP3   OH246986   0.033   2.236  11.919  0.1351 -0.6629 -0.1491
 8524TIP3    H146987   0.015   2.154  11.872 -0.4422 -1.3435  1.1860
 8524TIP3    H246988   0.128   2.236  11.932  0.4054 -0.0688 -1.9734
 8525TIP3   OH246989   2.737   1.846  12.856  0.3322  0.0008 -0.4015
 8525TIP3    H146990   2.670   1.885  12.914 -0.9581 -1.1439 -1.0571
 8525TIP3    H246991   2.817   1.894  12.876  0.5445 -1.7293  3.9738
 8526TIP3   OH246992   0.443   6.397   1.978  0.4367  0.5956  0.1322
 8526TIP3    H146993   0.455   6.311   2.018 -1.5066  1.2853  2.4049
 8526TIP3    H246994   0.504   6.454   2.024  1.1419  0.6383 -0.8162
 8527TIP3   OH246995   4.901   1.795  15.232  0.4238 -0.3826 -0.1274
 8527TIP3    H146996   4.908   1.886  15.203 -1.2717 -0.1915 -0.0552
 8527TIP3    H246997   4.886   1.745  15.151 -0.5889 -0.3244  0.0076
 8528TIP3   OH246998   0.248   4.128  12.894  0.0110 -0.0430  0.2264
 8528TIP3    H146999   0.167   4.097  12.854  0.3052 -1.1327  0.4150
 8528TIP3    H247000   0.239   4.223  12.898 -0.9048 -0.0851 -0.4994
 8529TIP3   OH247001   6.208   0.716   0.500  1.0344  0.1514  0.3626
 8529TIP3    H147002   6.175   0.791   0.549 -0.1665 -0.5192  0.6442
 8529TIP3    H247003   6.286   0.688   0.547  0.2303 -0.1210  1.5633
 8530TIP3   OH247004   5.480   5.754  10.840  0.1053  0.0515 -0.2721
 8530TIP3    H147005   5.464   5.838  10.884  1.1438  0.2982 -0.3458
 8530TIP3    H247006   5.440   5.765  10.754 -0.3641  0.2184 -0.0381
 8531TIP3   OH247007   3.653   3.324  16.587 -0.5689 -0.1512 -0.6645
 8531TIP3    H147008   3.679   3.374  16.664  0.2390 -1.1509 -0.2657
 8531TIP3    H247009   3.731   3.326  16.531 -0.6012 -0.7772 -0.7327
 8532TIP3   OH247010   3.581   1.604   3.492  0.4497  0.2762  0.1239
 8532TIP3    H147011   3.594   1.653   3.410  0.2356 -2.7482 -1.8718
 8532TIP3    H247012   3.524   1.531   3.468  1.1059 -1.2548  2.7714
 8533TIP3   OH247013   6.426   4.552   2.378 -0.0426  0.1512 -0.4574
 8533TIP3    H147014   6.462   4.469   2.411 -0.2459  0.4558  0.5894
 8533TIP3    H247015   6.336   4.553   2.412 -0.3323  0.3918 -1.2168
 8534TIP3   OH247016   2.194   4.057   1.305 -0.4078  0.0146 -0.0749
 8534TIP3    H147017   2.149   4.052   1.390 -0.5668 -1.6359 -0.2266
 8534TIP3    H247018   2.160   3.983   1.255  1.2416 -0.2822 -0.8156
 8535TIP3   OH247019   1.764   6.762   3.131 -0.2564  0.6733 -0.3906
 8535TIP3    H147020   1.677   6.769   3.091 -0.1414 -0.3167 -0.8332
 8535TIP3    H247021   1.747   6.771   3.225 -1.0337 -0.9347 -0.3418
 8536TIP3   OH247022   6.525   3.168  13.540 -0.2211 -0.1736 -0.6359
 8536TIP3    H147023   6.514   3.254  13.500  1.9293  0.3484 -0.2252
 8536TIP3    H247024   6.592   3.125  13.487 -0.7026 -1.3060 -0.3647
 8537TIP3   OH247025   0.049   5.364   5.742 -0.2273 -0.2623 -0.1968
 8537TIP3    H147026   0.134   5.372   5.784 -0.3910  0.5676 -0.0095
 8537TIP3    H247027   0.002   5.298   5.794 -0.1777  0.2464  0.4975
 8538TIP3   OH247028   0.747   6.342  12.198 -0.3967 -0.0369 -0.3417
 8538TIP3    H147029   0.678   6.288  12.159 -0.0287 -1.1035  0.4202
 8538TIP3    H247030   0.820   6.335  12.137 -0.3610 -0.3886 -0.2615
 8539TIP3   OH247031   0.471   4.163  10.671 -0.1215 -0.2696 -0.2078
 8539TIP3    H147032   0.378   4.139  10.668 -0.0428 -0.6613  0.3704
 8539TIP3    H247033   0.507   4.126  10.590 -0.4032 -0.4061 -0.2719
 8540TIP3   OH247034   1.620   2.139  15.310  0.4811  0.1372  0.2753
 8540TIP3    H147035   1.668   2.202  15.364 -0.5221  1.7889 -0.6849
 8540TIP3    H247036   1.652   2.153  15.221 -0.1444 -0.3259 -0.0342
 8541TIP3   OH247037   5.461   6.716   3.660  0.4949  0.4582 -0.0716
 8541TIP3    H147038   5.403   6.711   3.735  1.5220 -0.4787  0.6979
 8541TIP3    H247039   5.483   6.809   3.652 -2.2484  1.0992 -1.3422
 8542TIP3   OH247040   0.649   2.937   4.379 -0.3991  0.2922 -0.6799
 8542TIP3    H147041   0.599   3.005   4.424  1.0880  0.0460  1.5043
 8542TIP3    H247042   0.674   2.977   4.295 -0.2156  2.1659  0.2128
 8543TIP3   OH247043   3.966   4.875  15.406  0.4157 -0.3552 -0.2363
 8543TIP3    H147044   3.876   4.845  15.399  0.2652 -0.3374  1.3406
 8543TIP3    H247045   3.976   4.903  15.497  1.5290  1.2572 -0.8046
 8544TIP3   OH247046   5.035   6.382   4.853  0.8461  0.4465  0.8888
 8544TIP3    H147047   4.981   6.313   4.891  0.4596  0.6378  0.6963
 8544TIP3    H247048   5.032   6.366   4.759 -0.0465  1.2841  0.7557
 8545TIP3   OH247049   4.946   4.186  10.746  0.0403  0.5998  0.1532
 8545TIP3    H147050   4.900   4.263  10.780  1.9552  2.2472 -0.7833
 8545TIP3    H247051   5.037   4.199  10.771  0.7330 -0.4074 -1.6201
 8546TIP3   OH247052   3.887   2.190  12.716 -0.1576 -0.4974  0.2723
 8546TIP3    H147053   3.791   2.183  12.714 -0.0699 -1.8573 -1.9667
 8546TIP3    H247054   3.912   2.210  12.626  1.8366 -4.1669 -0.1799
 8547TIP3   OH247055   6.302   5.360  12.462 -0.1259  0.1831  0.3493
 8547TIP3    H147056   6.379   5.347  12.517 -0.2675  0.1374  0.5344
 8547TIP3    H247057   6.278   5.272  12.433  1.8726  0.3885 -2.4220
 8548TIP3   OH247058   5.012   3.928  13.754 -0.2615  0.2161 -0.2627
 8548TIP3    H147059   5.014   3.841  13.795  0.6220  0.0247 -0.6719
 8548TIP3    H247060   5.104   3.948  13.737 -0.5357  0.7391 -1.1997
 8549TIP3   OH247061   2.455   6.234   2.171 -0.7062  0.1338  0.0359
 8549TIP3    H147062   2.511   6.163   2.203  2.1307  1.5956 -1.2268
 8549TIP3    H247063   2.381   6.189   2.129  1.0212 -2.1399 -0.8399
 8550TIP3   OH247064   0.713   1.753  13.300 -0.6482 -0.1679 -0.2475
 8550TIP3    H147065   0.637   1.733  13.354 -0.2851  3.4895  1.8991
 8550TIP3    H247066   0.686   1.825  13.244  0.8937  0.4995 -0.2029
 8551TIP3   OH247067   6.115   5.323   5.443  0.2613 -0.1345  0.0664
 8551TIP3    H147068   6.126   5.413   5.414 -0.9737 -0.3085 -1.0229
 8551TIP3    H247069   6.102   5.329   5.537  0.0729  0.8290 -0.0136
 8552TIP3   OH247070   6.465   3.941   2.457  0.0877  0.4107 -0.5151
 8552TIP3    H147071   6.378   3.926   2.492  0.8467 -2.2012  0.5261
 8552TIP3    H247072   6.451   3.988   2.375 -2.6266 -2.6091 -2.0166
 8553TIP3   OH247073   6.547   6.651   6.041  0.1090  0.2536 -0.2790
 8553TIP3    H147074   6.547   6.621   5.950  2.4213 -1.6028  0.2348
 8553TIP3    H247075   6.528   6.745   6.035 -1.1055 -0.0443 -2.5212
 8554TIP3   OH247076   2.795   1.229   0.433  0.3875 -0.2482  0.0434
 8554TIP3    H147077   2.755   1.281   0.364  1.9558  0.9243 -0.0166
 8554TIP3    H247078   2.769   1.272   0.514 -0.2401 -0.7706  0.1315
 8555TIP3   OH247079   6.418   1.862   2.787  0.6656  0.3622  0.2638
 8555TIP3    H147080   6.486   1.928   2.799  1.1779  0.1700 -1.2910
 8555TIP3    H247081   6.346   1.909   2.744  1.1492 -0.1161 -1.1209
 8556TIP3   OH247082   2.585   3.485  14.600 -0.1584 -0.3437 -0.4039
 8556TIP3    H147083   2.598   3.576  14.573 -0.8444 -0.2067 -0.2722
 8556TIP3    H247084   2.491   3.477  14.616  0.2598 -0.0570  3.1696
 8557TIP3   OH247085   6.723   2.133   3.468  0.1853  0.8471 -0.3285
 8557TIP3    H147086   6.642   2.103   3.428  0.5741  1.7312 -1.8499
 8557TIP3    H247087   6.698   2.161   3.556 -0.6538 -1.3166  0.1895
 8558TIP3   OH247088   3.675   3.914   4.338  0.4744 -0.2671  0.1016
 8558TIP3    H147089   3.674   3.957   4.253 -1.2489 -0.7116 -0.1431
 8558TIP3    H247090   3.582   3.902   4.360  0.8026 -4.0350  0.0312
 8559TIP3   OH247091   4.792   4.721  14.514  0.4557 -0.4856  0.4734
 8559TIP3    H147092   4.854   4.752  14.449  0.0519  0.5068  0.5553
 8559TIP3    H247093   4.772   4.797  14.568 -1.6653 -0.4885 -0.2145
 8560TIP3   OH247094   1.253   2.287  13.495  0.3837  0.0598  0.1288
 8560TIP3    H147095   1.166   2.311  13.528  0.0246  3.6053 -2.7019
 8560TIP3    H247096   1.238   2.210  13.441 -0.6555 -0.3691  0.9848
 8561TIP3   OH247097   3.717   5.535  12.017  0.7371  0.4129 -0.0893
 8561TIP3    H147098   3.637   5.500  12.055  1.2006 -1.0949 -0.4153
 8561TIP3    H247099   3.759   5.459  11.976  2.6657  1.0088  0.6669
 8562TIP3   OH247100   6.694   1.932   1.689 -0.4276  0.2061  0.3411
 8562TIP3    H147101   6.698   1.900   1.598 -1.7213  0.1146  0.3039
 8562TIP3    H247102   6.745   1.868   1.738 -0.6083 -0.3452 -0.1725
 8563TIP3   OH247103   4.667   1.444   3.579  0.0679 -1.0167  0.7174
 8563TIP3    H147104   4.730   1.432   3.508  0.6987  0.6939  0.9404
 8563TIP3    H247105   4.716   1.422   3.658 -0.1269 -1.3096  0.7563
 8564TIP3   OH247106   0.650   2.924   2.836  0.6265  0.2355 -1.2388
 8564TIP3    H147107   0.697   2.846   2.866  0.3459 -0.0208 -1.4554
 8564TIP3    H247108   0.563   2.892   2.814  0.4452  0.6488 -1.1408
 8565TIP3   OH247109   1.291   1.995  14.775 -0.2424  0.1295 -0.0363
 8565TIP3    H147110   1.296   1.899  14.769  1.1758  0.0620  1.5196
 8565TIP3    H247111   1.207   2.017  14.734 -1.3166 -1.9062  0.9122
 8566TIP3   OH247112   6.266   5.713  13.661 -0.0799  0.3161 -0.4934
 8566TIP3    H147113   6.187   5.749  13.621 -0.5780 -1.4788 -1.1923
 8566TIP3    H247114   6.274   5.760  13.745 -1.1065  1.4696 -1.0064
 8567TIP3   OH247115   1.212   2.061  11.769 -0.3832 -0.6933  0.0231
 8567TIP3    H147116   1.120   2.070  11.792 -0.0287  0.2336  1.2083
 8567TIP3    H247117   1.218   2.091  11.678 -1.1480 -0.1520  0.1454
 8568TIP3   OH247118   2.153   4.949  14.774  0.5652  0.4587  0.8577
 8568TIP3    H147119   2.121   4.936  14.863 -1.9246  0.8880  0.0892
 8568TIP3    H247120   2.168   5.043  14.767  0.1093  0.5153  0.6242
 8569TIP3   OH247121   1.303   5.178  13.355  0.3237  0.3276 -0.1087
 8569TIP3    H147122   1.230   5.227  13.395  0.9985  0.9528  0.3907
 8569TIP3    H247123   1.303   5.206  13.264  0.6254  1.1947  0.1436
 8570TIP3   OH247124   6.072   3.892  12.150  0.8445 -0.1936  0.3487
 8570TIP3    H147125   6.017   3.840  12.092  0.2176  1.7781 -0.9555
 8570TIP3    H247126   6.150   3.911  12.097  1.5486 -0.7155  1.1914
 8571TIP3   OH247127   6.784   6.597   3.315 -0.0062  0.1667 -0.0574
 8571TIP3    H147128   6.775   6.502   3.309  0.5244  0.1266 -0.1886
 8571TIP3    H247129   6.869   6.617   3.276 -0.3533  0.7516 -0.5278
 8572TIP3   OH247130   0.892   0.611  13.001 -0.0647  0.0538  0.3092
 8572TIP3    H147131   0.949   0.663  12.945 -0.1395 -0.8779 -0.6541
 8572TIP3    H247132   0.880   0.665  13.079 -0.4813  1.6751 -0.8243
 8573TIP3   OH247133   3.275   1.851   6.053 -0.3713  0.1423  0.5705
 8573TIP3    H147134   3.191   1.871   6.014 -0.6862  0.2515  1.2775
 8573TIP3    H247135   3.324   1.805   5.985 -1.6153 -1.4341  0.6671
 8574TIP3   OH247136   6.344   4.029  13.506  0.4548 -0.2877  0.6397
 8574TIP3    H147137   6.363   4.119  13.478 -0.0502 -0.1926  0.5964
 8574TIP3    H247138   6.348   4.033  13.602 -0.7786  0.0661  0.6923
 8575TIP3   OH247139   5.881   5.554   0.313  0.0416  0.6215 -0.0072
 8575TIP3    H147140   5.920   5.471   0.287 -1.6756  0.1247 -1.1349
 8575TIP3    H247141   5.877   5.550   0.409  1.9433  0.3726  0.0967
 8576TIP3   OH247142   2.848   4.768  16.694 -0.5022 -0.3414 -0.4149
 8576TIP3    H147143   2.756   4.795  16.695 -0.4200 -0.0543 -0.6713
 8576TIP3    H247144   2.896   4.846  16.721 -0.4349 -0.9014  1.1787
 8577TIP3   OH247145   4.489   2.682   0.420 -0.2847 -0.0458  0.4521
 8577TIP3    H147146   4.527   2.750   0.475 -0.8090  0.5843  0.0530
 8577TIP3    H247147   4.468   2.726   0.338  0.1087 -0.8771 -0.1174
 8578TIP3   OH247148   4.160   4.843  14.209 -0.7786  0.3348  0.0159
 8578TIP3    H147149   4.161   4.783  14.135 -3.4911 -0.1246  0.2300
 8578TIP3    H247150   4.097   4.805  14.270  0.6853  1.1885  2.1505
 8579TIP3   OH247151   2.954   3.675  17.048 -0.2178  0.0140 -0.1030
 8579TIP3    H147152   2.861   3.661  17.067 -0.8403  1.1551 -1.9970
 8579TIP3    H247153   2.971   3.765  17.078  0.4734 -0.4245  0.8533
 8580TIP3   OH247154   1.487   3.929  16.933  0.3863  0.7391 -0.2005
 8580TIP3    H147155   1.564   3.928  16.990 -0.0992  0.6061  0.4639
 8580TIP3    H247156   1.413   3.940  16.993 -0.3010 -1.3867 -0.5847
 8581TIP3   OH247157   3.361   4.183  13.249 -0.3708 -0.2551  0.0325
 8581TIP3    H147158   3.435   4.163  13.305 -2.1624 -1.0535  2.2467
 8581TIP3    H247159   3.319   4.099  13.232 -3.4919  0.4663  2.9558
 8582TIP3   OH247160   3.723   1.712  13.739 -0.5595 -0.3708  0.6029
 8582TIP3    H147161   3.669   1.702  13.661 -1.2089 -1.2506  1.1580
 8582TIP3    H247162   3.664   1.697  13.812  0.0474  0.4025  1.2859
 8583TIP3   OH247163   0.636   5.158   1.018 -1.0311 -0.2466 -0.3194
 8583TIP3    H147164   0.589   5.121   1.093 -0.2777 -1.5606 -0.4576
 8583TIP3    H247165   0.718   5.190   1.055 -1.6798  1.3694 -0.2014
 8584TIP3   OH247166   3.892   3.967   0.819 -0.9668 -0.7335 -0.6866
 8584TIP3    H147167   3.959   4.031   0.796 -0.8915 -0.0550  1.2441
 8584TIP3    H247168   3.942   3.889   0.846 -0.7444  0.3485  2.4846
 8585TIP3   OH247169   4.250   0.142   3.597  0.0756 -0.4955  0.8525
 8585TIP3    H147170   4.219   0.076   3.659 -1.4480 -1.9146 -1.2991
 8585TIP3    H247171   4.188   0.215   3.607  0.1553 -0.4912  1.3482
 8586TIP3   OH247172   0.964   2.838  15.887  0.3682  0.0574  0.8206
 8586TIP3    H147173   1.019   2.912  15.913  0.6798 -0.1604  0.7961
 8586TIP3    H247174   0.877   2.858  15.921  0.6563  0.0064  1.5907
 8587TIP3   OH247175   6.671   5.101  14.583  0.9271  0.2207  0.3055
 8587TIP3    H147176   6.607   5.102  14.512 -0.1220  2.1190  1.1982
 8587TIP3    H247177   6.745   5.051  14.548 -0.4192 -0.7685 -1.2978
 8588TIP3   OH247178   1.288   0.851  12.338 -0.1160 -0.3113  0.1434
 8588TIP3    H147179   1.273   0.779  12.399  1.8179 -0.2552  0.7277
 8588TIP3    H247180   1.355   0.818  12.278 -1.3644 -0.0502 -1.4810
 8589TIP3   OH247181   4.271   4.077   4.228 -0.4159  0.6453 -0.3485
 8589TIP3    H147182   4.198   4.127   4.262 -0.0100  0.6878  0.4772
 8589TIP3    H247183   4.234   4.028   4.154 -0.8273  2.0848 -1.1255
 8590TIP3   OH247184   2.922   6.669   3.585 -0.4891  0.3051 -0.0362
 8590TIP3    H147185   2.859   6.599   3.572 -0.9111  0.9877 -1.9074
 8590TIP3    H247186   2.991   6.629   3.638 -2.0572 -0.6746  1.3706
 8591TIP3   OH247187   4.071   5.649  12.242 -0.1320 -0.4206  0.3198
 8591TIP3    H147188   3.993   5.697  12.215 -0.1687 -0.0318  1.0955
 8591TIP3    H247189   4.123   5.641  12.162 -0.1402  0.9006  0.1642
 8592TIP3   OH247190   5.286   0.634  16.297 -0.2968  0.1151 -0.0714
 8592TIP3    H147191   5.366   0.594  16.330  0.5320  0.6249 -1.3854
 8592TIP3    H247192   5.260   0.696  16.365 -0.1433 -0.7514  0.8042
 8593TIP3   OH247193   5.956   4.618   5.325 -0.8870 -0.3694 -0.2269
 8593TIP3    H147194   5.926   4.560   5.395  1.7457 -0.5092  0.8963
 8593TIP3    H247195   6.038   4.579   5.295 -0.9158  0.8108 -2.0030
 8594TIP3   OH247196   6.317   1.826   4.831 -0.7362 -0.2089  0.1787
 8594TIP3    H147197   6.295   1.912   4.865 -0.3113 -0.5496  1.3523
 8594TIP3    H247198   6.242   1.803   4.776 -1.4504  0.3685  0.8732
 8595TIP3   OH247199   4.648   4.348   0.059 -0.0217  0.2713 -0.0688
 8595TIP3    H147200   4.565   4.329   0.015 -0.0247  0.6872 -0.2437
 8595TIP3    H247201   4.624   4.403   0.133 -0.2248 -1.7370  1.4425
 8596TIP3   OH247202   3.153   2.171  17.099 -0.1795  0.2788  0.2107
 8596TIP3    H147203   3.150   2.188  17.194 -2.4798  0.7663  0.1272
 8596TIP3    H247204   3.189   2.083  17.092  0.2764  0.3299  1.5234
 8597TIP3   OH247205   3.725   2.791   3.532 -0.2287 -0.2340  0.7495
 8597TIP3    H147206   3.796   2.801   3.468 -0.4983 -0.5275  0.3944
 8597TIP3    H247207   3.696   2.700   3.521 -1.3422  0.1651  0.1627
 8598TIP3   OH247208   3.565   3.107   3.701  0.7211 -0.6562 -0.3073
 8598TIP3    H147209   3.656   3.085   3.719  1.0806  0.6718 -0.4074
 8598TIP3    H247210   3.558   3.200   3.722 -0.6857 -0.8052 -0.0402
 8599TIP3   OH247211   4.092   0.742   6.249 -0.0511 -0.1294 -0.1986
 8599TIP3    H147212   4.014   0.688   6.259 -0.5050  0.4828 -0.4172
 8599TIP3    H247213   4.102   0.786   6.333  0.3430 -0.5826 -0.0064
 8600TIP3   OH247214   3.591   2.522   2.268 -0.7225  0.0539 -0.7098
 8600TIP3    H147215   3.519   2.583   2.250 -1.9232 -1.2382 -0.4769
 8600TIP3    H247216   3.548   2.436   2.273  1.1721 -1.1656 -3.2162
 8601TIP3   OH247217   3.775   1.721  16.714 -0.6419 -0.0928 -0.0907
 8601TIP3    H147218   3.754   1.783  16.784 -1.3453 -0.4729  0.0422
 8601TIP3    H247219   3.792   1.776  16.638  1.1745  0.3854  0.6102
 8602TIP3   OH247220   2.129   4.713  12.155  0.0518 -0.1441  0.3586
 8602TIP3    H147221   2.099   4.802  12.139  1.4905 -0.2339 -4.1462
 8602TIP3    H247222   2.222   4.723  12.177  0.2203 -0.5462 -0.1739
 8603TIP3   OH247223   2.173   5.853   2.119  0.1736  0.1967 -0.6849
 8603TIP3    H147224   2.157   5.898   2.036  1.2795  2.9806  0.4824
 8603TIP3    H247225   2.163   5.921   2.186 -0.2143 -1.8351  1.4625
 8604TIP3   OH247226   0.222   3.511   3.214  0.2920  0.4409 -0.1621
 8604TIP3    H147227   0.144   3.565   3.207 -0.9362 -1.2903 -0.5556
 8604TIP3    H247228   0.234   3.475   3.126 -0.7899 -2.3080  0.7038
 8605TIP3   OH247229   6.043   5.741  11.084  0.1384 -0.4287  0.0376
 8605TIP3    H147230   5.948   5.751  11.080  0.0792 -1.1952 -1.9159
 8605TIP3    H247231   6.057   5.662  11.137 -0.1780  0.6663  1.8382
 8606TIP3   OH247232   2.393   4.670   3.112 -0.5114 -0.8836  0.3034
 8606TIP3    H147233   2.465   4.658   3.173  0.5828 -1.9322 -1.1367
 8606TIP3    H247234   2.417   4.746   3.061 -0.3293 -1.3256 -0.2814
 8607TIP3   OH247235   3.233   3.822   1.149 -0.4241 -0.1058  0.0391
 8607TIP3    H147236   3.302   3.760   1.173  0.5241  0.7189 -0.5068
 8607TIP3    H247237   3.204   3.859   1.233  1.0813  0.8680  0.1668
 8608TIP3   OH247238   2.571   6.202  11.060 -0.7668 -0.2258  0.2791
 8608TIP3    H147239   2.607   6.290  11.071 -0.3206 -0.5207  1.3502
 8608TIP3    H247240   2.478   6.211  11.081 -0.8564  0.0990 -0.2317
 8609TIP3   OH247241   4.366   6.236  11.668 -0.2900 -0.1168  0.4628
 8609TIP3    H147242   4.312   6.312  11.646 -0.4937 -0.0458  1.1595
 8609TIP3    H247243   4.395   6.253  11.758 -1.3102 -1.4056  1.0681
 8610TIP3   OH247244   6.563   3.681  14.873  0.0659  0.5286  0.0405
 8610TIP3    H147245   6.596   3.710  14.788 -0.1224 -0.9584 -0.5710
 8610TIP3    H247246   6.627   3.616  14.902 -0.4208  0.2683  0.5438
 8611TIP3   OH247247   3.773   3.727  14.311  0.5492 -0.0875 -0.2125
 8611TIP3    H147248   3.737   3.816  14.317  1.3600  0.2478 -0.0960
 8611TIP3    H247249   3.858   3.739  14.267  1.2900 -0.6154  1.0342
 8612TIP3   OH247250   4.327   6.493   0.242  0.5703 -0.1442 -0.3484
 8612TIP3    H147251   4.282   6.568   0.204  0.4081  0.0749  0.2614
 8612TIP3    H247252   4.413   6.493   0.200  0.5320  0.3199 -0.4276
 8613TIP3   OH247253   5.962   3.525   1.088 -0.0831  0.1199 -0.1874
 8613TIP3    H147254   6.014   3.454   1.049 -0.9381 -0.0418 -1.0619
 8613TIP3    H247255   6.025   3.574   1.142  0.4299 -1.5569  0.8061
 8614TIP3   OH247256   0.952   1.288  14.307 -0.5096  0.3058 -0.0358
 8614TIP3    H147257   0.987   1.203  14.280  0.8200  0.7397  0.2320
 8614TIP3    H247258   0.871   1.268  14.353 -0.9554 -0.7018 -1.2021
 8615TIP3   OH247259   6.705   2.438   1.752  0.6946 -0.5077 -0.2697
 8615TIP3    H147260   6.616   2.465   1.770  0.6265 -1.3398  0.8146
 8615TIP3    H247261   6.698   2.377   1.679  0.3559 -0.6651 -0.1062
 8616TIP3   OH247262   1.157   4.550  15.227  0.1823 -0.2474 -0.1972
 8616TIP3    H147263   1.149   4.635  15.269 -0.5260 -0.7451  0.7206
 8616TIP3    H247264   1.124   4.488  15.292 -0.3295 -1.1137 -1.2431
 8617TIP3   OH247265   1.031   2.415  11.675  0.0355 -0.6246 -0.2525
 8617TIP3    H147266   0.955   2.405  11.618 -0.5819  0.2091  0.4076
 8617TIP3    H247267   1.106   2.407  11.615 -0.5951  0.5860 -1.2655
 8618TIP3   OH247268   3.932   2.443   3.761  0.0665 -0.0887 -0.1415
 8618TIP3    H147269   3.979   2.416   3.840 -0.0496 -1.9405 -0.6723
 8618TIP3    H247270   3.885   2.365   3.733  0.0232  0.5636 -1.9873
 8619TIP3   OH247271   4.195   5.753   2.985  0.0729  0.3175  0.5099
 8619TIP3    H147272   4.259   5.798   2.930 -1.1874  2.0075  0.3336
 8619TIP3    H247273   4.246   5.721   3.060  1.7232 -1.5463 -1.3023
 8620TIP3   OH247274   3.406   1.291   5.189 -0.2335  0.1671  0.1202
 8620TIP3    H147275   3.319   1.331   5.196 -0.0931  0.3219  1.0723
 8620TIP3    H247276   3.460   1.358   5.146 -1.3987 -1.2512 -4.0244
 8621TIP3   OH247277   2.074   2.431   2.313 -0.3324 -0.2408  0.2370
 8621TIP3    H147278   2.079   2.379   2.233 -1.7394 -2.0732  1.2614
 8621TIP3    H247279   2.153   2.409   2.361 -1.0292 -1.7392  0.7753
 8622TIP3   OH247280   0.003   0.814  11.608 -0.3106 -0.7190  0.0304
 8622TIP3    H147281  -0.037   0.872  11.543  1.6791  1.4952  0.6284
 8622TIP3    H247282  -0.038   0.729  11.593 -2.1744  0.4295 -2.0208
 8623TIP3   OH247283   5.476   5.427   4.117 -0.1102  0.1813  0.0463
 8623TIP3    H147284   5.503   5.434   4.208 -0.2889 -0.1601  0.1254
 8623TIP3    H247285   5.544   5.474   4.068  0.0032  0.3321  0.3504
 8624TIP3   OH247286   2.890   1.425  13.142 -0.1465  0.4701 -0.0487
 8624TIP3    H147287   2.837   1.496  13.104 -0.0661  0.1767 -0.7269
 8624TIP3    H247288   2.918   1.374  13.066  0.7096  0.3431  0.3459
 8625TIP3   OH247289   1.919   5.843   1.780 -0.1965 -0.2123 -0.2392
 8625TIP3    H147290   1.908   5.857   1.687  0.5919  0.2126 -0.2748
 8625TIP3    H247291   1.995   5.896   1.804  1.9046 -3.0812 -0.0687
 8626TIP3   OH247292   3.928   1.088   3.454  0.2969 -0.3689  0.3580
 8626TIP3    H147293   4.004   1.032   3.469  1.5641  1.2072  0.1654
 8626TIP3    H247294   3.963   1.177   3.457 -1.8913  0.5292  2.2382
 8627TIP3   OH247295   6.369   4.409  11.141 -0.3326 -0.1112 -1.1687
 8627TIP3    H147296   6.453   4.371  11.167 -0.7610 -0.1092  0.2872
 8627TIP3    H247297   6.304   4.358  11.189 -1.2004 -0.2527 -2.4517
 8628TIP3   OH247298   1.094   4.967  12.444 -0.1351 -0.1954  0.2071
 8628TIP3    H147299   1.041   5.019  12.505  0.7056 -0.3275  1.0782
 8628TIP3    H247300   1.035   4.898  12.414 -1.1803  1.0485 -0.7362
 8629TIP3   OH247301   2.871   6.401   1.676 -0.0667  0.7167 -0.0574
 8629TIP3    H147302   2.794   6.388   1.621 -1.0951 -0.2999  1.5399
 8629TIP3    H247303   2.864   6.491   1.707 -2.3076 -0.1798  2.4067
 8630TIP3   OH247304   4.008   0.165   3.372  0.2761 -0.1715  0.0687
 8630TIP3    H147305   3.991   0.133   3.283 -3.8769  0.2841  0.5100
 8630TIP3    H247306   4.030   0.257   3.361  1.2520 -0.4497 -0.5012
 8631TIP3   OH247307   4.748   4.821   5.215 -0.5363 -0.0140  0.3135
 8631TIP3    H147308   4.694   4.810   5.136 -1.2524 -0.1851  0.8150
 8631TIP3    H247309   4.809   4.747   5.213 -1.0914 -0.4762  0.3446
 8632TIP3   OH247310   5.393   4.580   2.240 -0.0684 -0.0222  0.0100
 8632TIP3    H147311   5.367   4.569   2.331  0.4843 -0.7232  0.0904
 8632TIP3    H247312   5.324   4.635   2.202  0.4255  1.5072  1.1944
 8633TIP3   OH247313   5.400   3.418   1.071 -0.3978  0.0837  0.4001
 8633TIP3    H147314   5.430   3.481   1.135 -1.4782  0.3388  0.6837
 8633TIP3    H247315   5.313   3.450   1.045 -0.3289 -0.4734 -0.5559
 8634TIP3   OH247316   0.093   1.640  15.984  0.3641  0.4903 -0.1978
 8634TIP3    H147317   0.065   1.612  15.896  1.0373  0.4640 -0.4141
 8634TIP3    H247318   0.121   1.731  15.973 -1.6740  1.2450  0.4757
 8635TIP3   OH247319   0.914   1.413  11.675  0.7707  0.1350  0.0701
 8635TIP3    H147320   0.870   1.331  11.654 -0.5701  0.2772  2.0686
 8635TIP3    H247321   0.911   1.463  11.593 -2.1720 -0.1834 -0.1460
 8636TIP3   OH247322   4.662   2.254   3.526  0.2714  0.9245  0.3656
 8636TIP3    H147323   4.747   2.288   3.551  0.7376  0.3956 -0.4466
 8636TIP3    H247324   4.671   2.159   3.533  0.1469  0.8026 -0.9001
 8637TIP3   OH247325   0.964   3.337   5.445 -0.0610 -0.5042 -0.8077
 8637TIP3    H147326   0.943   3.245   5.461 -2.8802  0.3630  1.0492
 8637TIP3    H247327   1.028   3.359   5.513 -1.2641 -0.4895  0.3451
 8638TIP3   OH247328   0.276   2.693  12.018  0.4143 -0.8715 -0.6303
 8638TIP3    H147329   0.311   2.708  11.930  1.4661  1.0603  0.0544
 8638TIP3    H247330   0.335   2.629  12.057  1.3636 -0.0023 -0.5818
 8639TIP3   OH247331   0.336   5.010  16.210  0.0507  0.2842  0.3054
 8639TIP3    H147332   0.368   5.080  16.266 -2.1774  1.6749 -0.0165
 8639TIP3    H247333   0.347   5.044  16.121  1.9704 -1.1953 -0.0983
 8640TIP3   OH247334   5.864   3.275  12.805  0.3260  0.2502 -0.1790
 8640TIP3    H147335   5.817   3.354  12.779 -0.1514 -0.2260 -0.7634
 8640TIP3    H247336   5.938   3.270  12.745  3.0349  2.6651  2.5400
 8641TIP3   OH247337   6.518   2.523  11.090 -0.0120 -0.0690  0.3041
 8641TIP3    H147338   6.569   2.497  11.013 -2.7733 -0.9958 -1.3406
 8641TIP3    H247339   6.435   2.554  11.054 -0.2510  2.4963  2.7882
 8642TIP3   OH247340   5.344   3.822  13.918 -0.1300  0.0012  0.1426
 8642TIP3    H147341   5.353   3.796  13.826 -0.6243  1.0091 -0.2000
 8642TIP3    H247342   5.304   3.746  13.961 -0.9328 -0.0720 -0.7078
 8643TIP3   OH247343   0.859   0.999   0.009  0.0777 -0.1130 -0.0863
 8643TIP3    H147344   0.829   0.948   0.085  0.6411  0.1991  0.3529
 8643TIP3    H247345   0.930   0.947  -0.028 -0.4818 -0.4790 -0.6741
 8644TIP3   OH247346   1.437   5.819  16.540  0.6200  0.0013 -0.7761
 8644TIP3    H147347   1.506   5.871  16.500  1.5149  1.5830  2.5204
 8644TIP3    H247348   1.482   5.742  16.576  0.5813  0.5522  0.5234
 8645TIP3   OH247349   3.152   2.083   4.370  0.0630 -0.4356 -0.3947
 8645TIP3    H147350   3.088   2.021   4.404  0.4335 -2.1733 -2.6371
 8645TIP3    H247351   3.136   2.085   4.276  1.5881  1.1303 -0.6781
 8646TIP3   OH247352   6.069   4.276  15.288  0.6246  0.4064 -0.1974
 8646TIP3    H147353   6.078   4.371  15.300 -2.5014  0.8034 -0.1909
 8646TIP3    H247354   6.068   4.241  15.377 -0.8318  0.7337 -0.0591
 8647TIP3   OH247355   6.028   2.123  11.355  0.1128  0.4890  0.0109
 8647TIP3    H147356   5.992   2.147  11.269  0.4499  1.6066  0.1598
 8647TIP3    H247357   5.982   2.181  11.416 -1.2188 -1.3179  0.8003
 8648TIP3   OH247358   1.571   1.408  11.622 -0.0190 -0.1994 -0.0551
 8648TIP3    H147359   1.619   1.460  11.557 -0.4675 -1.4602 -1.4410
 8648TIP3    H247360   1.601   1.442  11.706  1.1470  0.9793 -0.8996
 8649TIP3   OH247361   4.136   3.818  10.950 -0.2114 -0.2440 -0.2981
 8649TIP3    H147362   4.073   3.821  11.022  0.3291 -0.6292  0.1997
 8649TIP3    H247363   4.127   3.903  10.906 -2.3694 -0.9420 -1.3663
 8650TIP3   OH247364   1.426   0.265   4.788  0.0451 -0.0580 -0.0347
 8650TIP3    H147365   1.373   0.341   4.812 -1.9537 -1.2349 -0.4579
 8650TIP3    H247366   1.495   0.301   4.733 -0.5195  1.5262  0.2275
 8651TIP3   OH247367   3.073   1.218  13.257 -0.1012 -0.2472 -0.1785
 8651TIP3    H147368   3.064   1.123  13.265 -1.1247 -0.1644 -0.2776
 8651TIP3    H247369   3.035   1.238  13.171 -1.4487  0.4408  0.5553
 8652TIP3   OH247370   4.987   2.667  14.618 -0.8230 -0.6688  0.4376
 8652TIP3    H147371   4.897   2.700  14.616 -0.9537 -1.0034 -2.0279
 8652TIP3    H247372   5.023   2.689  14.532  0.4376 -3.1920  0.2121
 8653TIP3   OH247373   5.200   1.082   2.665  0.1325 -0.3352 -0.0283
 8653TIP3    H147374   5.110   1.056   2.685 -0.7425  2.6538  0.4179
 8653TIP3    H247375   5.193   1.132   2.584  1.4251 -0.1346 -0.0283
 8654TIP3   OH247376   3.276   3.092  12.468  0.4263 -0.9567 -0.6881
 8654TIP3    H147377   3.355   3.078  12.520 -0.7105 -1.0075  1.1233
 8654TIP3    H247378   3.267   3.012  12.417  2.0692 -0.5337 -1.6869
 8655TIP3   OH247379   3.275   3.669  13.895 -0.0816 -0.1415 -0.1107
 8655TIP3    H147380   3.361   3.669  13.855 -0.3347  0.2907 -0.6731
 8655TIP3    H247381   3.285   3.619  13.976 -0.0855 -3.1976 -1.8445
 8656TIP3   OH247382   1.704   4.998   1.138 -0.1473 -0.3595  0.0028
 8656TIP3    H147383   1.714   5.067   1.204 -0.3420 -1.3000  1.0469
 8656TIP3    H247384   1.689   4.918   1.189 -1.6185 -0.9067 -1.2126
 8657TIP3   OH247385   3.811   2.859   0.827  0.7002 -0.4655 -0.1934
 8657TIP3    H147386   3.772   2.777   0.796 -0.7629  0.4839 -0.9988
 8657TIP3    H247387   3.884   2.831   0.883  0.0641 -2.3121 -0.2006
 8658TIP3   OH247388   3.685   3.569  16.235  0.7586 -0.0699 -0.0292
 8658TIP3    H147389   3.713   3.546  16.324 -2.3176  0.9097  1.3366
 8658TIP3    H247390   3.709   3.493  16.182  3.5698 -0.2752  1.3730
 8659TIP3   OH247391   3.366   6.349  13.914 -0.6212  0.1605 -0.2976
 8659TIP3    H147392   3.426   6.285  13.877 -0.6039  0.1750 -0.2948
 8659TIP3    H247393   3.308   6.297  13.971  1.1889  0.5154  2.0049
 8660TIP3   OH247394   0.329   3.193   1.276  0.0847 -0.5198 -0.0366
 8660TIP3    H147395   0.345   3.273   1.225 -1.6752  0.2171  0.4844
 8660TIP3    H247396   0.338   3.221   1.367  0.1296 -1.0862  0.1358
 8661TIP3   OH247397   3.847   3.416   5.089 -0.2306 -0.8029  0.1131
 8661TIP3    H147398   3.933   3.377   5.072  0.5897  0.9006  0.1192
 8661TIP3    H247399   3.863   3.483   5.156 -1.2556  0.5356 -0.9034
 8662TIP3   OH247400   3.953   2.277  13.140 -0.3027 -0.5189  0.3090
 8662TIP3    H147401   4.022   2.270  13.207  0.0964 -0.2695 -0.0707
 8662TIP3    H247402   3.938   2.371  13.131 -1.1312 -0.5886  0.8209
 8663TIP3   OH247403   5.251   1.594  15.306  0.0303 -0.1492  0.5152
 8663TIP3    H147404   5.210   1.649  15.372 -2.0703  0.6222 -1.3049
 8663TIP3    H247405   5.241   1.504  15.339 -1.9175  0.1430  0.8064
 8664TIP3   OH247406   0.311   1.670   4.263 -0.3805 -0.0908 -0.0313
 8664TIP3    H147407   0.387   1.723   4.284 -1.4333  0.6986  2.0126
 8664TIP3    H247408   0.335   1.581   4.290 -0.6620  0.4100  1.9972
 8665TIP3   OH247409   0.797   4.739   1.833  0.0999  0.5239 -0.0076
 8665TIP3    H147410   0.772   4.805   1.898 -1.1371  0.2353 -0.1687
 8665TIP3    H247411   0.714   4.709   1.796  0.6885 -0.5772 -0.4811
 8666TIP3   OH247412   6.255   2.183   0.223 -0.2213  0.0350  0.1026
 8666TIP3    H147413   6.166   2.148   0.227 -1.0689  1.9414 -0.8375
 8666TIP3    H247414   6.273   2.214   0.311 -0.7426  0.2159  0.1482
 8667TIP3   OH247415   1.952   6.795   0.524 -0.0641 -0.0957 -0.7133
 8667TIP3    H147416   1.967   6.702   0.538  1.2404 -0.1811 -2.4074
 8667TIP3    H247417   2.019   6.839   0.576 -0.9447 -0.0371  0.4305
 8668TIP3   OH247418   5.848   2.216  13.491  0.1079  0.1426  0.1775
 8668TIP3    H147419   5.835   2.164  13.570  0.9539 -0.8093 -0.2872
 8668TIP3    H247420   5.921   2.275  13.513  0.1436  0.0869  0.2083
 8669TIP3   OH247421   2.374   3.364  13.712 -0.3320  0.4056  0.0790
 8669TIP3    H147422   2.305   3.389  13.774  0.3318  1.1412  0.5365
 8669TIP3    H247423   2.369   3.430  13.643  0.0341  0.5781  0.2138
 8670TIP3   OH247424   6.580   6.293   4.989  0.0235  0.1114 -0.0628
 8670TIP3    H147425   6.616   6.361   4.932 -1.4453 -0.1973 -1.4356
 8670TIP3    H247426   6.625   6.213   4.961  0.1211  0.1504 -0.0159
 8671TIP3   OH247427   0.153   1.484   3.567  0.1096  0.3573  0.0694
 8671TIP3    H147428   0.169   1.575   3.592  0.9433  0.0183  0.7833
 8671TIP3    H247429   0.240   1.447   3.553 -0.1902 -0.5317  0.5097
 8672TIP3   OH247430   5.278   1.321  16.065  0.0610 -0.1551 -0.5366
 8672TIP3    H147431   5.295   1.231  16.093 -3.2858 -1.3065 -1.7518
 8672TIP3    H247432   5.187   1.321  16.036 -0.1538  3.7112 -0.4297
 8673TIP3   OH247433   1.054   6.296  13.658 -0.4728  0.1052 -0.1338
 8673TIP3    H147434   1.033   6.304  13.564 -2.9343 -2.4918  0.0439
 8673TIP3    H247435   1.079   6.384  13.684 -0.9614  1.2082 -2.9735
 8674TIP3   OH247436   6.031   1.355   0.386 -0.1313 -0.3415  0.2272
 8674TIP3    H147437   5.938   1.341   0.403 -0.1129  1.7830  2.5809
 8674TIP3    H247438   6.039   1.347   0.291 -2.8996  0.3835 -0.1511
 8675TIP3   OH247439   5.939   2.105   3.472 -0.0299  0.2541  0.2502
 8675TIP3    H147440   5.959   2.149   3.555 -1.8104 -0.9151  1.3694
 8675TIP3    H247441   6.009   2.041   3.462 -0.8332 -0.9794  1.9524
 8676TIP3   OH247442   6.389   3.317   6.337 -0.0237  0.7601  0.1965
 8676TIP3    H147443   6.398   3.226   6.309  3.3927  0.8807  0.3980
 8676TIP3    H247444   6.310   3.318   6.391 -2.2666 -1.1948 -2.7454
 8677TIP3   OH247445   5.138   1.271  13.484  0.3092 -0.1248  0.2309
 8677TIP3    H147446   5.199   1.329  13.438 -0.1427 -0.3184 -0.6386
 8677TIP3    H247447   5.177   1.184  13.477 -1.0703 -0.6287 -2.2508
 8678TIP3   OH247448   3.532   1.819   5.426  0.4389  1.0490  0.0662
 8678TIP3    H147449   3.559   1.909   5.441  1.1089  0.7714  0.5446
 8678TIP3    H247450   3.476   1.797   5.501  0.0354  1.1530 -0.1975
 8679TIP3   OH247451   3.651   5.951   0.970 -0.1272  0.1893  0.0296
 8679TIP3    H147452   3.670   5.946   1.064  0.5870 -0.7680 -0.1566
 8679TIP3    H247453   3.717   6.012   0.936 -0.4391  0.6028  0.1525
 8680TIP3   OH247454   0.926   3.177   0.174  0.0158 -0.1693  0.4611
 8680TIP3    H147455   0.847   3.230   0.188  1.1817  1.4180  1.2993
 8680TIP3    H247456   0.933   3.170   0.079 -0.3875  0.8742  0.3370
 8681TIP3   OH247457   3.657   4.735   0.004  0.3855  0.1463 -0.2018
 8681TIP3    H147458   3.669   4.746  -0.090  0.1745 -0.2029 -0.2719
 8681TIP3    H247459   3.667   4.641   0.019 -1.9314 -0.1784 -0.2422
 8682TIP3   OH247460   4.799   5.124   2.481  0.1600 -0.3706 -0.3309
 8682TIP3    H147461   4.783   5.041   2.437  0.3723 -0.3859 -0.3803
 8682TIP3    H247462   4.880   5.157   2.442  0.9090 -0.8715  0.7518
 8683TIP3   OH247463   0.194   4.558  14.857 -0.3886  0.1260  0.1678
 8683TIP3    H147464   0.219   4.643  14.820 -0.6467  0.0192 -0.2574
 8683TIP3    H247465   0.226   4.561  14.947  4.1527 -1.2607 -1.1340
 8684TIP3   OH247466   0.660   0.690  16.677  0.1397 -0.4018  0.2513
 8684TIP3    H147467   0.672   0.647  16.592 -1.0959  0.4450 -0.3893
 8684TIP3    H247468   0.571   0.726  16.673 -0.9459 -2.5138  2.9138
 8685TIP3   OH247469   0.302   1.583  14.393  0.0393 -0.1871  0.2621
 8685TIP3    H147470   0.244   1.550  14.324  0.9093 -1.2014 -0.0176
 8685TIP3    H247471   0.242   1.620  14.459 -0.8589 -0.2485 -0.4952
 8686TIP3   OH247472   0.544   2.878   1.989  0.2171 -0.2379  0.0735
 8686TIP3    H147473   0.504   2.811   2.044 -1.3172  2.1424  2.0358
 8686TIP3    H247474   0.497   2.871   1.906  1.0598 -2.4178 -0.3112
 8687TIP3   OH247475   1.320   0.830   2.282 -0.5508  0.0952 -0.2060
 8687TIP3    H147476   1.246   0.881   2.248 -0.3735  0.7414  0.3487
 8687TIP3    H247477   1.291   0.800   2.369  0.4462  1.8209  0.7820
 8688TIP3   OH247478   4.772   4.592  15.249 -0.1323  0.2554  0.3666
 8688TIP3    H147479   4.801   4.683  15.256 -3.8154  1.6945 -0.5571
 8688TIP3    H247480   4.833   4.551  15.188  2.2915  1.7163  1.6581
 8689TIP3   OH247481   0.667   4.398  13.038  0.5865 -0.5185 -0.2139
 8689TIP3    H147482   0.720   4.319  13.031 -0.2078 -1.1807  0.9137
 8689TIP3    H247483   0.661   4.415  13.132  0.6474  0.8312 -0.4280
 8690TIP3   OH247484   4.788   4.532  14.829  0.4368 -0.2841  0.0132
 8690TIP3    H147485   4.847   4.605  14.843 -0.1531  0.0354  0.9631
 8690TIP3    H247486   4.719   4.543  14.895  0.7145 -2.0903  0.6765
 8691TIP3   OH247487   6.783   1.452   4.026 -0.0367  0.4829 -0.2297
 8691TIP3    H147488   6.845   1.499   3.969 -1.0719  0.5649 -1.3443
 8691TIP3    H247489   6.766   1.370   3.980  1.2397 -0.7336  1.3780
 8692TIP3   OH247490   3.504   2.250   4.674  0.2530 -0.5572  0.6603
 8692TIP3    H147491   3.519   2.186   4.744 -0.9673 -1.8278 -0.1825
 8692TIP3    H247492   3.459   2.201   4.606  1.3838  0.6621 -1.0344
 8693TIP3   OH247493   5.112   5.975  16.884  0.0688  0.8248  0.3539
 8693TIP3    H147494   5.206   5.977  16.898 -0.0546 -0.7073  1.6616
 8693TIP3    H247495   5.100   6.014  16.797  2.5437 -4.1926 -2.7437
 8694TIP3   OH247496   5.041   0.641  11.732  0.7534  0.1897  0.4847
 8694TIP3    H147497   5.061   0.713  11.791 -0.6280  0.7659  0.3007
 8694TIP3    H247498   4.967   0.596  11.774  1.4827 -1.0212  0.5111
 8695TIP3   OH247499   5.852   1.258  12.670  0.2519  0.4363  0.0248
 8695TIP3    H147500   5.889   1.336  12.710  1.5901 -1.0196  1.8067
 8695TIP3    H247501   5.916   1.232  12.603  1.0458 -0.4454  1.0962
 8696TIP3   OH247502   5.712   5.835  15.326  0.7277 -0.0985 -0.2401
 8696TIP3    H147503   5.706   5.741  15.344 -1.9081 -0.0986 -0.6448
 8696TIP3    H247504   5.730   5.840  15.232  1.7190 -0.1848 -0.0573
 8697TIP3   OH247505   2.797   6.239  12.688  0.1232 -0.5610  0.5275
 8697TIP3    H147506   2.786   6.148  12.660  0.1287 -0.2209 -0.6376
 8697TIP3    H247507   2.735   6.288  12.633  1.4891  0.3702 -0.2319
 8698TIP3   OH247508   6.140   5.103  13.074 -0.2358  0.0057 -0.3706
 8698TIP3    H147509   6.182   5.161  13.009 -0.3054  0.4087 -0.0623
 8698TIP3    H247510   6.213   5.073  13.129 -0.3404  0.7806  0.2234
 8699TIP3   OH247511   0.986   3.916  11.420 -0.0044 -0.0698 -0.4495
 8699TIP3    H147512   1.010   3.873  11.338 -0.7961  0.0081 -0.7264
 8699TIP3    H247513   0.931   3.990  11.394  2.1081  1.7368 -0.0604
 8700TIP3   OH247514   1.649   1.229   2.569  0.1522  0.1881  0.2312
 8700TIP3    H147515   1.569   1.191   2.606 -0.0429  1.0752  0.7626
 8700TIP3    H247516   1.623   1.259   2.482  0.4787 -1.4465 -0.4664
 8701TIP3   OH247517   2.460   6.396  15.759 -0.3244  0.6149  0.3797
 8701TIP3    H147518   2.501   6.468  15.710  1.0835  0.1065  0.7673
 8701TIP3    H247519   2.396   6.440  15.815  0.1686  1.5344  0.2544
 8702TIP3   OH247520   5.044   6.678  14.795  0.2499 -0.1376 -0.1923
 8702TIP3    H147521   5.116   6.740  14.788  1.9397 -1.9011  0.5263
 8702TIP3    H247522   5.053   6.641  14.883  0.3379 -2.5134 -1.1294
 8703TIP3   OH247523   3.997   0.201   1.284 -0.0901  0.6497  0.0053
 8703TIP3    H147524   3.996   0.108   1.259 -1.0454 -0.1888  2.7899
 8703TIP3    H247525   4.085   0.231   1.262 -0.1385 -0.5419 -2.0675
 8704TIP3   OH247526   5.531   0.438   3.860 -0.1296 -0.0422  1.2334
 8704TIP3    H147527   5.495   0.352   3.881  1.0110 -0.1762  2.8227
 8704TIP3    H247528   5.461   0.499   3.886 -1.5227 -0.4655 -1.2204
 8705TIP3   OH247529   3.071   2.254  14.950  0.4955  0.1008 -0.4241
 8705TIP3    H147530   2.979   2.227  14.955  1.0663 -1.7800  1.1687
 8705TIP3    H247531   3.078   2.299  14.865 -1.3995 -1.6616 -1.6142
 8706TIP3   OH247532   0.270   6.285  15.924 -0.2964  0.0995  0.8150
 8706TIP3    H147533   0.185   6.308  15.887 -1.7078  1.3009  4.3897
 8706TIP3    H247534   0.330   6.352  15.891 -1.7685  1.9256  1.6879
 8707TIP3   OH247535   0.715   6.058   6.431  0.1101  0.3885  0.4366
 8707TIP3    H147536   0.752   5.978   6.392  0.1023  0.7867 -0.3940
 8707TIP3    H247537   0.750   6.059   6.520 -0.0834 -0.6702  0.5423
 8708TIP3   OH247538   6.486   0.561   4.959 -0.0730 -0.5620 -0.4741
 8708TIP3    H147539   6.464   0.576   4.867  0.9031  0.0284 -0.6334
 8708TIP3    H247540   6.578   0.535   4.957 -0.0757 -0.6475  0.3287
 8709TIP3   OH247541   5.266   2.487  16.815 -0.2561  0.1854 -0.1201
 8709TIP3    H147542   5.228   2.571  16.791 -0.2878  0.1373 -0.2371
 8709TIP3    H247543   5.360   2.497  16.803 -0.2971  0.0676 -0.5453
 8710TIP3   OH247544   6.569   6.278  15.463 -0.0152  0.5976 -0.1558
 8710TIP3    H147545   6.626   6.201  15.475 -2.4857 -1.0122  2.4194
 8710TIP3    H247546   6.489   6.243  15.424 -0.9324  1.9882  0.3923
 8711TIP3   OH247547   2.695   3.324   2.838 -0.1415 -0.1176  0.3332
 8711TIP3    H147548   2.762   3.355   2.776 -0.2519  0.8409  0.6721
 8711TIP3    H247549   2.667   3.240   2.803  0.2263  0.1332 -0.5935
 8712TIP3   OH247550   4.388   2.068  11.941  0.0506  0.3006  0.5158
 8712TIP3    H147551   4.358   2.092  11.853  0.2198 -2.3389 -0.3429
 8712TIP3    H247552   4.429   2.148  11.975 -2.0183  2.0655 -0.8587
 8713TIP3   OH247553   1.170   5.154  14.185 -0.0640  0.4566 -0.7159
 8713TIP3    H147554   1.105   5.181  14.250  0.5820 -0.4626  0.3367
 8713TIP3    H247555   1.250   5.200  14.210  0.3982 -0.5085 -0.3677
 8714TIP3   OH247556   0.545   5.925   0.542  0.5398  0.2864 -0.1464
 8714TIP3    H147557   0.547   5.979   0.621  1.2961  0.7917 -0.5089
 8714TIP3    H247558   0.501   5.845   0.570  0.2798  0.6915  0.6415
 8715TIP3   OH247559   0.173   0.838   5.932 -0.2390 -0.3028 -0.4431
 8715TIP3    H147560   0.172   0.815   5.839  0.0833 -0.5816 -0.3806
 8715TIP3    H247561   0.259   0.877   5.945  0.0035 -0.9359 -0.1054
 8716TIP3   OH247562   3.140   1.745   4.795  0.0758  0.2433 -0.1094
 8716TIP3    H147563   3.116   1.654   4.779 -1.8134  0.5926  0.5584
 8716TIP3    H247564   3.176   1.774   4.711 -0.3035 -0.8060 -0.6636
 8717TIP3   OH247565   1.046   5.072   2.539 -0.6134 -0.1269  0.5577
 8717TIP3    H147566   1.092   5.106   2.616 -0.8026 -0.7988  0.9773
 8717TIP3    H247567   1.043   4.977   2.553 -2.7733 -0.0545  0.9199
 8718TIP3   OH247568   4.358   5.026   2.810 -0.0245  0.0819  0.1438
 8718TIP3    H147569   4.323   5.110   2.841  0.2091  0.3675 -0.3501
 8718TIP3    H247570   4.394   4.985   2.888  1.4078  1.2094  0.1171
 8719TIP3   OH247571   2.698   5.750   5.708  0.3054 -0.4302  0.5552
 8719TIP3    H147572   2.755   5.783   5.639  0.9856 -1.1136  0.7780
 8719TIP3    H247573   2.750   5.682   5.752 -0.5017 -0.7273  1.0723
 8720TIP3   OH247574   0.238   1.023   3.162 -0.3253  0.0727 -0.1812
 8720TIP3    H147575   0.269   0.933   3.168  1.4791  0.7499  2.8202
 8720TIP3    H247576   0.143   1.014   3.148 -0.2254 -2.2862  0.1929
 8721TIP3   OH247577   2.365   3.003   3.627 -0.0820  0.8947 -0.0107
 8721TIP3    H147578   2.368   2.978   3.535  0.7359 -0.2592  0.3098
 8721TIP3    H247579   2.373   2.921   3.675 -1.7825  1.3242  1.1203
 8722TIP3   OH247580   6.464   3.032   4.665 -0.5074 -0.0642  0.4731
 8722TIP3    H147581   6.482   3.088   4.741 -0.6080 -0.6977  0.9687
 8722TIP3    H247582   6.546   3.029   4.616 -0.8809  1.6818 -0.3461
 8723TIP3   OH247583   1.006   4.501   4.692  0.3964  0.1125  0.3454
 8723TIP3    H147584   1.005   4.569   4.625  1.8869 -0.1378  0.0269
 8723TIP3    H247585   1.013   4.419   4.644 -0.7988 -0.2388  0.7464
 8724TIP3   OH247586   3.752   5.462   3.880 -0.1592  1.0211 -0.1667
 8724TIP3    H147587   3.836   5.499   3.909 -0.4925  2.1071 -0.5093
 8724TIP3    H247588   3.704   5.445   3.962  0.2145  0.8273  0.0156
 8725TIP3   OH247589   0.268   6.561  11.785  0.2674  0.1956  0.1628
 8725TIP3    H147590   0.326   6.576  11.711 -0.8357  0.0411 -0.7575
 8725TIP3    H247591   0.222   6.644  11.797 -0.5003 -0.1625 -0.1918
 8726TIP3   OH247592   4.656   3.565   4.976  0.3456  0.4275  0.3395
 8726TIP3    H147593   4.642   3.658   4.993 -1.2754  0.5981 -1.5927
 8726TIP3    H247594   4.621   3.521   5.053 -1.1776  1.3416  0.2027
 8727TIP3   OH247595   4.512   4.110  14.215 -0.0143  0.0466  0.4603
 8727TIP3    H147596   4.438   4.050  14.209 -0.2534 -0.0841  3.3269
 8727TIP3    H247597   4.565   4.091  14.137 -2.2903 -0.7441 -0.9778
 8728TIP3   OH247598   2.699   1.803  13.969 -0.1224 -0.4112  0.1780
 8728TIP3    H147599   2.739   1.739  14.028 -0.3275 -0.1493  0.6091
 8728TIP3    H247600   2.651   1.751  13.906  0.6927 -0.7215 -0.1961
 8729TIP3   OH247601   6.798   1.490   0.284 -0.0924  0.3333  0.1429
 8729TIP3    H147602   6.703   1.480   0.293 -0.1927 -1.4379 -2.0379
 8729TIP3    H247603   6.817   1.577   0.321 -2.6541  1.0090  0.0295
 8730TIP3   OH247604   0.084   3.830  13.972 -0.0149  0.7348  0.5532
 8730TIP3    H147605   0.144   3.786  14.032 -0.6340  0.0534  0.6797
 8730TIP3    H247606   0.118   3.808  13.885 -0.2670  0.0734  0.6168
 8731TIP3   OH247607   1.135   3.184  16.256  0.2085  0.1397  0.0017
 8731TIP3    H147608   1.133   3.088  16.259  0.7994  0.1521  2.1664
 8731TIP3    H247609   1.228   3.206  16.266  0.0295  0.9492 -0.0869
 8732TIP3   OH247610   1.710   4.046  12.998  0.0461 -0.0425  0.3547
 8732TIP3    H147611   1.697   4.060  12.904  1.3069 -2.0131 -0.1800
 8732TIP3    H247612   1.775   4.112  13.024  0.4648 -0.1391 -0.4193
 8733TIP3   OH247613   5.880   2.117   0.841 -0.6794  0.3917 -0.4193
 8733TIP3    H147614   5.920   2.148   0.922 -1.5757  1.7875 -0.4858
 8733TIP3    H247615   5.786   2.118   0.858 -0.8282 -3.4276 -0.0494
 8734TIP3   OH247616   5.443   3.398  12.346  0.4072 -0.4603 -0.4974
 8734TIP3    H147617   5.440   3.313  12.303  0.2883 -0.1619 -1.0824
 8734TIP3    H247618   5.489   3.455  12.284  1.3312 -0.3229  0.2839
 8735TIP3   OH247619   3.055   5.638  12.982  0.8509 -0.2215  0.0182
 8735TIP3    H147620   3.052   5.543  12.995 -2.2907  0.1374  3.9870
 8735TIP3    H247621   2.972   5.659  12.938  0.1641  0.8044  1.6871
 8736TIP3   OH247622   2.078   5.145   5.257  0.7421 -0.6221  0.0046
 8736TIP3    H147623   2.098   5.052   5.244  0.1199 -0.7109 -0.4170
 8736TIP3    H247624   2.105   5.164   5.346  0.4186 -1.3462  0.2654
 8737TIP3   OH247625   0.064   4.672   1.862  0.1713 -0.0639  0.2356
 8737TIP3    H147626  -0.011   4.732   1.857  0.0182 -0.2498  0.2815
 8737TIP3    H247627   0.041   4.611   1.932  0.4786  0.0298  0.4222
 8738TIP3   OH247628   4.303   2.929   3.556  0.5666  0.0227 -0.5006
 8738TIP3    H147629   4.371   2.864   3.541 -0.0023 -0.3408 -1.6515
 8738TIP3    H247630   4.300   2.980   3.475  1.2417  1.7421  0.5081
 8739TIP3   OH247631   5.931   1.545  14.391 -0.0361 -0.0609  0.3284
 8739TIP3    H147632   5.880   1.526  14.312 -1.1312 -0.5859  1.1340
 8739TIP3    H247633   5.883   1.615  14.435  0.0018 -0.4624  1.0316
 8740TIP3   OH247634   5.235   0.837  16.107 -0.5559 -0.1917 -0.1736
 8740TIP3    H147635   5.309   0.827  16.047  0.0318 -0.8242  0.6149
 8740TIP3    H247636   5.241   0.759  16.164 -2.1781 -0.5540 -0.4637
 8741TIP3   OH247637   2.787   0.474   4.988  0.9051  0.1463  0.2953
 8741TIP3    H147638   2.704   0.447   4.947  0.6632  1.2926 -0.0112
 8741TIP3    H247639   2.797   0.415   5.062 -1.7170  1.7893  2.1269
 8742TIP3   OH247640   5.457   5.861   3.418 -0.0426  0.4451  0.1075
 8742TIP3    H147641   5.426   5.780   3.379 -2.0343  0.3105  1.8441
 8742TIP3    H247642   5.395   5.927   3.388  0.8155  1.1175 -0.2384
 8743TIP3   OH247643   2.084   0.142   1.225 -0.7662  0.2113 -0.1304
 8743TIP3    H147644   2.005   0.099   1.192 -1.1723  0.9393 -0.1102
 8743TIP3    H247645   2.076   0.138   1.320 -0.5145 -0.1870 -0.1217
 8744TIP3   OH247646   3.106   4.501  11.603  0.1871 -0.1391 -0.4558
 8744TIP3    H147647   3.104   4.459  11.689  0.3792 -2.4269 -1.4866
 8744TIP3    H247648   3.017   4.491  11.569  0.5984 -1.1032 -1.3071
 8745TIP3   OH247649   0.792   6.252   0.207 -0.1569 -0.6371  0.0046
 8745TIP3    H147650   0.878   6.221   0.181  1.1255  1.5028  1.3481
 8745TIP3    H247651   0.763   6.190   0.274 -0.1917 -1.9598 -1.1904
 8746TIP3   OH247652   2.962   3.642   3.671 -0.2363 -0.6448 -0.0695
 8746TIP3    H147653   2.884   3.640   3.726 -0.3718  0.7115 -0.1911
 8746TIP3    H247654   3.019   3.575   3.709 -0.9676 -0.8279  0.7407
 8747TIP3   OH247655   1.663   2.288  10.501  0.5554  0.2988 -0.6815
 8747TIP3    H147656   1.591   2.330  10.548  0.2551  0.3431 -1.1774
 8747TIP3    H247657   1.679   2.344  10.425  1.1364  0.3051 -0.5591
 8748TIP3   OH247658   3.015   4.066   0.601  0.4196  0.1712  0.5232
 8748TIP3    H147659   3.059   3.988   0.634 -0.4689 -1.5103 -1.9893
 8748TIP3    H247660   3.031   4.064   0.506 -0.7905  2.3013  0.2072
 8749TIP3   OH247661   6.734   0.454  13.171  0.2714 -0.1429  0.2126
 8749TIP3    H147662   6.776   0.473  13.087 -0.7134 -1.1925 -0.5406
 8749TIP3    H247663   6.644   0.482  13.160 -0.0545 -0.9965  0.6505
 8750TIP3   OH247664   3.975   3.955   5.486  0.3766 -0.1031 -0.1119
 8750TIP3    H147665   3.883   3.949   5.459 -0.1316 -1.3148  1.6702
 8750TIP3    H247666   3.995   3.867   5.520  1.8120  0.4960  0.6703
 8751TIP3   OH247667   4.270   6.691   2.919 -0.0476  0.1883 -0.1511
 8751TIP3    H147668   4.276   6.613   2.865  0.8152 -0.1146  0.3571
 8751TIP3    H247669   4.182   6.725   2.904 -1.1800 -1.9723  1.1051
 8752TIP3   OH247670   6.653   5.700   0.171  0.0415 -0.0358  0.2892
 8752TIP3    H147671   6.617   5.614   0.149 -1.7437  0.8012 -0.2009
 8752TIP3    H247672   6.730   5.708   0.115 -1.0073 -0.4550 -1.2867
 8753TIP3   OH247673   6.410   0.267   5.777 -0.2938 -0.3918  0.0554
 8753TIP3    H147674   6.415   0.361   5.760  0.5768 -0.2283  1.1165
 8753TIP3    H247675   6.335   0.238   5.725 -1.0183  1.0094  0.2537
 8754TIP3   OH247676   2.911   6.005   1.202  0.1048  0.3453  0.1113
 8754TIP3    H147677   2.970   5.995   1.127  1.4127  2.3283  0.7981
 8754TIP3    H247678   2.868   6.090   1.188 -0.9113 -0.0381  0.7686
 8755TIP3   OH247679   6.710   2.824   0.134 -0.4294 -0.1624 -0.1624
 8755TIP3    H147680   6.791   2.802   0.180 -1.0470  1.0029  1.6266
 8755TIP3    H247681   6.648   2.755   0.158 -1.1217  1.0969  1.9186
 8756TIP3   OH247682   4.048   4.501  11.224  0.2076  0.5478 -0.1629
 8756TIP3    H147683   3.994   4.426  11.200 -0.0520  0.3510  0.9717
 8756TIP3    H247684   4.138   4.469  11.217  0.1550  0.6166 -1.2230
 8757TIP3   OH247685   5.525   0.424   0.512  0.0863 -0.1111  0.8550
 8757TIP3    H147686   5.456   0.360   0.528  1.7506 -2.0047  0.9742
 8757TIP3    H247687   5.569   0.393   0.433  1.2587  0.5930  1.1954
 8758TIP3   OH247688   4.058   3.944  12.809 -0.0397 -0.1603  0.3512
 8758TIP3    H147689   4.145   3.973  12.781 -0.2896  1.7399  1.3921
 8758TIP3    H247690   3.999   4.013  12.780 -1.2146 -1.3599 -0.2122
 8759TIP3   OH247691   2.686   3.680  16.798  0.2275  0.3230 -0.7130
 8759TIP3    H147692   2.697   3.594  16.838  2.3828 -0.0440 -1.9379
 8759TIP3    H247693   2.608   3.672  16.743 -0.1782 -0.5092 -0.0429
 8760TIP3   OH247694   5.930   6.225   5.280  0.5236  0.5580  0.7164
 8760TIP3    H147695   5.991   6.193   5.213 -1.4984  0.0467 -0.9930
 8760TIP3    H247696   5.921   6.152   5.342  1.7810  0.7317  1.1267
 8761TIP3   OH247697   2.923   1.564  12.602 -0.0089 -0.6143  0.1815
 8761TIP3    H147698   2.848   1.508  12.582  0.1843 -0.5575 -0.7152
 8761TIP3    H247699   2.990   1.539  12.539  0.0363  0.7300 -0.3299
 8762TIP3   OH247700   5.193   1.430   0.185  0.3748 -0.3456 -0.0632
 8762TIP3    H147701   5.251   1.503   0.208 -0.3982  0.2087  0.1815
 8762TIP3    H247702   5.189   1.432   0.089 -2.2290  2.1054 -0.0670
 8763TIP3   OH247703   1.297   0.487  15.232  0.6350  0.2581  0.0328
 8763TIP3    H147704   1.240   0.506  15.307  1.5849  1.6077  0.4511
 8763TIP3    H247705   1.328   0.398  15.247 -0.7752 -0.2335  0.1692
 8764TIP3   OH247706   6.394   6.165   0.004 -0.0230  0.3656  0.0812
 8764TIP3    H147707   6.437   6.138   0.085 -0.3175  0.8574  0.4113
 8764TIP3    H247708   6.460   6.214  -0.043 -0.0226  0.5579  0.2808
 8765TIP3   OH247709   5.676   4.012   4.470  0.2526  0.0553 -0.2387
 8765TIP3    H147710   5.753   4.053   4.510 -0.2288 -0.2579  1.0593
 8765TIP3    H247711   5.705   3.987   4.382  2.5625 -2.5458  1.0919
 8766TIP3   OH247712   5.519   2.400  11.954 -0.6249 -0.2043 -0.4710
 8766TIP3    H147713   5.564   2.481  11.928 -0.4473 -0.9991 -2.9103
 8766TIP3    H247714   5.426   2.419  11.940 -0.6510 -0.1317 -0.1944
 8767TIP3   OH247715   4.182   5.770  12.487 -0.1190  0.1658  0.3505
 8767TIP3    H147716   4.174   5.747  12.394  1.2662  0.5260  0.1222
 8767TIP3    H247717   4.249   5.710  12.521 -2.7482 -2.1177  1.9309
 8768TIP3   OH247718   6.482   1.786   1.806  0.2767 -0.0864 -0.2903
 8768TIP3    H147719   6.517   1.744   1.884  0.7727 -2.8382 -1.8700
 8768TIP3    H247720   6.560   1.818   1.759  0.0586  0.5926 -0.2031
 8769TIP3   OH247721   2.381   0.380  14.046  0.3618  0.0646  0.3316
 8769TIP3    H147722   2.385   0.284  14.048 -0.0201  0.0508  2.3529
 8769TIP3    H247723   2.428   0.408  14.124  1.0859  1.5795 -0.5976
 8770TIP3   OH247724   2.773   4.287  15.514 -0.3151  0.1671  0.3506
 8770TIP3    H147725   2.865   4.261  15.515  0.2733  1.7801 -1.7121
 8770TIP3    H247726   2.765   4.352  15.583  0.3395  0.6398 -0.0099
 8771TIP3   OH247727   2.777   2.299   1.259  0.1349 -0.2746 -0.9703
 8771TIP3    H147728   2.715   2.230   1.281 -0.5357  0.7904  0.6382
 8771TIP3    H247729   2.861   2.266   1.290 -0.1311 -0.5102 -0.4873
 8772TIP3   OH247730   5.644   1.942   6.578 -0.0592 -0.2841  0.0454
 8772TIP3    H147731   5.730   1.933   6.539  1.4705  0.3197  2.9619
 8772TIP3    H247732   5.647   2.025   6.625 -1.7774 -0.7940  1.1943
 8773TIP3   OH247733   2.632   3.252  13.673  0.6905 -0.5542 -0.0367
 8773TIP3    H147734   2.538   3.250  13.694  0.7755  0.0416  0.4090
 8773TIP3    H247735   2.642   3.330  13.618  1.4778  1.3965  2.6933
 8774TIP3   OH247736   1.435   4.644  14.728  0.3807  0.1115  0.5095
 8774TIP3    H147737   1.487   4.644  14.647 -0.3979 -1.5300 -0.0341
 8774TIP3    H247738   1.497   4.669  14.796  1.3439  0.3215 -0.4130
 8775TIP3   OH247739   5.702   5.262   2.687 -0.3791 -0.2353  0.5156
 8775TIP3    H147740   5.606   5.265   2.683 -0.3525 -0.5811 -2.2021
 8775TIP3    H247741   5.723   5.169   2.693 -0.2020 -0.1784  0.7886
 8776TIP3   OH247742   4.312   1.129  13.640 -0.3505  0.3939 -0.4627
 8776TIP3    H147743   4.272   1.165  13.561 -1.6312  0.3298  0.1195
 8776TIP3    H247744   4.271   1.043  13.651  2.0969 -0.9764 -1.4024
 8777TIP3   OH247745   3.819   2.215  13.909 -0.0232 -0.1948 -0.1703
 8777TIP3    H147746   3.880   2.202  13.981  1.9956 -0.4381 -1.8407
 8777TIP3    H247747   3.749   2.151  13.925 -0.6449  0.9814  2.5054
 8778TIP3   OH247748   3.886   1.533   0.804 -0.7970 -0.3587  0.3158
 8778TIP3    H147749   3.822   1.595   0.838 -2.4718 -1.1998 -1.1012
 8778TIP3    H247750   3.950   1.587   0.758 -0.7487  0.4705  1.3167
 8779TIP3   OH247751   3.552   1.260   3.585 -0.3118 -0.5359  0.4222
 8779TIP3    H147752   3.505   1.335   3.548  1.5943  1.0131  0.9857
 8779TIP3    H247753   3.578   1.289   3.672  2.2181 -1.0212 -0.0993
 8780TIP3   OH247754   1.990   0.310  16.013 -0.3834  0.0370 -0.1721
 8780TIP3    H147755   1.941   0.232  15.989 -0.8509  0.0863  0.5963
 8780TIP3    H247756   2.082   0.281  16.015 -0.2702  0.1011 -2.2517
 8781TIP3   OH247757   6.598   2.969  12.759 -0.4809  0.2313 -0.3724
 8781TIP3    H147758   6.637   2.991  12.675 -0.8443 -2.1775 -1.2470
 8781TIP3    H247759   6.655   2.902  12.796 -1.4852 -0.3007  0.2762
 8782TIP3   OH247760   0.516   0.051   0.497  0.0086  0.2920  0.1939
 8782TIP3    H147761   0.542   0.005   0.577  3.2204  1.7577  0.1732
 8782TIP3    H247762   0.487  -0.018   0.438  0.0425 -1.1204  1.7617
 8783TIP3   OH247763   0.481   1.584   4.863 -0.3889 -0.1026  0.0079
 8783TIP3    H147764   0.481   1.608   4.955 -2.0712  0.0106  0.0097
 8783TIP3    H247765   0.543   1.645   4.822  0.4908 -0.2648  1.0684
 8784TIP3   OH247766   1.699   3.255   1.363 -0.2081  0.2557  0.5048
 8784TIP3    H147767   1.742   3.191   1.306 -0.5087  1.8154 -1.5699
 8784TIP3    H247768   1.725   3.340   1.328 -0.5013  1.3051  2.6646
 8785TIP3   OH247769   5.135   6.237  14.900 -0.3738 -0.0246 -0.4847
 8785TIP3    H147770   5.074   6.230  14.974  0.0603  1.2182  0.0235
 8785TIP3    H247771   5.108   6.168  14.840 -3.2192  1.3338 -0.9283
 8786TIP3   OH247772   4.772   6.186  12.627  1.0908 -0.5414 -0.2809
 8786TIP3    H147773   4.780   6.132  12.548 -0.4272  1.9859 -2.3395
 8786TIP3    H247774   4.791   6.275  12.597 -0.6280  0.6891  1.9614
 8787TIP3   OH247775   1.427   1.729  17.003 -0.3993  0.1568  0.3782
 8787TIP3    H147776   1.358   1.773  17.052  0.5514 -0.1576  2.0791
 8787TIP3    H247777   1.503   1.787  17.011 -0.5954  0.8970 -2.1313
 8788TIP3   OH247778   0.847   5.761  11.572 -0.4292 -0.1515 -0.1242
 8788TIP3    H147779   0.782   5.751  11.642 -1.0188  0.9350 -0.4880
 8788TIP3    H247780   0.848   5.676  11.528  1.6924 -1.7006  2.6135
 8789TIP3   OH247781   5.879   1.157   3.063 -0.2548  0.3660  0.5410
 8789TIP3    H147782   5.794   1.180   3.026  0.1575  0.0643 -0.6318
 8789TIP3    H247783   5.863   1.154   3.158 -1.4171  0.8190  0.3832
 8790TIP3   OH247784   2.717   5.082   3.787  0.3698  0.3348 -0.3804
 8790TIP3    H147785   2.726   5.109   3.696  0.2952 -1.5020 -0.9870
 8790TIP3    H247786   2.802   5.099   3.826  1.2651 -1.2038 -1.5189
 8791TIP3   OH247787   4.337   1.641  14.284  0.0322 -0.3306  0.2708
 8791TIP3    H147788   4.291   1.702  14.342 -1.1774 -0.8233 -0.1424
 8791TIP3    H247789   4.396   1.593  14.343 -0.9846 -0.6436  1.0565
 8792TIP3   OH247790   3.923   1.371  11.501  0.1449 -0.4143 -0.4537
 8792TIP3    H147791   3.892   1.315  11.430  1.8772 -0.3995 -1.2738
 8792TIP3    H247792   3.901   1.324  11.581 -0.1177 -1.3509 -1.0664
 8793TIP3   OH247793   4.066   3.346  15.212  0.1425  0.0933 -0.0709
 8793TIP3    H147794   4.159   3.329  15.226 -0.1272 -0.0898  1.7090
 8793TIP3    H247795   4.049   3.428  15.259 -0.9167 -0.7651  1.1192
 8794TIP3   OH247796   4.149   0.301  13.234  0.6669 -0.4914  0.1898
 8794TIP3    H147797   4.065   0.348  13.239  0.3844 -1.1003  1.6607
 8794TIP3    H247798   4.126   0.216  13.196  0.8348 -0.2292 -0.5205
 8795TIP3   OH247799   2.590   4.209   2.528  0.4397  0.2914 -0.0321
 8795TIP3    H147800   2.610   4.277   2.592 -0.9189  1.8186 -1.1379
 8795TIP3    H247801   2.551   4.139   2.580 -0.1603  1.2782  0.9148
 8796TIP3   OH247802   3.305   5.436  11.526 -0.2177  0.2588 -0.0673
 8796TIP3    H147803   3.398   5.459  11.520 -0.3818  1.1647  0.5253
 8796TIP3    H247804   3.265   5.483  11.454 -0.2842  0.3070  0.0006
 8797TIP3   OH247805   1.595   2.059  13.861 -0.2304 -0.2129 -0.6389
 8797TIP3    H147806   1.626   1.974  13.828 -2.0707 -1.7435  1.2822
 8797TIP3    H247807   1.547   2.097  13.787  1.0056 -0.5878 -1.6820
 8798TIP3   OH247808   5.027   1.965  13.660 -0.6149  0.0722 -0.2142
 8798TIP3    H147809   5.060   2.041  13.612  1.0379  0.2543  1.0912
 8798TIP3    H247810   5.011   1.999  13.749 -0.9133 -0.8595  0.0958
 8799TIP3   OH247811   0.565   0.241   2.336  0.3923  0.3262 -0.1994
 8799TIP3    H147812   0.569   0.295   2.414 -2.1960  2.1862 -1.2280
 8799TIP3    H247813   0.521   0.161   2.364  1.2060  0.1430  0.6042
 8800TIP3   OH247814   0.418   5.677  13.281 -0.6376  0.6243  0.3498
 8800TIP3    H147815   0.442   5.767  13.256  0.1095 -0.1188 -1.8346
 8800TIP3    H247816   0.336   5.660  13.235 -1.0767  0.3607  1.2164
 8801TIP3   OH247817   5.156   6.355   1.497 -0.5150 -0.4145 -0.1279
 8801TIP3    H147818   5.182   6.391   1.412 -1.9167  2.7474  0.6394
 8801TIP3    H247819   5.220   6.390   1.559 -1.0116 -0.5233  0.4575
 8802TIP3   OH247820   1.570   1.397   3.888  0.1421 -0.2038  0.2100
 8802TIP3    H147821   1.651   1.441   3.863  0.3738 -1.0724 -0.6093
 8802TIP3    H247822   1.585   1.367   3.978 -0.1441  1.6513  0.9103
 8803TIP3   OH247823   1.451   4.758  16.140 -0.2173  0.1675  0.5579
 8803TIP3    H147824   1.392   4.702  16.190  0.1368  0.4864  1.3485
 8803TIP3    H247825   1.427   4.743  16.048  0.8337 -2.4354  0.6243
 8804TIP3   OH247826   5.087   6.531   2.691 -0.2139  0.5286 -0.1816
 8804TIP3    H147827   5.027   6.490   2.754  0.4505 -1.8438 -0.9801
 8804TIP3    H247828   5.174   6.517   2.728  0.0368  1.3091 -0.4564
 8805TIP3   OH247829   5.955   0.198   4.089  0.1118  0.2190  0.0943
 8805TIP3    H147830   5.912   0.136   4.030  0.3575 -0.7251  0.8615
 8805TIP3    H247831   5.929   0.169   4.177  2.2564 -0.4091  0.6012
 8806TIP3   OH247832   3.654   3.348   4.094  0.0191 -0.2248 -0.7653
 8806TIP3    H147833   3.695   3.327   4.010  1.1796  1.0373 -0.5436
 8806TIP3    H247834   3.577   3.291   4.098  0.8469 -1.4887 -1.9376
 8807TIP3   OH247835   0.996   2.275  16.645 -1.0761 -0.0080  0.3656
 8807TIP3    H147836   0.917   2.329  16.652 -0.5839  0.9188 -0.7588
 8807TIP3    H247837   0.977   2.214  16.575 -0.1117  1.5636 -1.3580
 8808TIP3   OH247838   4.210   6.693  10.964  0.9271  0.3354  0.0365
 8808TIP3    H147839   4.222   6.734  10.878 -0.2520  0.5393 -0.0523
 8808TIP3    H247840   4.182   6.764  11.021 -0.6353 -0.2160  0.0027
 8809TIP3   OH247841   3.036   2.673   3.261  0.1423 -0.8621 -0.0792
 8809TIP3    H147842   3.039   2.758   3.305  1.8220 -0.1075 -1.5378
 8809TIP3    H247843   2.994   2.691   3.176  0.0274 -1.5997 -0.1880
 8810TIP3   OH247844   3.593   1.260   0.272  0.3375  0.3438 -0.5135
 8810TIP3    H147845   3.643   1.235   0.350  1.9573 -0.0466 -1.6099
 8810TIP3    H247846   3.528   1.322   0.303 -1.3583 -2.2984  1.7263
 8811TIP3   OH247847   1.859   3.262   5.149 -0.1591  0.1528 -0.8828
 8811TIP3    H147848   1.800   3.197   5.187  0.6032  1.1047  2.2010
 8811TIP3    H247849   1.947   3.227   5.164  0.2024  0.9303 -1.1161
 8812TIP3   OH247850   3.399   4.141   3.355 -0.2627 -0.2447 -0.4558
 8812TIP3    H147851   3.310   4.152   3.321  0.4382 -1.3197 -2.8315
 8812TIP3    H247852   3.427   4.056   3.321  0.4832 -1.6476  3.1726
 8813TIP3   OH247853   3.157   2.620   4.637  0.1601  0.1343 -0.2225
 8813TIP3    H147854   3.148   2.706   4.679  0.6340  0.1910 -0.2408
 8813TIP3    H247855   3.251   2.603   4.635  0.0760 -0.3532 -0.2879
 8814TIP3   OH247856   5.101   1.011   6.372  0.5675  0.2041  0.2643
 8814TIP3    H147857   5.040   1.046   6.437  0.6261 -1.8292  1.5109
 8814TIP3    H247858   5.052   1.010   6.290  0.0896  1.7271  0.5165
 8815TIP3   OH247859   2.353   2.881  16.703  0.3245 -0.0081  0.1599
 8815TIP3    H147860   2.407   2.907  16.777  0.6759  2.9716 -0.9955
 8815TIP3    H247861   2.272   2.932  16.713 -0.4760 -1.1196 -0.4286
 8816TIP3   OH247862   3.704   2.438   1.536  0.3961 -0.2582  0.0409
 8816TIP3    H147863   3.755   2.408   1.460  0.1843 -0.5114 -0.0003
 8816TIP3    H247864   3.613   2.425   1.511  0.3441 -1.6268  0.8590
 8817TIP3   OH247865   4.501   3.809  14.697  0.0582 -0.3231 -0.3256
 8817TIP3    H147866   4.588   3.770  14.706  1.4601  2.6335  0.0409
 8817TIP3    H247867   4.465   3.769  14.618  2.1159 -1.0146 -0.9822
 8818TIP3   OH247868   1.647   6.421   5.172  0.0242 -0.4359  0.1984
 8818TIP3    H147869   1.614   6.482   5.238  3.8907  1.1654  0.9651
 8818TIP3    H247870   1.645   6.472   5.090 -2.0047 -1.3971 -0.4174
 8819TIP3   OH247871   6.265   3.393  10.755 -0.1637 -0.1633 -0.6374
 8819TIP3    H147872   6.324   3.370  10.827  0.5368  1.5106 -0.6211
 8819TIP3    H247873   6.314   3.459  10.705 -1.3245 -0.0377 -1.6539
 8820TIP3   OH247874   1.395   4.412  12.904 -0.3222 -0.2010 -0.3075
 8820TIP3    H147875   1.358   4.459  12.978  0.2720 -1.6688  0.9646
 8820TIP3    H247876   1.387   4.319  12.927 -0.2506 -0.7150 -2.1432
 8821TIP3   OH247877   5.164   0.834   1.016 -0.2477  0.0022  0.0582
 8821TIP3    H147878   5.163   0.903   0.950 -0.8126 -1.7209 -1.8570
 8821TIP3    H247879   5.238   0.855   1.073 -1.3927  3.0422  0.5826
 8822TIP3   OH247880   5.112   3.930  15.121 -0.4783 -0.9629  0.1430
 8822TIP3    H147881   5.046   3.894  15.062 -1.0261 -0.5936  0.5204
 8822TIP3    H247882   5.084   4.020  15.137  1.3807  0.0075 -1.5455
 8823TIP3   OH247883   4.377   4.926  14.332 -0.2783  0.1182 -0.5765
 8823TIP3    H147884   4.301   4.886  14.289  1.3654 -2.7800 -0.9839
 8823TIP3    H247885   4.395   4.869  14.407  0.2499  1.9867  0.7917
 8824TIP3   OH247886   1.978   3.668  13.279 -0.5860 -0.0331 -0.1811
 8824TIP3    H147887   2.072   3.657  13.292 -0.7264 -0.3628  0.6025
 8824TIP3    H247888   1.965   3.658  13.185  0.2170  0.4556 -0.3509
 8825TIP3   OH247889   0.058   3.213  12.902 -0.2200 -0.2611 -0.0171
 8825TIP3    H147890   0.054   3.212  12.806 -1.4436 -0.6931  0.0238
 8825TIP3    H247891  -0.028   3.245  12.930  1.1860  3.1043  0.9265
 8826TIP3   OH247892   3.700   5.974  12.086  0.1623  0.6236 -0.2949
 8826TIP3    H147893   3.609   5.944  12.081 -0.7401  2.8199  1.1940
 8826TIP3    H247894   3.735   5.961  11.998 -2.1707  1.3418 -1.4081
 8827TIP3   OH247895   4.311   1.628   6.080  0.1448  0.1634  0.1477
 8827TIP3    H147896   4.281   1.597   6.165 -1.2572  0.2453 -0.2906
 8827TIP3    H247897   4.329   1.721   6.094  1.4760 -0.1439  0.7173
 8828TIP3   OH247898   5.513   1.564   6.390 -0.6156 -0.5621  0.3092
 8828TIP3    H147899   5.562   1.629   6.339 -1.7347 -0.2912 -0.4650
 8828TIP3    H247900   5.526   1.590   6.481 -0.9789  0.7160  0.0238
 8829TIP3   OH247901   1.337   1.399  16.599  0.2077  0.3229  0.0214
 8829TIP3    H147902   1.362   1.315  16.636  0.0633  0.0733 -0.4372
 8829TIP3    H247903   1.400   1.462  16.636  0.4135 -0.0120  0.2410
 8830TIP3   OH247904   4.703   2.305   2.917  0.2031  0.4930 -0.0323
 8830TIP3    H147905   4.637   2.351   2.969 -0.1342  0.7937 -0.7161
 8830TIP3    H247906   4.775   2.290   2.978 -0.8081 -0.5696  0.9581
 8831TIP3   OH247907   1.666   1.066   2.096 -0.0761  0.0972  0.1374
 8831TIP3    H147908   1.600   0.997   2.087 -1.6807  1.5488  0.2985
 8831TIP3    H247909   1.615   1.146   2.111  1.6880  1.4449 -0.7056
 8832TIP3   OH247910   5.208   6.268  11.873  0.0684  0.8091  0.3236
 8832TIP3    H147911   5.212   6.341  11.934  0.6240  3.5205 -2.6649
 8832TIP3    H247912   5.291   6.272  11.826  0.2482 -2.0225  0.2342
 8833TIP3   OH247913   5.686   3.806  13.004  0.7936 -0.2780  0.1085
 8833TIP3    H147914   5.772   3.816  13.046  0.6655 -1.3021  0.6297
 8833TIP3    H247915   5.673   3.712  12.998  1.4447 -0.3098 -3.5053
 8834TIP3   OH247916   0.097   1.010   3.937 -0.3283  0.5925  0.7172
 8834TIP3    H147917   0.108   1.017   4.031  0.2582 -0.5126  0.7525
 8834TIP3    H247918   0.129   1.093   3.902  1.8046  0.0794  1.3249
 8835TIP3   OH247919   5.019   1.100   1.684  0.4130  0.2801  0.2031
 8835TIP3    H147920   5.080   1.040   1.641 -0.4431 -0.1319 -0.4501
 8835TIP3    H247921   5.016   1.070   1.775  0.3390 -0.3837 -0.0153
 8836TIP3   OH247922   4.879   3.577   1.027  0.7769 -0.5344  0.1538
 8836TIP3    H147923   4.867   3.538   1.113 -1.7801 -1.7250 -0.6414
 8836TIP3    H247924   4.872   3.672   1.042 -1.0376 -0.7682  1.1400
 8837TIP3   OH247925   3.158   0.104   3.557 -0.2619 -0.2534  0.2561
 8837TIP3    H147926   3.113   0.021   3.571 -0.9437  0.1137  0.2547
 8837TIP3    H247927   3.120   0.163   3.622  0.6803 -0.1088  0.6963
 8838TIP3   OH247928   5.327   0.073   5.271  0.0921 -0.5815 -0.1240
 8838TIP3    H147929   5.389   0.110   5.208  0.9710 -0.4211  0.8094
 8838TIP3    H247930   5.335  -0.022   5.259  1.2062 -0.5998  0.5981
 8839TIP3   OH247931   6.605   1.689   5.919 -0.2489  0.1140  0.1427
 8839TIP3    H147932   6.551   1.680   5.998  0.8316  1.7083  1.1177
 8839TIP3    H247933   6.663   1.613   5.920 -1.2087 -0.6405  0.0728
 8840TIP3   OH247934   1.103   0.185  13.250  0.0712 -0.5800 -0.0795
 8840TIP3    H147935   1.030   0.135  13.287 -0.9197  0.6755 -0.2793
 8840TIP3    H247936   1.065   0.234  13.178  0.7486  1.2955  0.7676
 8841TIP3   OH247937   6.203   2.493  14.241  0.2307 -0.4429  0.5393
 8841TIP3    H147938   6.276   2.433  14.258  0.3079 -0.6270 -0.4081
 8841TIP3    H247939   6.233   2.547  14.168 -1.7826 -2.7048 -2.2037
 8842TIP3   OH247940   0.428   2.784   2.759 -0.1410  0.2321  0.0424
 8842TIP3    H147941   0.451   2.692   2.769  2.4407  0.3501 -3.1474
 8842TIP3    H247942   0.351   2.784   2.702  0.1121  0.0545 -0.2991
 8843TIP3   OH247943   1.036   0.347  12.677 -0.1331 -0.0869  0.0222
 8843TIP3    H147944   1.061   0.370  12.766 -0.7317  1.5331 -0.2018
 8843TIP3    H247945   0.975   0.273  12.687 -0.6119  0.4330  0.9864
 8844TIP3   OH247946   4.601   2.221   5.176 -0.1473  0.3487  0.0138
 8844TIP3    H147947   4.529   2.183   5.125  0.6186 -1.4476  0.1698
 8844TIP3    H247948   4.676   2.164   5.156  0.6861  0.8616  1.5226
 8845TIP3   OH247949   0.284   2.966   2.939  0.2713 -0.2667  0.0656
 8845TIP3    H147950   0.343   2.894   2.917 -1.3995 -1.4579 -0.7688
 8845TIP3    H247951   0.273   2.961   3.034  2.0397  0.4563  0.3463
 8846TIP3   OH247952   4.243   0.469  16.019 -0.4672  0.5056 -0.2185
 8846TIP3    H147953   4.148   0.461  16.031 -0.6282  0.9347 -1.1175
 8846TIP3    H247954   4.278   0.478  16.108 -1.3448  1.1195  0.0796
 8847TIP3   OH247955   5.508   0.264   6.753 -0.0907 -0.6527  0.2860
 8847TIP3    H147956   5.439   0.288   6.815  0.6723  2.2645  0.1981
 8847TIP3    H247957   5.463   0.260   6.668 -0.4771 -0.6201  0.4849
 8848TIP3   OH247958   5.287   5.031  10.194  0.5661 -0.4068 -0.0681
 8848TIP3    H147959   5.345   4.975  10.245  0.9693 -0.7698 -0.9115
 8848TIP3    H247960   5.202   4.986  10.197  0.3732 -0.0067  0.9491
 8849TIP3   OH247961   2.408   1.426   1.031 -0.2971 -0.2236  0.0655
 8849TIP3    H147962   2.406   1.434   1.126  0.1068 -1.1264  0.1556
 8849TIP3    H247963   2.416   1.516   1.000  1.0339 -0.0027  0.9382
 8850TIP3   OH247964   6.517   1.402   0.369 -0.0888 -0.1068  0.3287
 8850TIP3    H147965   6.426   1.425   0.389  0.0985  0.9228  0.0155
 8850TIP3    H247966   6.509   1.330   0.306 -0.6844  0.2701 -0.0345
 8851TIP3   OH247967   6.589   5.954  15.820 -0.0246  0.1013 -0.0109
 8851TIP3    H147968   6.644   5.998  15.756 -0.5524  1.5519  0.4766
 8851TIP3    H247969   6.644   5.947  15.898 -0.3495  1.1612  0.3386
 8852TIP3   OH247970   1.974   0.694  16.852  0.2957  0.3938 -0.7178
 8852TIP3    H147971   1.918   0.709  16.928  1.8398 -0.9707  0.8030
 8852TIP3    H247972   1.916   0.703  16.776 -1.0522  3.0169  0.5194
 8853TIP3   OH247973   0.471   5.717   2.168  0.3961 -0.0469 -0.5359
 8853TIP3    H147974   0.446   5.723   2.076 -0.8892 -1.8133 -0.3646
 8853TIP3    H247975   0.567   5.717   2.167  0.3996  0.5650 -1.8108
 8854TIP3   OH247976   0.571   0.937  14.042  0.2509 -0.1628  0.3193
 8854TIP3    H147977   0.580   1.017  14.093  1.2432  0.0575 -0.1826
 8854TIP3    H247978   0.649   0.935  13.986  0.1567 -1.3879  0.2043
 8855TIP3   OH247979   3.561   2.366   5.395 -0.2190 -0.1506  0.1833
 8855TIP3    H147980   3.562   2.461   5.388 -1.8147 -0.1484 -0.5323
 8855TIP3    H247981   3.468   2.344   5.400  0.1476 -1.6303  1.0854
 8856TIP3   OH247982   2.337   3.518   1.641 -0.4561  0.0669  0.7570
 8856TIP3    H147983   2.425   3.521   1.605  0.0548  0.5077  1.9770
 8856TIP3    H247984   2.281   3.498   1.566  0.7778 -1.3747  0.1655
 8857TIP3   OH247985   2.086   3.975   4.919  0.3010  0.0309 -0.2476
 8857TIP3    H147986   2.048   3.899   4.962  1.1421 -0.5671 -0.5367
 8857TIP3    H247987   2.036   3.984   4.838 -1.3007  1.1751  0.8030
 8858TIP3   OH247988   5.145   1.235  11.651 -0.3921  0.6161 -0.3574
 8858TIP3    H147989   5.122   1.227  11.743 -0.3123 -0.2336 -0.4017
 8858TIP3    H247990   5.191   1.319  11.644  0.9160  0.0097  0.6576
 8859TIP3   OH247991   5.777   4.678   4.120  0.7022  0.2914 -0.1729
 8859TIP3    H147992   5.769   4.705   4.212 -2.0517  2.1206 -0.8155
 8859TIP3    H247993   5.687   4.659   4.093  0.8268  3.1935 -3.3410
 8860TIP3   OH247994   2.417   1.605  11.604  0.1614  0.5689 -0.4496
 8860TIP3    H147995   2.391   1.615  11.695 -0.3748  0.7527 -0.6184
 8860TIP3    H247996   2.403   1.691  11.565 -1.7848 -0.0408 -1.2354
 8861TIP3   OH247997   3.979   0.005   4.515 -0.0781  0.6109  0.5785
 8861TIP3    H147998   4.064   0.002   4.473 -0.6064 -0.1862 -0.4664
 8861TIP3    H247999   3.937   0.083   4.478 -0.6823 -0.2860 -0.7186
 8862TIP3   OH248000   2.636   2.856  12.258 -0.3125 -0.4687 -0.4388
 8862TIP3    H148001   2.602   2.807  12.333 -0.6345 -0.9574 -0.9026
 8862TIP3    H248002   2.723   2.818  12.242 -1.2026 -2.0463 -1.8217
 8863TIP3   OH248003   5.700   0.467  11.971 -0.3960 -0.5196  0.4947
 8863TIP3    H148004   5.651   0.467  11.888  0.5794  1.1000 -0.1323
 8863TIP3    H248005   5.635   0.488  12.038 -0.8353  0.0881 -0.1154
 8864TIP3   OH248006   1.314   6.576   1.804  0.8252 -0.9083  0.4756
 8864TIP3    H148007   1.219   6.569   1.817  0.2631  0.7424 -2.1040
 8864TIP3    H248008   1.341   6.646   1.863  0.7879 -2.4219  2.3817
 8865TIP3   OH248009   2.153   6.455  16.193 -0.4785 -0.3077  0.8950
 8865TIP3    H148010   2.095   6.384  16.221 -2.6453  1.4160  1.0686
 8865TIP3    H248011   2.099   6.534  16.200  2.5945  1.8120  3.4416
 8866TIP3   OH248012   4.495   5.357   3.993 -0.1145  0.1415 -0.0906
 8866TIP3    H148013   4.422   5.297   4.009  0.3221  0.2428  2.7957
 8866TIP3    H248014   4.457   5.444   4.007  0.5683  0.1748  2.0422
 8867TIP3   OH248015   3.643   0.051  15.616 -0.4534 -0.5848 -0.2922
 8867TIP3    H148016   3.586   0.075  15.689 -0.3786 -2.2710  0.3659
 8867TIP3    H248017   3.694   0.130  15.599 -2.1387  0.5899 -0.1312
 8868TIP3   OH248018   0.293   2.833   5.364  0.2097  0.1484  0.1112
 8868TIP3    H148019   0.219   2.773   5.356  0.7269 -0.2356 -2.9263
 8868TIP3    H248020   0.257   2.919   5.340  0.6742 -0.0287 -1.3094
 8869TIP3   OH248021   2.979   5.829  15.940  0.6185  0.7318  0.1909
 8869TIP3    H148022   2.948   5.919  15.935 -0.6060  0.2906 -0.4618
 8869TIP3    H248023   3.034   5.818  15.863  1.3478  1.1149  0.6427
 8870TIP3   OH248024   3.714   4.038   3.453 -0.2915  0.2270 -0.1355
 8870TIP3    H148025   3.684   4.123   3.485  0.9410  0.9837 -0.9236
 8870TIP3    H248026   3.638   3.981   3.463 -0.8533  1.1600  1.3196
 8871TIP3   OH248027   6.548   3.634   2.430  0.0985  0.0496  0.0109
 8871TIP3    H148028   6.523   3.616   2.340  0.0937  2.7168 -0.5961
 8871TIP3    H248029   6.465   3.642   2.477  0.0795 -3.0127  0.7564
 8872TIP3   OH248030   0.224   5.828   2.827  0.5761 -0.0980  0.4429
 8872TIP3    H148031   0.132   5.839   2.850  0.6929  0.8263  0.5237
 8872TIP3    H248032   0.234   5.875   2.745  0.6900 -1.3636 -0.2864
 8873TIP3   OH248033   3.402   1.785  12.983 -0.3438  0.3453  0.2715
 8873TIP3    H148034   3.322   1.805  12.936  1.6402 -0.0199 -3.6090
 8873TIP3    H248035   3.463   1.854  12.957  1.3683 -0.8055  1.0554
 8874TIP3   OH248036   5.985   5.568   3.856 -0.1029 -0.2928  0.1609
 8874TIP3    H148037   5.993   5.481   3.896  0.8748 -0.4624 -0.3578
 8874TIP3    H248038   6.058   5.572   3.794 -0.1615  0.8914  0.1474
 8875TIP3   OH248039   1.076   2.204   0.382 -0.3090  0.3472 -0.2642
 8875TIP3    H148040   1.159   2.236   0.346 -1.2140 -0.5177 -3.3979
 8875TIP3    H248041   1.101   2.157   0.462  2.0631  1.0000 -0.5477
 8876TIP3   OH248042   4.021   5.937   1.666  0.1063 -0.1540  0.4870
 8876TIP3    H148043   4.110   5.963   1.640 -0.2281  1.7919  1.1228
 8876TIP3    H248044   4.029   5.845   1.692  1.5807 -0.4965 -1.0514
 8877TIP3   OH248045   5.922   2.203   1.316 -0.1070 -0.6976 -0.6608
 8877TIP3    H148046   5.920   2.294   1.287  1.0464 -0.9420 -1.6140
 8877TIP3    H248047   5.830   2.178   1.326 -0.4332  0.5613 -0.3934
 8878TIP3   OH248048   5.741   4.794  10.350 -0.2486 -0.3683  0.2609
 8878TIP3    H148049   5.656   4.836  10.359  1.0102  2.6322 -0.8041
 8878TIP3    H248050   5.775   4.825  10.266  2.8278  0.4046  1.6442
 8879TIP3   OH248051   1.642   6.688   3.629  0.0657  0.0410  0.1735
 8879TIP3    H148052   1.631   6.617   3.692  0.4342 -0.2928 -0.1320
 8879TIP3    H248053   1.736   6.690   3.610  0.1626  1.0578  0.6846
 8880TIP3   OH248054   6.700   2.888  15.893 -0.2417 -0.1324 -0.1296
 8880TIP3    H148055   6.738   2.900  15.980  0.3531  0.4537 -0.4519
 8880TIP3    H248056   6.776   2.879  15.835 -0.3402  4.2124 -1.2640
 8881TIP3   OH248057   2.323   3.699  12.725 -0.6545 -0.8013  0.0447
 8881TIP3    H148058   2.358   3.611  12.711  0.5785 -0.4361  0.6996
 8881TIP3    H248059   2.390   3.744  12.776 -1.5541  0.3231  0.2841
 8882TIP3   OH248060   5.683   4.954  11.417  0.6750 -0.6585  0.0277
 8882TIP3    H148061   5.721   4.915  11.338  0.0284 -0.2043 -0.5218
 8882TIP3    H248062   5.618   4.890  11.446  0.4154 -0.5092 -0.2197
 8883TIP3   OH248063   5.500   3.063   0.630 -0.2000 -0.0388  0.5410
 8883TIP3    H148064   5.570   2.997   0.639 -0.5354 -0.7671 -1.6344
 8883TIP3    H248065   5.438   3.040   0.699 -0.6242 -2.4930 -0.5248
 8884TIP3   OH248066   6.708   1.659  11.022  0.7452  0.0601 -0.0605
 8884TIP3    H148067   6.673   1.570  11.022 -0.2284  0.4265 -0.2822
 8884TIP3    H248068   6.741   1.671  10.933  3.0402 -0.8621  0.5940
 8885TIP3   OH248069   6.474   5.677   3.048  0.0101  0.1318 -0.3677
 8885TIP3    H148070   6.422   5.730   2.987  0.3877  1.8170  0.7037
 8885TIP3    H248071   6.536   5.631   2.992 -0.5704  0.5345 -1.3810
 8886TIP3   OH248072   4.865   6.786   5.344 -0.2977 -0.1089  0.4495
 8886TIP3    H148073   4.861   6.881   5.330  0.6231 -0.0865  0.2546
 8886TIP3    H248074   4.804   6.751   5.279  0.4051  0.2834 -0.4614
 8887TIP3   OH248075   6.591   1.019   4.640 -0.5879 -0.4381  0.4538
 8887TIP3    H148076   6.522   1.056   4.695 -1.0353  0.7649 -0.8375
 8887TIP3    H248077   6.546   0.995   4.559  0.3336 -0.5522 -0.0322
 8888TIP3   OH248078   2.520   0.135  11.389  0.5477 -0.2020  0.0095
 8888TIP3    H148079   2.566   0.201  11.441 -0.9582  0.6225  0.3409
 8888TIP3    H248080   2.483   0.184  11.315  0.5416 -0.9174 -0.4677
 8889TIP3   OH248081   5.657   4.633  10.749 -0.0005 -0.2615  0.1602
 8889TIP3    H148082   5.598   4.657  10.678 -1.3611 -5.1918 -0.7271
 8889TIP3    H248083   5.744   4.648  10.714 -0.6150  1.8676 -0.6213
 8890TIP3   OH248084   3.184   1.400  13.557 -0.0823 -0.3363  0.1025
 8890TIP3    H148085   3.124   1.462  13.598  0.2285  0.0457 -0.0211
 8890TIP3    H248086   3.174   1.415  13.463 -2.0421 -2.3515 -0.1011
 8891TIP3   OH248087   1.114   3.455   5.250 -0.2144 -0.4465 -0.0459
 8891TIP3    H148088   1.038   3.431   5.304 -1.2148  2.0043 -0.2188
 8891TIP3    H248089   1.094   3.420   5.163 -1.7067  1.0366 -0.3511
 8892TIP3   OH248090   3.390   2.077  14.618  0.8668 -0.4948 -0.0274
 8892TIP3    H148091   3.349   2.069  14.704 -3.1941 -1.6456 -1.8226
 8892TIP3    H248092   3.460   2.011  14.619  2.1716  0.7409  2.8420
 8893TIP3   OH248093   0.365   4.730  15.009 -0.4338 -0.0701 -0.2707
 8893TIP3    H148094   0.411   4.789  14.949  1.8417 -1.1592  0.2881
 8893TIP3    H248095   0.357   4.780  15.090  1.2777 -0.3890  0.1312
 8894TIP3   OH248096   0.364   1.811  15.896  0.0976  0.2011 -0.0236
 8894TIP3    H148097   0.445   1.782  15.855  1.4051 -0.9518  3.0918
 8894TIP3    H248098   0.307   1.734  15.891  0.7669 -0.4183  1.4631
 8895TIP3   OH248099   4.297   6.393  15.271 -0.2785  0.0736 -0.1609
 8895TIP3    H148100   4.212   6.430  15.296  0.2752  0.7678  0.7683
 8895TIP3    H248101   4.291   6.301  15.294 -0.6832  0.1809  0.1766
 8896TIP3   OH248102   6.259   4.363   3.998 -0.4213 -0.5361  0.2554
 8896TIP3    H148103   6.173   4.398   4.023 -0.9038 -0.7281 -1.0751
 8896TIP3    H248104   6.273   4.395   3.909 -0.2168 -2.5149 -0.4593
 8897TIP3   OH248105   2.387   4.428  13.961  0.7098  0.3276  0.1409
 8897TIP3    H148106   2.326   4.480  14.012  1.1990  0.2666  0.8060
 8897TIP3    H248107   2.363   4.444  13.870 -0.2345  0.3595  0.3928
 8898TIP3   OH248108   1.585   0.869  16.197  0.3291  0.2460 -0.0553
 8898TIP3    H148109   1.671   0.874  16.238  0.0225 -0.0950  0.6538
 8898TIP3    H248110   1.541   0.797  16.242 -1.3195  2.1037  1.5508
 8899TIP3   OH248111   5.496   4.316   3.404  0.2190  0.2051  0.3090
 8899TIP3    H148112   5.509   4.378   3.332 -1.3303  0.7952  0.5001
 8899TIP3    H248113   5.455   4.368   3.473  2.7359 -0.0449  2.1426
 8900TIP3   OH248114   1.349   4.382  12.380 -0.2384 -0.2217  0.1405
 8900TIP3    H148115   1.297   4.308  12.412  0.9315 -0.8704  0.6276
 8900TIP3    H248116   1.417   4.341  12.325  1.6396  0.2560  1.9856
 8901TIP3   OH248117   4.987   4.936  11.291  0.1904 -0.5222  0.2408
 8901TIP3    H148118   4.963   4.844  11.298 -3.0896  0.1714 -0.4680
 8901TIP3    H248119   5.019   4.946  11.201 -1.9628 -0.5534 -0.5925
 8902TIP3   OH248120   0.198   6.037   3.499  0.5923 -0.0375 -0.3944
 8902TIP3    H148121   0.187   6.003   3.588 -1.0904  1.2899 -0.0446
 8902TIP3    H248122   0.234   5.964   3.449  0.0587 -1.3061  1.0207
 8903TIP3   OH248123   0.511   0.689  14.473  0.6174 -0.2528  1.0512
 8903TIP3    H148124   0.598   0.650  14.482  1.5033  1.9419  2.9966
 8903TIP3    H248125   0.502   0.705  14.379  2.0013 -1.1727  0.7294
 8904TIP3   OH248126   2.592   2.060   3.984  0.1248  0.4280  0.4856
 8904TIP3    H148127   2.622   1.978   4.024  0.6745  0.9996  1.2668
 8904TIP3    H248128   2.622   2.054   3.893  0.5271 -0.0618  0.6442
 8905TIP3   OH248129   3.056   1.243   0.698 -0.3280  0.2907 -0.3636
 8905TIP3    H148130   3.042   1.154   0.731  0.7137  0.8243  1.6673
 8905TIP3    H248131   2.971   1.286   0.706 -0.7224 -0.3748 -0.9099
 8906TIP3   OH248132   4.036   6.424   4.959  0.1423 -0.2404  0.0225
 8906TIP3    H148133   4.132   6.431   4.960  0.1687 -0.5474  0.6572
 8906TIP3    H248134   4.007   6.494   4.901  0.6905  0.6455  0.7956
 8907TIP3   OH248135   0.111   4.521   4.644 -0.5817  0.1611  0.2790
 8907TIP3    H148136   0.119   4.460   4.718  0.0702 -0.2937 -0.1593
 8907TIP3    H248137   0.017   4.530   4.631 -0.7256  0.6799  1.5172
 8908TIP3   OH248138   3.797   0.361   5.540  0.3954 -0.0556  0.6734
 8908TIP3    H148139   3.842   0.281   5.512 -0.8168 -0.6875  0.4555
 8908TIP3    H248140   3.866   0.416   5.576  1.1090 -1.7219  2.0055
 8909TIP3   OH248141   5.933   3.420   4.004  0.0396  0.2708  0.3655
 8909TIP3    H148142   5.892   3.361   4.067 -0.7880 -0.5206 -0.8638
 8909TIP3    H248143   5.862   3.444   3.944  0.7143  1.3181 -0.0455
 8910TIP3   OH248144   6.501   0.313   6.272 -0.6273 -0.5362  0.9001
 8910TIP3    H148145   6.520   0.404   6.292 -1.9665  0.0898 -0.4443
 8910TIP3    H248146   6.422   0.293   6.322 -1.0895 -0.5303  0.1885
 8911TIP3   OH248147   0.013   6.016   1.240  0.5461  0.7853 -0.1890
 8911TIP3    H148148  -0.045   6.069   1.295  1.6224  2.0303 -0.2027
 8911TIP3    H248149   0.006   5.928   1.276  1.0055  1.5101  1.7882
 8912TIP3   OH248150   5.243   5.057   5.461  0.6143  0.9017 -0.0414
 8912TIP3    H148151   5.178   5.089   5.523  1.2880 -2.3263  2.6077
 8912TIP3    H248152   5.214   4.969   5.439  2.8339  0.2683 -0.6974
 8913TIP3   OH248153   0.129   3.204   2.105 -0.2322 -0.5707 -0.3344
 8913TIP3    H148154   0.150   3.119   2.067 -1.1811 -0.8315 -0.3088
 8913TIP3    H248155   0.050   3.188   2.156 -0.6845  0.4271 -0.6969
 8914TIP3   OH248156   5.890   0.390   0.565  0.1005  0.3433  0.2216
 8914TIP3    H148157   5.819   0.437   0.608  0.5212 -1.0453  2.5779
 8914TIP3    H248158   5.962   0.392   0.628  1.1102 -0.9337 -0.8372
 8915TIP3   OH248159   0.751   3.155  15.956 -0.3750  0.5391 -0.2210
 8915TIP3    H148160   0.740   3.063  15.981 -1.4768  0.2383 -1.6707
 8915TIP3    H248161   0.798   3.194  16.030  1.0161 -1.3958 -0.0014
 8916TIP3   OH248162   6.355   4.935  16.347 -0.3804  0.1116  0.1603
 8916TIP3    H148163   6.382   4.893  16.428  1.6002  1.2589  0.1631
 8916TIP3    H248164   6.394   4.881  16.278 -0.8108 -0.0363  0.0335
 8917TIP3   OH248165   6.667   5.665   2.614 -0.0109 -0.3444 -0.1965
 8917TIP3    H148166   6.729   5.701   2.551 -0.0080  1.6141  0.8563
 8917TIP3    H248167   6.625   5.592   2.568  0.8692  0.2443 -1.9953
 8918TIP3   OH248168   4.747   6.266  16.448  0.5829 -0.2957  0.0956
 8918TIP3    H148169   4.682   6.300  16.510 -0.4474 -0.6966 -0.7438
 8918TIP3    H248170   4.800   6.342  16.425 -1.3047  0.6818 -1.2860
 8919TIP3   OH248171   5.336   1.770   4.701  0.2922 -0.3848  0.9313
 8919TIP3    H148172   5.338   1.737   4.611  0.5564 -0.6115  1.0208
 8919TIP3    H248173   5.388   1.707   4.751  0.3496 -0.1232  1.1994
 8920TIP3   OH248174   5.123   4.113   3.083  0.0922 -0.0222 -0.1881
 8920TIP3    H148175   5.060   4.101   3.154 -0.2564  0.4987 -0.4021
 8920TIP3    H248176   5.072   4.098   3.003 -0.1524  1.8615 -0.4360
 8921TIP3   OH248177   2.436   1.886   4.756 -0.0767  0.2761  0.2535
 8921TIP3    H148178   2.472   1.953   4.699  0.2510  0.9077  1.1749
 8921TIP3    H248179   2.503   1.874   4.824  0.0310 -1.2258 -0.0643
 8922TIP3   OH248180   1.195   1.114  16.991  0.3388 -0.2088 -0.0858
 8922TIP3    H148181   1.236   1.068  16.917 -0.1479  0.4990 -0.8167
 8922TIP3    H248182   1.205   1.055  17.065  0.7555 -0.9770 -0.7428
 8923TIP3   OH248183   2.922   5.751   5.544  0.1653 -0.1114 -0.5002
 8923TIP3    H148184   2.866   5.803   5.486 -0.9442  0.4340  1.0126
 8923TIP3    H248185   2.980   5.704   5.484 -1.4068 -0.1392 -2.0893
 8924TIP3   OH248186   1.483   2.791   4.125  0.2018 -0.0720  0.6004
 8924TIP3    H148187   1.518   2.737   4.195  0.3782 -0.5723  0.1347
 8924TIP3    H248188   1.553   2.853   4.105  0.6098 -0.6910  0.0714
 8925TIP3   OH248189   3.604   2.801  16.401 -0.1531  0.1440  0.2599
 8925TIP3    H148190   3.620   2.803  16.307 -1.4412  2.4076  0.0141
 8925TIP3    H248191   3.519   2.758  16.410 -0.3699  0.5800  0.3125
 8926TIP3   OH248192   4.973   1.432  14.252 -0.2916  0.8222 -0.0472
 8926TIP3    H148193   4.948   1.369  14.320  0.2748  1.7040  1.0034
 8926TIP3    H248194   4.890   1.463  14.216 -0.6088 -1.7869 -1.8408
 8927TIP3   OH248195   4.296   3.568  12.325 -1.1139 -0.1731  0.3394
 8927TIP3    H148196   4.230   3.527  12.269 -0.1840  1.3176 -2.0262
 8927TIP3    H248197   4.256   3.651  12.352 -0.9635 -0.1824  0.5919
 8928TIP3   OH248198   4.528   5.814  15.815 -0.0304  0.2422 -0.2217
 8928TIP3    H148199   4.556   5.746  15.754  0.1488 -0.1236  0.2689
 8928TIP3    H248200   4.544   5.896  15.767  0.2057 -0.0364 -0.6259
 8929TIP3   OH248201   0.691   1.337   3.587  0.0201 -0.4153 -0.2124
 8929TIP3    H148202   0.735   1.391   3.653 -0.8213 -1.7897  1.5131
 8929TIP3    H248203   0.732   1.251   3.594 -0.4629 -0.7377 -1.1288
 8930TIP3   OH248204   6.761   2.273  16.539  0.2556  0.3531  0.7563
 8930TIP3    H148205   6.684   2.217  16.546  1.0171 -0.7636  0.4806
 8930TIP3    H248206   6.808   2.258  16.621  0.5302  0.4862  0.6199
 8931TIP3   OH248207   2.737   6.676  15.369 -0.0284  0.0838 -0.3420
 8931TIP3    H148208   2.678   6.710  15.302 -0.3181  0.6552  0.1874
 8931TIP3    H248209   2.800   6.747  15.384  2.1784 -1.2668 -2.4287
 8932TIP3   OH248210   2.235   3.600   0.198 -0.5741  0.1800 -0.6326
 8932TIP3    H148211   2.190   3.516   0.194 -0.4626 -0.0193  1.2807
 8932TIP3    H248212   2.187   3.650   0.264  0.3494  0.9965 -0.5526
 8933TIP3   OH248213   1.563   1.637  16.579 -0.1057 -0.5214  0.9486
 8933TIP3    H148214   1.587   1.729  16.590  1.4676 -0.9661  1.6087
 8933TIP3    H248215   1.546   1.605  16.668  0.4865 -1.1320  0.8571
 8934TIP3   OH248216   3.440   1.057  11.780  0.0435  0.2615 -0.4038
 8934TIP3    H148217   3.370   0.996  11.802 -1.5878  1.4978 -1.9154
 8934TIP3    H248218   3.441   1.120  11.853 -1.5803  1.1732 -1.1230
 8935TIP3   OH248219   2.395   4.783  13.986  0.5965 -0.4060  0.4272
 8935TIP3    H148220   2.392   4.822  13.899  1.1436 -3.0186 -0.8735
 8935TIP3    H248221   2.307   4.750  14.001  0.7888 -0.9872  0.3178
 8936TIP3   OH248222   1.244   2.167  11.525  0.0818 -0.0631  0.0568
 8936TIP3    H148223   1.192   2.196  11.450 -1.5557 -0.4961  0.9818
 8936TIP3    H248224   1.285   2.247  11.558  0.5686  0.1830 -1.0804
 8937TIP3   OH248225   5.032   0.878  14.662 -0.0452 -0.0104  0.1570
 8937TIP3    H148226   5.123   0.864  14.635 -0.7136  0.2903 -2.5711
 8937TIP3    H248227   5.038   0.908  14.752  2.5495 -0.2542  0.1358
 8938TIP3   OH248228   2.685   0.079  16.451  0.3465 -0.2095 -0.1824
 8938TIP3    H148229   2.725   0.089  16.365 -1.3806  0.7157 -0.9471
 8938TIP3    H248230   2.680  -0.015  16.465 -1.2446 -0.4954 -2.1170
 8939TIP3   OH248231   4.041   0.934  16.448  0.1995 -1.2626  0.0068
 8939TIP3    H148232   3.967   0.880  16.476 -0.3446 -0.8273 -0.5635
 8939TIP3    H248233   4.008   1.024  16.453 -0.0800 -1.1688 -2.4195
 8940TIP3   OH248234   6.196   3.006   1.169  0.1409 -0.4461  0.5318
 8940TIP3    H148235   6.199   2.956   1.088  0.0019  0.0719  0.2004
 8940TIP3    H248236   6.251   2.957   1.230 -0.0902 -1.0631  0.2542
 8941TIP3   OH248237   2.058   3.874  11.453  0.2379  0.1063 -0.2671
 8941TIP3    H148238   2.015   3.789  11.452 -1.6076  0.9643  1.2939
 8941TIP3    H248239   2.149   3.854  11.476  0.2159 -1.5317 -1.3735
 8942TIP3   OH248240   4.558   2.538   0.036  0.2838  0.2109  0.0483
 8942TIP3    H148241   4.488   2.587  -0.006  0.2694  0.6227  0.5433
 8942TIP3    H248242   4.602   2.602   0.092  1.7965  0.2583 -1.1096
 8943TIP3   OH248243   5.343   2.023  12.465  0.4452  0.0844  0.0191
 8943TIP3    H148244   5.417   1.980  12.509  0.8194 -0.0175 -0.6949
 8943TIP3    H248245   5.288   1.951  12.435 -0.4457  0.1753  1.3662
 8944TIP3   OH248246   5.473   1.581   5.845  0.1381  0.7707  0.0384
 8944TIP3    H148247   5.548   1.638   5.861 -0.0595  0.7571  1.0441
 8944TIP3    H248248   5.401   1.620   5.895  0.1851 -0.7617  1.3725
 8945TIP3   OH248249   5.323   6.280   0.816 -0.3185  0.0248 -0.1513
 8945TIP3    H148250   5.317   6.374   0.833  0.7310  0.0072  0.4280
 8945TIP3    H248251   5.372   6.274   0.734  1.1336 -0.0280  0.6874
 8946TIP3   OH248252   2.980   4.631  13.711 -0.1568  0.4276 -0.5556
 8946TIP3    H148253   2.950   4.546  13.744  1.7207 -0.5980 -1.3190
 8946TIP3    H248254   2.906   4.664  13.659 -1.1451 -0.4234  0.2552
 8947TIP3   OH248255   0.035   4.684  16.633  0.1080 -0.4111  0.1606
 8947TIP3    H148256   0.062   4.605  16.681 -0.2503 -0.2579  0.6268
 8947TIP3    H248257   0.049   4.662  16.541  0.9944 -0.6427  0.3351
 8948TIP3   OH248258   1.193   6.123   0.761  0.1476 -0.0388  0.8200
 8948TIP3    H148259   1.166   6.168   0.681  0.1207 -1.1907  0.1729
 8948TIP3    H248260   1.114   6.078   0.791  0.3477 -0.2091  1.0968
 8949TIP3   OH248261   1.432   2.240   2.786 -0.3296  0.7877 -0.3166
 8949TIP3    H148262   1.401   2.192   2.710  0.9084  0.6468 -0.7605
 8949TIP3    H248263   1.517   2.200   2.806  0.0428  1.8086  0.2236
 8950TIP3   OH248264   3.865   1.916  12.165 -0.3996  0.2327  0.3640
 8950TIP3    H148265   3.928   1.918  12.092  0.1033 -1.7469  0.6753
 8950TIP3    H248266   3.780   1.906  12.122 -0.2860  0.7713  0.0027
 8951TIP3   OH248267   2.113   4.697   3.090 -0.6084 -0.6568  0.5727
 8951TIP3    H148268   2.105   4.638   3.165 -0.6369 -2.8019 -1.0198
 8951TIP3    H248269   2.190   4.665   3.043 -0.9358  0.2477 -0.6286
 8952TIP3   OH248270   2.672   2.558   5.155  0.5739  0.4899  0.1212
 8952TIP3    H148271   2.721   2.572   5.237  0.8001  2.0195 -0.2529
 8952TIP3    H248272   2.585   2.591   5.174  0.1422 -0.6556  0.2319
 8953TIP3   OH248273   3.774   3.702   5.108 -0.0563  0.6281  0.3104
 8953TIP3    H148274   3.774   3.646   5.030  0.7074  0.8119  0.1710
 8953TIP3    H248275   3.722   3.779   5.083 -2.7670 -0.7922  1.1111
 8954TIP3   OH248276   1.277   2.315  16.631 -0.3505  0.4058  0.3070
 8954TIP3    H148277   1.267   2.229  16.591  0.1744  0.9013 -0.9308
 8954TIP3    H248278   1.190   2.335  16.666 -0.6910 -0.2598 -0.1362
 8955TIP3   OH248279   1.694   5.425  15.707 -0.4914  0.2025  0.3844
 8955TIP3    H148280   1.783   5.394  15.724 -0.7261  0.0430  1.4120
 8955TIP3    H248281   1.696   5.459  15.618  0.3458 -0.7163  0.0429
 8956TIP3   OH248282   0.328   1.252   1.141 -0.1676  0.1294  0.5297
 8956TIP3    H148283   0.414   1.221   1.112  0.1271 -0.3323  1.8308
 8956TIP3    H248284   0.339   1.347   1.148  0.1542  0.1003  0.4639
 8957TIP3   OH248285   5.596   4.860   5.436 -0.5607 -0.0510  0.2074
 8957TIP3    H148286   5.662   4.930   5.440  0.7464 -1.2411  0.3739
 8957TIP3    H248287   5.633   4.790   5.490 -2.7359 -0.1709  1.6621
 8958TIP3   OH248288   2.850   3.752  15.973 -0.3440 -0.0334 -0.5847
 8958TIP3    H148289   2.914   3.688  15.943  0.0418 -0.1749  0.4776
 8958TIP3    H248290   2.876   3.834  15.931 -1.2876 -0.6812 -2.5513
 8959TIP3   OH248291   5.839   2.269   0.621 -0.6652  0.1701 -0.6372
 8959TIP3    H148292   5.883   2.215   0.687 -0.3760  0.5387 -0.5241
 8959TIP3    H248293   5.910   2.310   0.572 -0.8810 -0.2008 -1.2624
 8960TIP3   OH248294   5.304   5.550  14.100  0.2041 -0.1075  0.6691
 8960TIP3    H148295   5.238   5.577  14.037 -0.3869 -0.6340  1.0541
 8960TIP3    H248296   5.285   5.458  14.118 -1.0209  0.5299  3.2136
 8961TIP3   OH248297   5.582   5.503   0.572  0.4593  0.2974  0.2622
 8961TIP3    H148298   5.541   5.437   0.516  0.2194  1.0629 -0.4874
 8961TIP3    H248299   5.676   5.485   0.566  0.5159  0.9507 -1.1695
 8962TIP3   OH248300   4.980   3.812   6.071  0.6443  0.6295 -0.2865
 8962TIP3    H148301   5.027   3.729   6.080  1.8968  1.3813  0.5707
 8962TIP3    H248302   5.032   3.874   6.123 -0.7795  1.7406 -0.1378
 8963TIP3   OH248303   5.722   1.584   1.384  0.1679  0.0029  0.1995
 8963TIP3    H148304   5.781   1.649   1.421  0.0960  0.9762 -1.3333
 8963TIP3    H248305   5.779   1.515   1.351  0.4253  0.5590 -0.5467
 8964TIP3   OH248306   2.406   4.734  12.241  0.9629  0.0597  0.2606
 8964TIP3    H148307   2.496   4.758  12.220  0.3637  1.9842 -0.3232
 8964TIP3    H248308   2.369   4.813  12.281 -0.5810 -0.5585  0.1018
 8965TIP3   OH248309   0.258   2.277   1.164  0.0757 -0.1281 -0.4351
 8965TIP3    H148310   0.163   2.265   1.164 -0.1808  1.1721  2.1207
 8965TIP3    H248311   0.285   2.253   1.253  1.6694  2.4465 -0.1293
 8966TIP3   OH248312   6.095   0.714  16.417  0.0124  0.1213 -0.2526
 8966TIP3    H148313   6.029   0.646  16.428  0.5790 -0.5363 -0.8554
 8966TIP3    H248314   6.173   0.667  16.387  1.3328  0.5944  2.1389
 8967TIP3   OH248315   5.256   0.925   0.110  0.1687  0.1238  0.0131
 8967TIP3    H148316   5.164   0.935   0.085  0.3782 -0.0100 -0.8484
 8967TIP3    H248317   5.264   0.832   0.135  0.2024 -0.0218 -0.5206
 8968TIP3   OH248318   0.617   5.568  13.487  0.8099 -0.1268 -0.4694
 8968TIP3    H148319   0.555   5.600  13.422  0.9708 -1.4410 -1.2891
 8968TIP3    H248320   0.629   5.642  13.547 -3.0681 -0.4049  0.9157
 8969TIP3   OH248321   6.236   2.822   2.222 -0.0067 -0.0106  0.1266
 8969TIP3    H148322   6.223   2.914   2.198  0.7057 -0.0940 -0.6244
 8969TIP3    H248323   6.243   2.777   2.138 -3.0924 -1.2081  0.3717
 8970TIP3   OH248324   4.430   0.096  13.985 -0.4641 -0.0706 -0.3004
 8970TIP3    H148325   4.410   0.109  14.077  0.7239  1.9924 -0.2745
 8970TIP3    H248326   4.476   0.012  13.981  1.1945  0.7124  1.2946
 8971TIP3   OH248327   4.495   3.445   4.181  0.2419  0.3057 -0.0905
 8971TIP3    H148328   4.467   3.375   4.241  1.2734  0.4154  0.5435
 8971TIP3    H248329   4.521   3.399   4.101 -0.2858  0.0817 -0.1395
 8972TIP3   OH248330   5.398   2.140  13.490  0.4163  0.1289  0.2053
 8972TIP3    H148331   5.303   2.129  13.484  0.0329  3.0080 -0.9921
 8972TIP3    H248332   5.432   2.053  13.510 -2.3429 -1.3537 -1.0208
 8973TIP3   OH248333   2.042   2.287   6.137  0.1753  0.1523  0.3000
 8973TIP3    H148334   2.036   2.382   6.126  0.8782  0.4092  1.9503
 8973TIP3    H248335   2.012   2.271   6.226  0.3682 -1.1498  0.1459
 8974TIP3   OH248336   1.394   4.353   5.008 -0.1877  0.2189 -0.4326
 8974TIP3    H148337   1.313   4.337   4.959 -0.0992  0.3508 -0.6195
 8974TIP3    H248338   1.450   4.401   4.948 -0.4435  1.2565  0.1303
 8975TIP3   OH248339   3.860   4.036  10.554  0.9889  0.4416  0.4877
 8975TIP3    H148340   3.951   4.054  10.533  0.5066  0.1029 -2.2513
 8975TIP3    H248341   3.849   3.943  10.535 -0.4579  0.9778 -1.6957
 8976TIP3   OH248342   0.203   5.213  10.474  0.4739  0.3980  0.3623
 8976TIP3    H148343   0.123   5.265  10.464 -0.6874 -1.1801  0.9698
 8976TIP3    H248344   0.272   5.268  10.438 -0.9929  1.5075 -0.9068
 8977TIP3   OH248345   1.179   0.812   2.523 -0.4195  0.0937 -0.0056
 8977TIP3    H148346   1.221   0.761   2.593  0.4368  1.6792  0.6717
 8977TIP3    H248347   1.100   0.847   2.563 -0.5741 -0.0078 -0.2207
 8978TIP3   OH248348   3.113   4.582  13.407 -0.1296  0.4348 -0.7092
 8978TIP3    H148349   3.020   4.584  13.431  0.3063  1.6242  1.1520
 8978TIP3    H248350   3.148   4.506  13.453 -0.0891  0.2687 -1.0156
 8979TIP3   OH248351   1.989   0.620  12.636  0.1404 -0.2018  0.4641
 8979TIP3    H148352   1.947   0.684  12.579 -1.0785 -2.2972 -1.1573
 8979TIP3    H248353   2.064   0.666  12.673 -0.0979  1.8299 -1.3553
 8980TIP3   OH248354   6.201   2.036  13.573  0.1615  0.3228 -0.3083
 8980TIP3    H148355   6.140   2.026  13.500  0.3920  0.0046 -0.4601
 8980TIP3    H248356   6.280   2.074  13.533  0.0986  0.6412 -0.1319
 8981TIP3   OH248357   2.145   2.402  14.506  0.4870 -0.0436  0.0998
 8981TIP3    H148358   2.197   2.475  14.476  1.3002 -1.0496 -1.0243
 8981TIP3    H248359   2.134   2.346  14.429  0.4362 -1.4192  1.0598
 8982TIP3   OH248360   5.661   0.561  10.671  0.2392 -0.9109  0.0496
 8982TIP3    H148361   5.709   0.630  10.626  1.4652 -2.1232 -0.5574
 8982TIP3    H248362   5.681   0.574  10.764 -0.7181  0.3996  0.1036
 8983TIP3   OH248363   5.731   2.607   3.451  0.2082  0.1421  0.6307
 8983TIP3    H148364   5.819   2.571   3.445 -0.0696 -0.5434  0.5192
 8983TIP3    H248365   5.731   2.659   3.531  0.2936 -1.0671  1.4413
 8984TIP3   OH248366   0.751   0.365  12.202 -0.2700 -0.0850  0.1583
 8984TIP3    H148367   0.691   0.322  12.140  0.5126 -2.2192  0.7805
 8984TIP3    H248368   0.734   0.322  12.285  1.4154 -0.0487  0.5619
 8985TIP3   OH248369   1.948   4.115  15.512 -0.0083 -0.3635  0.0921
 8985TIP3    H148370   1.945   4.067  15.595 -0.7556 -1.1939 -0.3873
 8985TIP3    H248371   1.891   4.190  15.526 -0.7374 -0.9068  0.1025
 8986TIP3   OH248372   6.580   0.961  13.496 -0.0292 -0.4331 -0.1256
 8986TIP3    H148373   6.571   0.976  13.590 -1.1265 -0.4581 -0.2105
 8986TIP3    H248374   6.646   0.892  13.489 -0.0277 -0.5195  0.6376
 8987TIP3   OH248375   3.518   6.035  13.113 -0.5529  0.4427 -0.6744
 8987TIP3    H148376   3.483   6.010  13.198 -0.3397  1.2267 -0.3498
 8987TIP3    H248377   3.564   5.957  13.082 -1.3715 -0.1325 -0.4748
 8988TIP3   OH248378   1.555   4.408   2.087  0.0115  0.1557  0.5853
 8988TIP3    H148379   1.486   4.347   2.061  0.7125 -1.8712  3.0366
 8988TIP3    H248380   1.543   4.421   2.181  0.9058  2.5727  0.4404
 8989TIP3   OH248381   0.704   0.081   1.907  0.0789 -0.1542  0.1014
 8989TIP3    H148382   0.669  -0.005   1.881  0.6415 -0.2190 -0.4801
 8989TIP3    H248383   0.747   0.113   1.828 -1.7280  1.5198 -0.2765
 8990TIP3   OH248384   4.060   3.375   4.010 -0.0964 -0.0974 -0.2402
 8990TIP3    H148385   4.002   3.351   4.082 -0.0002 -2.3861 -0.8393
 8990TIP3    H248386   4.115   3.445   4.045 -0.3890 -0.8009  1.7639
 8991TIP3   OH248387   1.740   5.415   2.520  0.0949  0.2175  0.7439
 8991TIP3    H148388   1.669   5.420   2.584 -0.9870 -1.1496 -0.2638
 8991TIP3    H248389   1.701   5.444   2.438  0.7575 -0.3195  0.2196
 8992TIP3   OH248390   2.114   2.922   2.182  0.4325 -0.3829 -0.6291
 8992TIP3    H148391   2.026   2.948   2.208  0.6156  0.7681 -1.0747
 8992TIP3    H248392   2.111   2.921   2.086  0.9883 -0.0123 -0.6554
 8993TIP3   OH248393   5.676   0.519   2.698  0.0027  0.1658  0.1607
 8993TIP3    H148394   5.709   0.573   2.771  1.0077  2.0468 -1.5682
 8993TIP3    H248395   5.624   0.580   2.645  0.8363 -0.6351 -1.6613
 8994TIP3   OH248396   2.139   0.524   4.413 -0.1610  0.5086 -0.1512
 8994TIP3    H148397   2.228   0.494   4.434  0.0335 -0.7101 -2.3219
 8994TIP3    H248398   2.108   0.567   4.492  1.8103 -0.3652  1.1728
 8995TIP3   OH248399   0.781   1.634  13.964  0.2191 -0.6727 -0.8821
 8995TIP3    H148400   0.842   1.568  13.996  1.8650  0.7273 -1.0217
 8995TIP3    H248401   0.830   1.716  13.967 -2.0398  0.7336  0.1564
 8996TIP3   OH248402   4.814   3.068  11.676 -0.0136 -0.3530 -0.6399
 8996TIP3    H148403   4.892   3.119  11.701 -0.5306  0.3570 -0.4304
 8996TIP3    H248404   4.822   3.056  11.582  0.1551  0.0551 -0.6792
 8997TIP3   OH248405   4.917   2.043  14.194  0.2237  0.0674  0.2189
 8997TIP3    H148406   4.955   2.025  14.280  1.1667 -4.3391 -0.8962
 8997TIP3    H248407   4.825   2.019  14.204  0.0337  0.7899  0.2723
 8998TIP3   OH248408   0.568   5.721   2.469  0.2797  0.7148 -0.2214
 8998TIP3    H148409   0.482   5.746   2.437  0.8674  0.1140 -2.4089
 8998TIP3    H248410   0.609   5.803   2.497 -1.2710  0.9087  1.7572
 8999TIP3   OH248411   6.380   1.096   4.090  0.0674  0.3800 -0.0522
 8999TIP3    H148412   6.349   1.049   4.012  1.6413 -1.2255  0.2158
 8999TIP3    H248413   6.308   1.090   4.153 -0.5211  0.1068 -0.7404
 9000TIP3   OH248414   2.070   4.985   0.662 -0.1015 -0.0399  0.1225
 9000TIP3    H148415   2.113   5.071   0.665 -1.1504  0.5857 -1.3126
 9000TIP3    H248416   2.027   4.976   0.747 -0.0418  0.9001  0.2659
 9001TIP3   OH248417   1.459   2.278  10.729  0.0016  0.0003  0.1551
 9001TIP3    H148418   1.373   2.258  10.692 -0.2169 -1.0956  1.1869
 9001TIP3    H248419   1.458   2.235  10.815  0.7795  1.7830  1.1090
 9002TIP3   OH248420   3.318   5.953   0.457 -0.2638  0.2235  0.2419
 9002TIP3    H148421   3.393   5.956   0.517  0.7074  0.6562 -0.9707
 9002TIP3    H248422   3.274   6.037   0.470  0.0133  0.3667  0.2532
 9003TIP3   OH248423   3.692   1.113   6.191  0.1620  0.2183 -0.5737
 9003TIP3    H148424   3.749   1.059   6.137  0.4964  0.7035 -0.7135
 9003TIP3    H248425   3.611   1.062   6.199  0.7537 -0.6524 -0.0323
 9004TIP3   OH248426   1.680   2.555   3.894 -0.0732  0.3353 -0.3840
 9004TIP3    H148427   1.600   2.523   3.936 -1.5952  1.2840 -2.3728
 9004TIP3    H248428   1.668   2.536   3.801  1.9426  0.7297 -0.7817
 9005TIP3   OH248429   2.406   0.105  16.512 -0.3886  0.3347 -0.0065
 9005TIP3    H148430   2.438   0.177  16.565 -0.9149  0.2926  0.3764
 9005TIP3    H248431   2.460   0.030  16.537 -0.0773  0.5116 -0.1491
 9006TIP3   OH248432   0.065   2.452  13.750  0.3933  0.8028  0.2787
 9006TIP3    H148433   0.059   2.473  13.843 -0.2873  3.3864 -0.2764
 9006TIP3    H248434   0.068   2.356  13.748 -1.3169  0.5841  2.8596
 9007TIP3   OH248435   4.527   4.239   2.746 -0.0682  0.0114 -0.1312
 9007TIP3    H148436   4.546   4.181   2.819  2.0772 -0.9446 -1.3452
 9007TIP3    H248437   4.551   4.189   2.668  1.7518  2.4124 -1.2512
 9008TIP3   OH248438   3.195   5.995   2.639 -0.5691 -0.7409  0.5837
 9008TIP3    H148439   3.284   6.030   2.635 -0.4831 -0.6874  2.3714
 9008TIP3    H248440   3.183   5.970   2.730 -2.8044  0.3294  0.6321
 9009TIP3   OH248441   6.513   0.640   1.532 -0.1686 -0.1475 -0.2404
 9009TIP3    H148442   6.579   0.709   1.531  0.2265 -0.5079 -1.5898
 9009TIP3    H248443   6.504   0.615   1.440 -1.1208 -1.1173  0.0998
 9010TIP3   OH248444   6.628   3.694  14.116 -0.2795  0.3426  0.9251
 9010TIP3    H148445   6.635   3.668  14.208  1.2747 -2.8811  0.0408
 9010TIP3    H248446   6.715   3.675  14.080 -1.1797  0.4948 -1.4541
 9011TIP3   OH248447   3.950   2.572  11.474 -0.0744 -0.5576 -0.7344
 9011TIP3    H148448   4.032   2.523  11.479 -0.8158 -2.1686 -2.8090
 9011TIP3    H248449   3.886   2.516  11.518 -0.3720  0.0266 -0.4054
 9012TIP3   OH248450   6.474   3.147   1.108 -0.6364  0.0825 -0.1351
 9012TIP3    H148451   6.435   3.123   1.192 -0.9649  0.2046 -0.2483
 9012TIP3    H248452   6.440   3.235   1.090 -0.2269  0.2322 -0.1894
 9013TIP3   OH248453   0.571   0.203   5.961 -0.1140 -0.5170  0.0023
 9013TIP3    H148454   0.509   0.136   5.989 -2.2779  1.7751  1.0013
 9013TIP3    H248455   0.557   0.210   5.866 -2.9626  1.2666  0.4198
 9014TIP3   OH248456   2.080   6.565   0.604 -0.2318  0.4295 -0.0134
 9014TIP3    H148457   2.011   6.568   0.670 -0.0660  2.4012  0.1333
 9014TIP3    H248458   2.156   6.606   0.647  0.3844  0.2397 -0.8887
 9015TIP3   OH248459   4.785   5.401  11.783  0.0313  0.3027 -0.5164
 9015TIP3    H148460   4.836   5.358  11.851 -0.5023 -0.3775 -0.5371
 9015TIP3    H248461   4.828   5.374  11.701 -0.4223 -0.3613 -0.5402
 9016TIP3   OH248462   6.548   3.942   4.497 -0.5824  0.3758  0.1574
 9016TIP3    H148463   6.478   3.960   4.433 -0.6325 -1.6451 -0.4402
 9016TIP3    H248464   6.629   3.949   4.446 -0.4952  0.5396  0.3171
 9017TIP3   OH248465   4.043   3.546  16.531 -0.0808 -0.7144 -0.5255
 9017TIP3    H148466   3.974   3.551  16.598 -1.0260  0.6511 -1.5363
 9017TIP3    H248467   4.124   3.539  16.581 -0.8580 -1.1866  0.7260
 9018TIP3   OH248468   1.942   3.999  10.964  0.2884 -0.4742 -0.6399
 9018TIP3    H148469   1.874   4.061  10.991 -0.5396 -1.5675 -0.0944
 9018TIP3    H248470   1.901   3.948  10.894  0.9429 -0.4259 -1.0610
 9019TIP3   OH248471   5.701   5.804  14.382 -0.2056 -0.3888  0.1395
 9019TIP3    H148472   5.629   5.750  14.349 -1.5549  0.3925  1.6159
 9019TIP3    H248473   5.732   5.853  14.306 -2.2089  0.2892 -0.3127
 9020TIP3   OH248474   0.036   6.219  13.560 -0.1079 -0.2744 -0.7480
 9020TIP3    H148475   0.041   6.128  13.590 -1.4988 -0.8029 -2.0084
 9020TIP3    H248476   0.126   6.241  13.535  0.5659 -0.7191  1.1195
 9021TIP3   OH248477   5.810   4.899  14.390  0.0184 -0.4419 -0.5693
 9021TIP3    H148478   5.866   4.822  14.406  0.4401 -0.2111 -0.9162
 9021TIP3    H248479   5.740   4.891  14.454  0.2842 -0.9020 -0.3302
 9022TIP3   OH248480   6.226   0.490  11.423 -0.3273  0.1625  0.2387
 9022TIP3    H148481   6.211   0.549  11.350 -0.0654  0.6511  0.5698
 9022TIP3    H248482   6.187   0.534  11.499 -0.2449 -0.1490  0.4678
 9023TIP3   OH248483   4.609   6.737   1.310 -0.2588 -0.2692  0.2030
 9023TIP3    H148484   4.601   6.810   1.372  0.6760 -1.2141  1.5028
 9023TIP3    H248485   4.540   6.676   1.338 -0.3652 -0.3445 -0.2241
 9024TIP3   OH248486   6.797   2.096   0.611 -0.6765  0.8029 -0.1922
 9024TIP3    H148487   6.831   2.009   0.630  2.2912  2.0926  1.0779
 9024TIP3    H248488   6.830   2.116   0.523 -0.2178  1.1194  0.0472
 9025TIP3   OH248489   6.449   1.596   1.424  0.4166 -0.2471 -0.1195
 9025TIP3    H148490   6.380   1.556   1.370 -0.1860 -0.9446  1.1201
 9025TIP3    H248491   6.415   1.684   1.444  1.0417  0.3510 -1.5651
 9026TIP3   OH248492   6.107   1.341  11.018 -0.4144 -0.4109  0.1109
 9026TIP3    H148493   6.171   1.286  10.973  0.8661  0.6372  0.5927
 9026TIP3    H248494   6.148   1.427  11.022  0.1063 -0.6749  4.2906
 9027TIP3   OH248495   4.883   3.228   6.025 -0.0721  0.1971  0.5259
 9027TIP3    H148496   4.928   3.282   6.089 -0.6817  0.7948  0.4668
 9027TIP3    H248497   4.869   3.144   6.069  2.0937 -0.4247  0.1544
 9028TIP3   OH248498   3.307   1.903   3.842  0.5473 -0.6706 -0.6629
 9028TIP3    H148499   3.301   1.811   3.866  0.4795 -0.9467 -1.6956
 9028TIP3    H248500   3.361   1.905   3.763  2.3867  0.4049  0.5637
 9029TIP3   OH248501   3.621   5.476   1.546  0.1591 -0.0532  0.0997
 9029TIP3    H148502   3.538   5.464   1.591  0.8936  0.5236  1.6686
 9029TIP3    H248503   3.662   5.389   1.547 -0.1953 -0.2286 -0.2351
 9030TIP3   OH248504   5.763   4.907   4.613  1.0116  0.1018  0.1185
 9030TIP3    H148505   5.748   4.897   4.707  0.3058  3.4629  0.5063
 9030TIP3    H248506   5.856   4.926   4.605  0.7571  1.6175  0.4195
 9031TIP3   OH248507   2.007   2.045   1.758 -0.2662  0.3299  0.4443
 9031TIP3    H148508   1.928   2.099   1.751  1.1695  2.8679  2.2139
 9031TIP3    H248509   2.079   2.108   1.759  1.5490 -1.6168  2.3492
 9032TIP3   OH248510   0.017   4.293  11.801  0.0789  0.0485  0.2404
 9032TIP3    H148511   0.112   4.285  11.795  0.1645  1.3759 -0.6430
 9032TIP3    H248512  -0.013   4.299  11.710 -0.7290  0.7794  0.5390
 9033TIP3   OH248513   0.395   3.489  15.604 -0.2949  0.5323 -0.1589
 9033TIP3    H148514   0.446   3.494  15.523  0.9145  1.4880  0.6199
 9033TIP3    H248515   0.459   3.508  15.673 -0.6778 -2.8363  1.2857
 9034TIP3   OH248516   0.435   2.110   4.792 -0.0300  0.2431 -0.3814
 9034TIP3    H148517   0.524   2.138   4.770  0.2866  0.0555  0.6177
 9034TIP3    H248518   0.405   2.063   4.713  1.6134 -1.6863  0.0416
 9035TIP3   OH248519   6.419   6.772  16.857 -0.3817 -0.3479  0.1358
 9035TIP3    H148520   6.386   6.860  16.875  1.1792  0.6525 -1.5343
 9035TIP3    H248521   6.501   6.768  16.907 -1.2543 -1.5441  1.5603
 9036TIP3   OH248522   0.524   5.415   0.135 -0.4567  0.0809 -0.0267
 9036TIP3    H148523   0.525   5.438   0.042 -0.5399  1.4727  0.2830
 9036TIP3    H248524   0.496   5.496   0.178 -0.5578 -0.5903  1.1980
 9037TIP3   OH248525   2.376   6.769  13.456  0.1199  0.0944 -0.0648
 9037TIP3    H148526   2.281   6.774  13.445  0.0843 -0.2058  0.0747
 9037TIP3    H248527   2.409   6.855  13.430 -0.4378  1.1586  2.4563
 9038TIP3   OH248528   1.604   1.065   0.739 -0.2990  0.4286  0.2120
 9038TIP3    H148529   1.590   1.085   0.832  0.4628  1.1436  0.1760
 9038TIP3    H248530   1.663   1.133   0.708  0.9688 -0.8714 -0.3395
 9039TIP3   OH248531   6.611   5.664  11.719 -0.3496  0.0562  0.0008
 9039TIP3    H148532   6.575   5.599  11.659 -0.5404  0.9902 -0.9269
 9039TIP3    H248533   6.699   5.681  11.686  0.3373 -0.9358  1.2363
 9040TIP3   OH248534   1.683   3.309   4.516  0.3434 -0.9442  0.2633
 9040TIP3    H148535   1.661   3.370   4.446  0.8129 -0.6731  0.3451
 9040TIP3    H248536   1.602   3.262   4.534  0.1753 -0.8832 -0.3330
 9041TIP3   OH248537   5.524   0.090  16.617 -0.3438  0.1483 -0.1321
 9041TIP3    H148538   5.575   0.073  16.696  0.0823  1.5332 -0.0879
 9041TIP3    H248539   5.439   0.120  16.650 -1.1754 -1.9264 -0.2078
 9042TIP3   OH248540   4.659   2.005  11.377 -0.0808 -0.3735 -0.3293
 9042TIP3    H148541   4.747   1.976  11.401  0.1000  0.7993  0.5551
 9042TIP3    H248542   4.666   2.032  11.286  0.6081  0.1419 -0.1346
 9043TIP3   OH248543   5.101   0.947   1.929 -0.3514 -0.7050 -0.5401
 9043TIP3    H148544   5.133   0.895   2.003  0.3987  0.1278 -0.2704
 9043TIP3    H248545   5.128   0.897   1.852 -0.0256 -0.9363 -0.2798
 9044TIP3   OH248546   6.344   2.311   6.012  0.4256  0.6016  0.1243
 9044TIP3    H148547   6.422   2.307   6.067  1.6874  0.7008 -1.5553
 9044TIP3    H248548   6.274   2.278   6.067  1.7532  0.0151  1.5434
 9045TIP3   OH248549   5.177   2.865   0.137  0.3023 -0.2310  0.5471
 9045TIP3    H148550   5.203   2.927   0.205 -2.0177  1.3125  0.1484
 9045TIP3    H248551   5.228   2.890   0.060  0.3677  0.3210  0.7669
 9046TIP3   OH248552   3.672   4.285  11.478  0.0199 -0.1358 -0.1395
 9046TIP3    H148553   3.614   4.232  11.424  0.2354 -0.8558  0.3338
 9046TIP3    H248554   3.690   4.232  11.556  1.0935  0.1840 -0.1469
 9047TIP3   OH248555   5.182   4.022   2.733  0.0566  0.0494  0.2040
 9047TIP3    H148556   5.168   3.986   2.645 -2.5444  0.5798  0.3221
 9047TIP3    H248557   5.169   3.947   2.791  0.4180 -0.0103  0.2120
 9048TIP3   OH248558   0.008   0.631   6.252 -0.5405  0.5374  0.0902
 9048TIP3    H148559   0.015   0.723   6.276  2.0025  1.1380 -2.4060
 9048TIP3    H248560   0.046   0.584   6.326 -0.7464  1.5773  0.8702
 9049TIP3   OH248561   5.888   5.839  10.096 -0.5603  0.3624 -0.0305
 9049TIP3    H148562   5.969   5.840  10.146 -1.2129  0.0580  1.0669
 9049TIP3    H248563   5.866   5.932  10.084 -0.3758  0.4360  0.2071
 9050TIP3   OH248564   6.272   0.143  12.393 -0.1672 -0.0756 -0.2692
 9050TIP3    H148565   6.237   0.117  12.307 -1.0314 -0.9530  0.3236
 9050TIP3    H248566   6.353   0.092  12.402 -1.4492 -2.0881  0.5479
 9051TIP3   OH248567   4.002   4.559  14.298 -0.3221 -0.0570  0.7897
 9051TIP3    H148568   4.013   4.473  14.337 -0.5425 -0.3554  0.2000
 9051TIP3    H248569   3.935   4.601  14.351 -2.6792 -1.4908 -0.8946
 9052TIP3   OH248570   5.158   4.083  13.488  0.3890  0.5988  0.0179
 9052TIP3    H148571   5.239   4.113  13.445  1.1001 -1.2992 -0.0896
 9052TIP3    H248572   5.157   3.988  13.473  0.2547 -0.0756  3.4630
 9053TIP3   OH248573   0.757   1.766   3.190 -0.2328  0.5952  0.4417
 9053TIP3    H148574   0.835   1.734   3.235  0.2071  1.0786  0.0208
 9053TIP3    H248575   0.689   1.764   3.257  0.4836  1.6031  1.2227
 9054TIP3   OH248576   2.604   3.197   1.592  0.3023 -0.0685 -0.2541
 9054TIP3    H148577   2.568   3.283   1.569  0.3348  0.3135  1.0459
 9054TIP3    H248578   2.673   3.216   1.655  2.9113 -0.7696 -2.6481
 9055TIP3   OH248579   0.687   0.959   4.202 -0.0036 -0.5233 -0.3820
 9055TIP3    H148580   0.637   0.902   4.144  0.1043 -0.0091 -0.9901
 9055TIP3    H248581   0.729   1.022   4.143 -0.0599  0.1354  0.2719
 9056TIP3   OH248582   6.219   5.939   3.065 -0.0600 -0.1948 -0.0354
 9056TIP3    H148583   6.125   5.923   3.070 -0.2193  0.3536 -0.9945
 9056TIP3    H248584   6.239   5.987   3.145 -0.0581 -2.6875  1.5657
 9057TIP3   OH248585   6.566   0.148   5.104 -0.2248 -0.2695 -0.1538
 9057TIP3    H148586   6.639   0.187   5.152 -1.0904  0.3466  0.7158
 9057TIP3    H248587   6.509   0.222   5.083 -1.2429 -0.8883  0.3473
 9058TIP3   OH248588   1.823   3.559  13.879 -0.1888 -0.4495  0.1323
 9058TIP3    H148589   1.862   3.644  13.857 -0.0444 -0.3696  0.6599
 9058TIP3    H248590   1.781   3.529  13.799 -2.1974  1.1677  0.5119
 9059TIP3   OH248591   1.098   3.445   2.882  0.3383  0.0961 -0.2309
 9059TIP3    H148592   1.056   3.395   2.813  0.2671  0.8940 -0.7746
 9059TIP3    H248593   1.055   3.415   2.963  0.9168 -1.3618 -0.4233
 9060TIP3   OH248594   2.059   4.032  13.091  0.4374  0.3247 -0.1728
 9060TIP3    H148595   2.091   4.021  13.002  1.0930  2.8736 -0.3373
 9060TIP3    H248596   2.134   4.013  13.147  0.5037  0.3457 -0.2551
 9061TIP3   OH248597   5.603   2.825   1.455  0.0815  0.2814 -0.0661
 9061TIP3    H148598   5.663   2.846   1.383  0.4169 -0.8003 -0.1286
 9061TIP3    H248599   5.659   2.787   1.522 -0.3117  0.7806  0.5527
 9062TIP3   OH248600   0.431   2.485  13.132 -0.2479 -0.3215 -0.0171
 9062TIP3    H148601   0.425   2.392  13.111  0.8931 -0.4038 -0.0439
 9062TIP3    H248602   0.343   2.519  13.118 -0.5017 -1.2423 -0.7377
 9063TIP3   OH248603   2.539   1.735   1.880 -0.5035  0.0090 -1.1055
 9063TIP3    H148604   2.549   1.650   1.839  1.6227 -0.4264  0.1166
 9063TIP3    H248605   2.507   1.716   1.969  1.9363  0.1993 -0.0984
 9064TIP3   OH248606   5.912   3.628  14.647 -0.2135  0.0353 -0.6445
 9064TIP3    H148607   5.966   3.577  14.708 -0.0579  0.7195 -0.1971
 9064TIP3    H248608   5.938   3.597  14.560 -3.5515 -4.2226 -0.4542
 9065TIP3   OH248609   4.583   1.075   1.620 -0.2664 -0.1522 -0.5959
 9065TIP3    H148610   4.646   1.145   1.602 -0.4850  0.3700  0.5439
 9065TIP3    H248611   4.552   1.048   1.533 -0.5596  1.5401 -1.0681
 9066TIP3   OH248612   2.031   3.282  13.742 -0.1503 -0.1605 -0.1070
 9066TIP3    H148613   1.969   3.346  13.706 -2.3620 -1.8683  0.4144
 9066TIP3    H248614   1.989   3.197  13.727  2.1163 -1.4229  0.2894
 9067TIP3   OH248615   1.941   0.314  14.995  0.5321  0.3026  0.0358
 9067TIP3    H148616   1.898   0.336  14.912 -0.6821  0.4792  0.6851
 9067TIP3    H248617   2.012   0.377  15.004  0.5287  0.4255 -0.7563
 9068TIP3   OH248618   0.553   1.101   0.707  0.4773  0.2669  0.0686
 9068TIP3    H148619   0.576   1.091   0.614  1.2047  0.2026  0.2547
 9068TIP3    H248620   0.466   1.141   0.705  0.0134 -0.7257 -0.6453
 9069TIP3   OH248621   5.585   3.932   5.980 -0.5921  0.0611  0.4869
 9069TIP3    H148622   5.672   3.920   5.944  0.1028  1.4219  1.6233
 9069TIP3    H248623   5.531   3.957   5.905  0.0805 -0.3820 -0.1556
 9070TIP3   OH248624   5.831   5.149   2.014  0.8775 -0.5565  0.1009
 9070TIP3    H148625   5.847   5.205   1.938 -3.4808  2.1602  0.8177
 9070TIP3    H248626   5.868   5.197   2.088  1.7639 -1.3351  0.1872
 9071TIP3   OH248627   1.426   6.540   1.081 -0.0345 -0.3344 -0.5948
 9071TIP3    H148628   1.367   6.513   1.011 -1.5762  1.1381  0.0442
 9071TIP3    H248629   1.444   6.632   1.063  1.2222 -0.4875 -0.1783
 9072TIP3   OH248630   0.296   0.154  12.940 -0.2750 -0.2961  0.2527
 9072TIP3    H148631   0.346   0.163  13.021  0.4536 -1.5557 -0.0209
 9072TIP3    H248632   0.231   0.224  12.944  0.1451  0.0555  1.6255
 9073TIP3   OH248633   3.589   5.211   2.646  0.1221  0.7444  0.2775
 9073TIP3    H148634   3.589   5.286   2.706 -0.3411  0.9018  0.0803
 9073TIP3    H248635   3.607   5.249   2.560  1.7944  0.4051  0.4443
 9074TIP3   OH248636   0.543   2.490   4.876 -0.4122 -0.1878 -0.0927
 9074TIP3    H148637   0.547   2.518   4.968 -0.4684 -0.9045  0.1325
 9074TIP3    H248638   0.577   2.564   4.827  2.2544 -0.7851  0.7137
 9075TIP3   OH248639   1.592   4.842   1.799 -0.0741 -0.3151  0.3160
 9075TIP3    H148640   1.530   4.840   1.872 -1.3292  0.9728 -0.6379
 9075TIP3    H248641   1.678   4.836   1.840 -0.7881 -1.0344  1.7789
 9076TIP3   OH248642   6.194   3.784  13.687 -0.3899  0.4632 -0.0150
 9076TIP3    H148643   6.122   3.764  13.747  0.4966 -1.0710  0.5781
 9076TIP3    H248644   6.253   3.710  13.695  1.0620  1.4963 -0.8088
 9077TIP3   OH248645   6.504   0.061  12.840 -0.6156  0.2418  0.1799
 9077TIP3    H148646   6.448  -0.016  12.834  0.9576 -0.8716 -1.3017
 9077TIP3    H248647   6.548   0.053  12.924 -1.7974  0.5125  0.8349
 9078TIP3   OH248648   1.597   5.545   0.722  0.4030 -0.0875 -0.6461
 9078TIP3    H148649   1.508   5.577   0.741  1.0742  0.7584  1.3460
 9078TIP3    H248650   1.585   5.453   0.699 -0.9880 -0.0027 -0.3471
 9079TIP3   OH248651   0.666   1.673   1.172 -0.4536 -0.2660  0.1677
 9079TIP3    H148652   0.706   1.587   1.157 -2.0692 -0.8683 -1.0220
 9079TIP3    H248653   0.707   1.731   1.108 -0.6231 -0.5875 -0.2346
 9080TIP3   OH248654   6.642   3.373  13.954  0.2938 -0.4016 -0.7575
 9080TIP3    H148655   6.674   3.300  14.008  2.7162  0.8837 -0.3048
 9080TIP3    H248656   6.576   3.416  14.009  1.4489 -0.1597  0.4969
 9081TIP3   OH248657   1.052   3.126   2.300  0.4009  0.1407  0.0294
 9081TIP3    H148658   1.005   3.045   2.283  1.0976 -0.1177 -0.7173
 9081TIP3    H248659   1.081   3.118   2.391 -0.2761 -0.0566  0.2343
 9082TIP3   OH248660   4.332   3.652  11.878  0.6470  0.9207 -0.6171
 9082TIP3    H148661   4.273   3.664  11.952  0.3017  1.1393 -0.9243
 9082TIP3    H248662   4.337   3.557  11.866  0.7098  0.8858 -0.3098
 9083TIP3   OH248663   5.313   2.094  12.768  0.5057  0.2576 -0.5919
 9083TIP3    H148664   5.398   2.107  12.809  0.6814  2.5057 -1.5244
 9083TIP3    H248665   5.332   2.074  12.677  0.0915  1.8855 -1.0791
 9084TIP3   OH248666   0.467   3.065   6.225 -0.0397  0.0623 -0.0955
 9084TIP3    H148667   0.555   3.027   6.220 -0.3414 -0.4965 -1.5143
 9084TIP3    H248668   0.481   3.156   6.251  1.0736  0.3700 -1.6561
 9085TIP3   OH248669   2.292   4.711  14.642 -0.2347  0.3642  0.4866
 9085TIP3    H148670   2.362   4.775  14.631 -0.2273  0.1839 -0.6970
 9085TIP3    H248671   2.217   4.763  14.671 -1.0394  1.4991 -3.0531
 9086TIP3   OH248672   4.961   0.353  12.215 -0.5649 -0.1132  0.1859
 9086TIP3    H148673   4.956   0.271  12.165 -0.2345 -0.3615  0.5565
 9086TIP3    H248674   4.916   0.334  12.298  0.1244 -0.1360  0.5579
 9087TIP3   OH248675   0.366   4.848  12.400 -0.3503 -0.0165  0.3454
 9087TIP3    H148676   0.414   4.786  12.346 -0.3866 -0.2838  0.6143
 9087TIP3    H248677   0.304   4.794  12.450 -1.8091  0.4365 -0.8973
 9088TIP3   OH248678   6.241   2.675  13.832 -0.4596  0.0849  0.6728
 9088TIP3    H148679   6.260   2.642  13.744 -0.2463 -0.6872  1.0076
 9088TIP3    H248680   6.295   2.622  13.890 -1.7116 -0.4321  1.4143
 9089TIP3   OH248681   1.170   2.889   0.671 -0.3189 -0.0032  0.1246
 9089TIP3    H148682   1.247   2.845   0.635 -0.9930  0.8682 -2.6356
 9089TIP3    H248683   1.205   2.955   0.731  0.8656 -1.6811  1.3561
 9090TIP3   OH248684   1.755   1.965   0.803  0.3085  0.8473 -0.0310
 9090TIP3    H148685   1.706   1.893   0.842  1.2525  1.0427  1.6086
 9090TIP3    H248686   1.755   2.033   0.870  1.0072  1.6602 -0.8244
 9091TIP3   OH248687   0.883   1.428   3.745  0.3682 -0.1406 -0.1689
 9091TIP3    H148688   0.867   1.511   3.789  0.1622 -0.4593  0.3785
 9091TIP3    H248689   0.919   1.371   3.814 -2.0784 -1.3529  0.2214
 9092TIP3   OH248690   2.036   1.209  12.578  0.0935 -0.4442 -0.2805
 9092TIP3    H148691   1.992   1.196  12.662 -0.6707  2.5968 -0.0808
 9092TIP3    H248692   2.128   1.226  12.601  0.2603 -1.3071 -0.2537
 9093TIP3   OH248693   2.207   3.061   0.240 -0.4597  0.1700  0.0610
 9093TIP3    H148694   2.298   3.091   0.238 -0.6351  0.6955 -0.7982
 9093TIP3    H248695   2.200   3.001   0.166 -0.3722 -1.2598  1.1745
 9094TIP3   OH248696   3.125   2.729   0.197  0.5239 -0.2560  0.2045
 9094TIP3    H148697   3.053   2.790   0.183  2.2333  1.4356 -1.9449
 9094TIP3    H248698   3.147   2.738   0.289 -0.9302  0.4027  0.5130
 9095TIP3   OH248699   2.073   5.875   0.008  0.1165 -0.4342 -0.7666
 9095TIP3    H148700   1.980   5.894   0.025  0.3951 -0.6001  1.1995
 9095TIP3    H248701   2.082   5.782   0.029  0.4836 -0.7291 -2.1697
 9096TIP3   OH248702   3.891   0.828  16.872  0.1875  0.0817  0.3176
 9096TIP3    H148703   3.912   0.809  16.963 -4.5383  0.5355  1.7978
 9096TIP3    H248704   3.918   0.919  16.859  0.1969  0.2805  1.5686
 9097TIP3   OH248705   4.456   2.373   1.027  0.8130 -0.2795  0.4381
 9097TIP3    H148706   4.419   2.459   1.050 -0.8916 -0.8458 -0.0369
 9097TIP3    H248707   4.443   2.366   0.933  0.0416 -1.4438  0.6108
 9098TIP3   OH248708   2.896   6.590   0.140  0.0526 -0.0711 -0.1535
 9098TIP3    H148709   2.967   6.654   0.146 -1.3271  1.3728  2.2817
 9098TIP3    H248710   2.937   6.513   0.100  2.8404  0.8731  0.6171
 9099TIP3   OH248711   3.251   1.222   1.507  0.2172 -0.4958 -0.4993
 9099TIP3    H148712   3.288   1.202   1.421 -2.7491 -0.8800 -1.7904
 9099TIP3    H248713   3.193   1.297   1.492 -2.9586 -2.5729  0.3364
 9100TIP3   OH248714   2.708   2.120  13.092 -0.1481 -0.0670  0.0441
 9100TIP3    H148715   2.699   2.166  13.008  2.1142 -1.0229 -0.8222
 9100TIP3    H248716   2.624   2.078  13.106 -0.5048 -0.0953 -1.9044
 9101TIP3   OH248717   5.491   3.060  11.131 -0.0541  0.1718 -0.1323
 9101TIP3    H148718   5.584   3.060  11.109  0.0706  0.5567  0.3595
 9101TIP3    H248719   5.489   3.029  11.222 -0.4477 -0.2848 -0.2945
 9102TIP3   OH248720   5.993   0.383  13.684  0.4246 -0.2524  0.1790
 9102TIP3    H148721   6.052   0.436  13.630  2.4915  0.8435  3.2339
 9102TIP3    H248722   5.992   0.298  13.641  2.1619  0.4706 -1.4527
 9103TIP3   OH248723   2.794   6.722  14.497 -0.3529  0.0486  0.2734
 9103TIP3    H148724   2.846   6.727  14.577 -0.8131 -1.1711  0.6688
 9103TIP3    H248725   2.843   6.773  14.433  1.1519 -0.7821  0.7273
 9104TIP3   OH248726   0.092   0.303  12.049 -0.3669 -0.8198  0.0136
 9104TIP3    H148727   0.109   0.219  12.093 -2.3285 -0.7862  0.9482
 9104TIP3    H248728   0.007   0.291  12.007 -0.7954  0.7654  0.3687
 9105TIP3   OH248729   4.302   1.786  15.837 -0.1441  0.3426  0.5026
 9105TIP3    H148730   4.258   1.856  15.886 -1.4497  1.3607 -1.9517
 9105TIP3    H248731   4.385   1.825  15.809 -1.3193  1.4395 -1.7672
 9106TIP3   OH248732   0.039   4.807   2.754  0.8918  0.2846 -0.3798
 9106TIP3    H148733   0.025   4.830   2.846 -0.4418 -0.3412 -0.4007
 9106TIP3    H248734   0.118   4.855   2.729  1.4759  0.2009  1.1822
 9107TIP3   OH248735   3.352   0.125  11.557 -0.2633  0.9523  0.5280
 9107TIP3    H148736   3.402   0.057  11.603 -1.6354 -0.4025  0.0960
 9107TIP3    H248737   3.416   0.194  11.540  0.5906  0.9536  3.2717
 9108TIP3   OH248738   4.026   1.991   1.861  0.5369 -0.0188 -0.1830
 9108TIP3    H148739   4.076   2.055   1.912 -0.0557  0.0356  0.3490
 9108TIP3    H248740   4.088   1.957   1.796  0.9526  0.8253 -0.2309
 9109TIP3   OH248741   3.484   2.940   0.935 -0.4404  0.0250  0.4846
 9109TIP3    H148742   3.575   2.958   0.960 -0.2744  1.8273 -1.2430
 9109TIP3    H248743   3.490   2.862   0.880 -0.1866 -0.8514  1.7065
 9110TIP3   OH248744   3.140   3.152  12.030 -0.0373 -0.1309  1.2580
 9110TIP3    H148745   3.056   3.120  12.065 -1.6649  0.7731 -1.5346
 9110TIP3    H248746   3.195   3.074  12.027 -1.8850 -1.4935  0.2241
 9111TIP3   OH248747   0.019   3.685   2.632  0.3663 -0.2992 -0.1701
 9111TIP3    H148748  -0.019   3.597   2.638 -0.0590 -0.1518 -0.6859
 9111TIP3    H248749   0.069   3.694   2.713  0.0988 -0.8697  0.0671
 9112TIP3   OH248750   1.712   5.684  12.848 -0.2887  0.0572  0.2880
 9112TIP3    H148751   1.712   5.729  12.763 -0.1985  0.4654  0.4983
 9112TIP3    H248752   1.803   5.658  12.861 -0.3224 -0.0990  0.2124
 9113TIP3   OH248753   1.224   3.649   4.071  0.0614  0.1795 -0.5018
 9113TIP3    H148754   1.216   3.557   4.098  1.2588  0.3455  0.5148
 9113TIP3    H248755   1.209   3.699   4.151  1.6654  0.7817 -0.5511
 9114TIP3   OH248756   3.971   5.053  12.201  0.2507 -0.4874  0.5674
 9114TIP3    H148757   4.021   4.995  12.144 -1.4077 -0.5663 -0.9201
 9114TIP3    H248758   3.895   5.079  12.148 -0.7524  0.4229  2.3375
 9115TIP3   OH248759   3.767   3.259  12.567 -0.5902  0.2891  0.0368
 9115TIP3    H148760   3.715   3.228  12.640 -0.8787  0.9334  0.1067
 9115TIP3    H248761   3.711   3.322  12.522 -0.8337 -0.8628 -1.3671
 9116TIP3   OH248762   2.436   0.282   6.503  0.3655  0.1496  0.0165
 9116TIP3    H148763   2.521   0.306   6.540 -0.2822 -0.1212  1.7668
 9116TIP3    H248764   2.385   0.363   6.507  0.3634  0.1815 -0.5565
 9117TIP3   OH248765   5.332   5.723   5.522 -0.3639 -0.0979  0.4995
 9117TIP3    H148766   5.368   5.639   5.551 -0.0177 -0.0601  0.1834
 9117TIP3    H248767   5.347   5.782   5.596  0.6438  0.0328  0.1986
 9118TIP3   OH248768   5.082   1.829   5.704 -0.1676 -0.0090 -0.0304
 9118TIP3    H148769   5.133   1.910   5.708  0.4675 -0.3346 -1.1515
 9118TIP3    H248770   5.141   1.761   5.735  0.0553 -0.3596 -1.1553
 9119TIP3   OH248771   4.619   6.757  13.067 -0.3748 -0.3551  0.0608
 9119TIP3    H148772   4.626   6.770  13.162 -0.4183 -1.8366  0.2900
 9119TIP3    H248773   4.616   6.846  13.031  2.8575  0.3668  1.1929
 9120TIP3   OH248774   0.292   1.646  13.843  0.2412 -0.6303 -0.0895
 9120TIP3    H148775   0.297   1.559  13.804 -0.3193  0.1261 -1.9904
 9120TIP3    H248776   0.255   1.701  13.774  1.8945  1.4200  0.5344
 9121TIP3   OH248777   6.357   0.006  15.541  0.1766 -0.7671  0.4047
 9121TIP3    H148778   6.324   0.066  15.473 -0.3230  0.9397  2.0549
 9121TIP3    H248779   6.304  -0.073  15.530 -0.7889 -0.0479 -0.3895
 9122TIP3   OH248780   3.818   1.022   2.855 -0.1379  0.1878  0.4079
 9122TIP3    H148781   3.790   1.027   2.947 -1.4609  0.2075  0.0308
 9122TIP3    H248782   3.746   0.975   2.812 -0.1326  1.3067 -0.8524
 9123TIP3   OH248783   4.555   6.487  12.633 -0.1628 -0.0829 -0.4305
 9123TIP3    H148784   4.590   6.480  12.544  1.3943 -0.8725  0.2081
 9123TIP3    H248785   4.460   6.496  12.620  0.1935  1.9787 -2.2183
 9124TIP3   OH248786   1.793   5.258   4.925 -0.2539  0.1867  0.1625
 9124TIP3    H148787   1.846   5.298   4.994 -0.6384 -0.4289  0.8326
 9124TIP3    H248788   1.704   5.260   4.961 -0.3109 -1.0386  0.1020
 9125TIP3   OH248789   1.166   3.772   3.813 -0.2628 -0.1404 -0.3643
 9125TIP3    H148790   1.209   3.741   3.893  0.2441  0.9435 -0.2061
 9125TIP3    H248791   1.238   3.799   3.756 -0.5924 -1.3982 -1.4227
 9126TIP3   OH248792   3.457   6.627  15.734  0.2201 -0.7971 -0.7009
 9126TIP3    H148793   3.500   6.713  15.739 -0.6761 -0.3565 -0.2241
 9126TIP3    H248794   3.495   6.586  15.657  0.0888  0.3542 -1.4064
 9127TIP3   OH248795   6.243   3.858  12.662 -0.8134 -0.4621 -0.6021
 9127TIP3    H148796   6.302   3.783  12.668 -0.2317 -0.0581 -1.1160
 9127TIP3    H248797   6.184   3.848  12.736 -0.3591 -1.1053 -0.3160
 9128TIP3   OH248798   5.194   2.476  12.244  0.3605  0.3429  0.1148
 9128TIP3    H148799   5.187   2.535  12.319  0.5520  0.3440  0.1333
 9128TIP3    H248800   5.288   2.474  12.225  0.5178 -0.9496  0.9090
 9129TIP3   OH248801   0.184   6.407  13.437  0.1217  0.0046  0.4854
 9129TIP3    H148802   0.228   6.492  13.444  1.4299 -0.7097  1.7152
 9129TIP3    H248803   0.091   6.428  13.426  0.4189  1.5882  0.7761
 9130TIP3   OH248804   5.600   4.514   2.077 -0.1908  0.1660 -0.6475
 9130TIP3    H148805   5.580   4.422   2.092  0.9440  0.2272  1.7933
 9130TIP3    H248806   5.564   4.560   2.153  1.9317  1.2653 -0.2007
 9131TIP3   OH248807   1.948   3.786  12.237 -0.0899  0.9025  0.1984
 9131TIP3    H148808   2.041   3.801  12.227 -0.1846  1.2035 -0.2516
 9131TIP3    H248809   1.906   3.866  12.206 -0.5757 -0.0246 -1.6949
 9132TIP3   OH248810   4.735   5.203  13.830  0.2776  0.5067 -1.0716
 9132TIP3    H148811   4.755   5.135  13.895 -0.0352  0.8359 -0.6266
 9132TIP3    H248812   4.647   5.234  13.854  0.0072  0.3784 -1.8721
 9133TIP3   OH248813   1.995   2.953   3.010 -0.6605  0.1302  0.3111
 9133TIP3    H148814   2.084   2.988   3.002 -0.0623 -1.0091  1.6228
 9133TIP3    H248815   1.942   3.030   3.030  0.5161  0.4585  2.5022
 9134TIP3   OH248816   5.355   0.484  13.391 -0.1783 -0.2909 -0.5074
 9134TIP3    H148817   5.285   0.431  13.353 -1.9410  2.4105 -1.3141
 9134TIP3    H248818   5.324   0.506  13.479 -0.5281  1.1210 -0.9573
 9135TIP3   OH248819   0.916   0.723  15.790  0.0595 -0.2652  0.1450
 9135TIP3    H148820   0.881   0.651  15.738 -0.9625  1.2416 -1.3377
 9135TIP3    H248821   1.011   0.715  15.782  0.0567 -2.3962  1.4196
 9136TIP3   OH248822   1.054   4.602  10.833  0.0879 -0.1242 -0.2331
 9136TIP3    H148823   1.121   4.636  10.891  1.2027 -0.2979 -1.3630
 9136TIP3    H248824   1.010   4.534  10.884  0.3730  0.3960  0.7253
 9137TIP3   OH248825   2.427   1.953  15.922 -0.6804  0.1469  0.3169
 9137TIP3    H148826   2.364   1.951  15.994 -0.9364 -1.8221  0.1064
 9137TIP3    H248827   2.485   2.026  15.942 -0.8682 -0.2279  2.4379
 9138TIP3   OH248828   5.448   0.531  17.205  0.2316  0.8309 -0.1308
 9138TIP3    H148829   5.512   0.577  17.259 -0.2240  1.5784 -0.2249
 9138TIP3    H248830   5.380   0.504  17.266 -0.4152  1.9073 -0.3545
 9139TIP3   OH248831   4.126   0.118   6.805 -0.2876 -0.0651  0.3076
 9139TIP3    H148832   4.051   0.089   6.856 -0.3070 -0.6160 -0.0227
 9139TIP3    H248833   4.096   0.198   6.762 -0.8637 -0.5507 -0.2154
 9140TIP3   OH248834   4.951   2.233  14.960 -0.1931  0.6229  0.5839
 9140TIP3    H148835   4.936   2.310  14.905 -2.3654  1.2711  1.9829
 9140TIP3    H248836   5.025   2.257  15.016  1.6200  0.1992 -1.4587
 9141TIP3   OH248837   3.348   2.012  13.907  0.2866 -0.0415  0.5840
 9141TIP3    H148838   3.256   2.038  13.896 -0.9198 -3.4076  1.3797
 9141TIP3    H248839   3.372   1.974  13.822  0.8253  0.5240  0.4858
 9142TIP3   OH248840   3.688   1.021   2.012  0.1006 -0.3752  0.0946
 9142TIP3    H148841   3.737   1.032   2.093  0.3090  2.1560 -0.2938
 9142TIP3    H248842   3.753   1.032   1.943 -0.5318  0.3978 -0.4028
 9143TIP3   OH248843   5.278   1.163   2.040  0.4501  0.2619 -0.2818
 9143TIP3    H148844   5.216   1.098   2.006  0.1962  0.6231 -0.5225
 9143TIP3    H248845   5.326   1.117   2.108  0.9225 -0.4670 -1.0793
 9144TIP3   OH248846   6.499   2.915  10.553 -0.1131  0.0550 -0.6186
 9144TIP3    H148847   6.433   2.847  10.536 -1.6934  1.7755 -1.7547
 9144TIP3    H248848   6.451   2.984  10.598  1.4349  0.5170  0.3975
 9145TIP3   OH248849   0.796   5.673  10.975  0.1464  0.1445 -0.2899
 9145TIP3    H148850   0.773   5.588  10.940 -1.0564 -0.2606  1.3749
 9145TIP3    H248851   0.729   5.733  10.940 -0.7678 -0.1716  0.8510
 9146TIP3   OH248852   3.971   4.452   0.225 -0.0288  0.2555 -0.5144
 9146TIP3    H148853   4.027   4.443   0.302  1.2827 -2.2200 -1.6508
 9146TIP3    H248854   3.951   4.362   0.199 -2.6691  1.0413 -1.5357
 9147TIP3   OH248855   2.188   6.179  16.863 -0.0560 -0.2275 -0.0941
 9147TIP3    H148856   2.278   6.154  16.884 -0.3082 -0.3889  0.8464
 9147TIP3    H248857   2.136   6.102  16.886 -0.2692 -0.8494 -2.3898
 9148TIP3   OH248858   2.741   0.273  16.889  0.4962 -0.4413 -0.1411
 9148TIP3    H148859   2.805   0.202  16.893  1.5176  0.4731  0.6102
 9148TIP3    H248860   2.792   0.352  16.909 -1.2748  0.0970  2.8200
 9149TIP3   OH248861   2.820   0.321   0.528  0.1596 -0.2900 -0.2119
 9149TIP3    H148862   2.790   0.333   0.438 -0.6339 -0.7966 -0.0279
 9149TIP3    H248863   2.787   0.235   0.553  0.2947 -0.1179  0.5937
 9150TIP3   OH248864   0.844   6.245   2.080  0.5291 -0.0111 -0.3073
 9150TIP3    H148865   0.788   6.207   2.012  0.3181  1.2027 -0.8393
 9150TIP3    H248866   0.861   6.173   2.140 -1.3148 -0.4908 -0.3149
 9151TIP3   OH248867   2.135   4.016  11.243 -0.1209  0.1914 -0.1734
 9151TIP3    H148868   2.091   3.972  11.316 -1.5881 -0.7851 -1.5450
 9151TIP3    H248869   2.073   4.007  11.170  0.9730  1.7477 -1.3573
 9152TIP3   OH248870   4.447   2.608   2.861 -0.3316 -0.4350  0.3581
 9152TIP3    H148871   4.464   2.564   2.945 -2.4533 -1.3518  0.3690
 9152TIP3    H248872   4.481   2.548   2.795 -0.1266 -0.4674  0.4908
 9153TIP3   OH248873   6.698   2.668  12.513 -0.0096  0.1526  0.1572
 9153TIP3    H148874   6.650   2.597  12.556  0.0257 -0.9058 -1.4987
 9153TIP3    H248875   6.695   2.647  12.420  1.3901  1.4796 -0.2266
 9154TIP3   OH248876   5.173   2.245   3.469  0.1574 -0.6310  0.3150
 9154TIP3    H148877   5.242   2.293   3.515 -0.5366  0.4679  0.2489
 9154TIP3    H248878   5.102   2.239   3.533 -0.0950 -0.7858  0.0223
 9155TIP3   OH248879   3.441   4.554  16.797 -0.2664 -0.3490 -0.8253
 9155TIP3    H148880   3.492   4.500  16.858 -0.2550 -0.3161 -0.8057
 9155TIP3    H248881   3.499   4.569  16.723 -0.5287 -1.0015 -1.1724
 9156TIP3   OH248882   3.367   6.747   2.981  0.3724  0.0651  0.6309
 9156TIP3    H148883   3.362   6.700   3.064 -0.7411  0.5071  0.8407
 9156TIP3    H248884   3.291   6.805   2.983  1.3056  1.3485  0.0650
 9157TIP3   OH248885   5.483   4.753   3.349 -0.6161  0.2335 -0.0308
 9157TIP3    H148886   5.448   4.746   3.438 -4.4540  0.0764 -1.3624
 9157TIP3    H248887   5.473   4.845   3.325  3.0439  0.9303  0.4848
 9158TIP3   OH248888   5.961   3.346   6.254  0.5861  0.0419  0.0380
 9158TIP3    H148889   5.929   3.257   6.267  2.7277 -0.7291  0.5809
 9158TIP3    H248890   5.890   3.402   6.284 -0.7015 -1.4918 -0.0412
 9159TIP3   OH248891   2.838   1.665   0.812  0.0541  0.1818  0.6339
 9159TIP3    H148892   2.853   1.671   0.717  1.1908 -0.1778  0.7762
 9159TIP3    H248893   2.842   1.755   0.843 -0.3280  0.3015  0.3484
 9160TIP3   OH248894   4.637   5.317  16.154 -0.0531  0.7737  0.0021
 9160TIP3    H148895   4.572   5.362  16.208  1.0818  1.0849  1.1522
 9160TIP3    H248896   4.701   5.283  16.216  0.8236  0.3631 -1.0846
 9161TIP3   OH248897   4.936   2.319   3.107 -0.3791 -0.0422  0.1249
 9161TIP3    H148898   4.973   2.233   3.087 -0.6893 -0.0278 -0.5431
 9161TIP3    H248899   4.875   2.302   3.180 -0.1151 -0.3060  0.2899
 9162TIP3   OH248900   6.629   4.145   2.122 -0.1902  0.4893 -0.4056
 9162TIP3    H148901   6.554   4.203   2.115 -0.5072  0.2827  0.9550
 9162TIP3    H248902   6.690   4.191   2.180 -0.4587 -0.5105  0.7121
 9163TIP3   OH248903   6.253   1.947   5.196  0.9885 -0.2287 -0.5303
 9163TIP3    H148904   6.183   1.957   5.261  1.6111 -3.7303  0.8843
 9163TIP3    H248905   6.222   1.997   5.120 -0.7758  2.2503  1.6331
 9164TIP3   OH248906   3.934   4.173  12.728  0.3116  0.4458  0.0619
 9164TIP3    H148907   3.858   4.220  12.693 -0.8288 -0.3345  1.4194
 9164TIP3    H248908   3.992   4.164  12.653 -0.6176  1.6694 -0.8520
 9165TIP3   OH248909   4.799   0.822   0.956 -0.2063 -0.3372  0.3116
 9165TIP3    H148910   4.831   0.905   0.991  0.9241 -0.5443 -0.1772
 9165TIP3    H248911   4.878   0.774   0.933 -0.8765 -0.9518 -0.7858
 9166TIP3   OH248912   4.419   1.541  13.398  0.4902 -0.5611 -0.2581
 9166TIP3    H148913   4.505   1.563  13.433  0.7008 -0.1477 -1.0289
 9166TIP3    H248914   4.421   1.446  13.387 -0.1758 -0.9725  2.4121
 9167TIP3   OH248915   6.007   6.021  12.492  0.0137 -0.0772 -0.3052
 9167TIP3    H148916   6.027   6.108  12.526 -0.1199 -0.4536  0.7816
 9167TIP3    H248917   6.082   5.999  12.437  0.1274  0.6585 -0.4461
 9168TIP3   OH248918   0.835   1.018   1.731 -0.1710 -0.1558  0.3635
 9168TIP3    H148919   0.809   0.930   1.704  1.9363 -0.6383 -0.2348
 9168TIP3    H248920   0.928   1.024   1.709 -0.1556  2.0740  0.7928
 9169TIP3   OH248921   5.101   6.040  13.399 -0.0326  0.1778  0.0833
 9169TIP3    H148922   5.193   6.057  13.418 -0.2047  2.5182 -0.9411
 9169TIP3    H248923   5.103   5.986  13.320  0.4762  1.9008 -1.1293
 9170TIP3   OH248924   3.473   3.881  15.979 -0.4207  0.3847 -1.0541
 9170TIP3    H148925   3.482   3.925  15.894  1.1640  0.4909 -0.8611
 9170TIP3    H248926   3.479   3.788  15.958  0.3435  0.4205 -1.0486
 9171TIP3   OH248927   4.355   5.713  10.526 -0.4092 -0.6978  0.3693
 9171TIP3    H148928   4.446   5.724  10.497 -1.1103  0.5534 -1.5863
 9171TIP3    H248929   4.339   5.790  10.580 -0.3790 -0.7806  0.4958
 9172TIP3   OH248930   3.923   3.046  12.738  0.1305 -0.4811  0.4484
 9172TIP3    H148931   3.872   3.053  12.658 -0.5689  0.5408  0.9704
 9172TIP3    H248932   4.012   3.072  12.712  0.0655 -0.8016 -0.1226
 9173TIP3   OH248933   2.171   1.891   1.947 -0.0052  0.0358  0.1093
 9173TIP3    H148934   2.173   1.800   1.915 -0.2358 -0.2929  0.9919
 9173TIP3    H248935   2.103   1.933   1.895 -0.7913 -0.6532  0.5419
 9174TIP3   OH248936   0.559   2.890  14.021 -0.2755 -0.0768 -0.3400
 9174TIP3    H148937   0.546   2.972  13.974  0.4958  0.7604  0.8409
 9174TIP3    H248938   0.569   2.916  14.112  0.4202 -1.4435  0.0049
 9175TIP3   OH248939   1.546   5.048   0.516 -0.0990 -0.0264 -0.5816
 9175TIP3    H148940   1.642   5.044   0.510 -0.0781 -0.5920  0.0855
 9175TIP3    H248941   1.518   4.957   0.511 -0.6828  0.2008 -1.8485
 9176TIP3   OH248942   4.299   0.593   1.218  0.3547  0.3495  0.5185
 9176TIP3    H148943   4.299   0.515   1.163 -2.3821  1.1453 -0.7872
 9176TIP3    H248944   4.249   0.568   1.296  1.3879  0.2034  1.1621
 9177TIP3   OH248945   0.647   2.303  17.158  0.9952  0.4143 -1.0003
 9177TIP3    H148946   0.688   2.264  17.080  1.2698 -0.4067 -0.4589
 9177TIP3    H248947   0.643   2.231  17.221 -1.3440  0.4525 -1.0401
 9178TIP3   OH248948   5.640   5.568  11.559  0.3635  0.0002 -0.2105
 9178TIP3    H148949   5.720   5.547  11.608 -0.6750 -2.2477  0.6216
 9178TIP3    H248950   5.618   5.487  11.514 -0.9469  0.8745 -1.1784
 9179TIP3   OH248951   4.064   1.309  12.309 -0.6229  0.2372  0.2538
 9179TIP3    H148952   4.040   1.256  12.385  0.7480  2.6332  2.5460
 9179TIP3    H248953   4.051   1.399  12.339 -0.2512  1.2833 -2.4941
 9180TIP3   OH248954   4.113   4.184  10.605  0.2542 -0.0851  0.0779
 9180TIP3    H148955   4.055   4.239  10.658  0.5828  0.7741 -0.4345
 9180TIP3    H248956   4.149   4.244  10.540  1.2015 -0.7573 -0.0276
 9181TIP3   OH248957   0.527   6.552  17.190  0.7891 -0.1590  0.4857
 9181TIP3    H148958   0.563   6.475  17.147 -0.4048  0.4928 -1.8458
 9181TIP3    H248959   0.433   6.534  17.198  0.5948  0.7892  0.4942
 9182TIP3   OH248960   5.473   5.885  12.395 -0.1381  0.0976 -0.3930
 9182TIP3    H148961   5.393   5.835  12.380 -0.0846 -0.6054  1.3871
 9182TIP3    H248962   5.544   5.825  12.373 -0.0433  0.8400 -2.3284
 9183TIP3   OH248963   2.512   1.810  12.367 -0.5498  0.2670  0.1095
 9183TIP3    H148964   2.528   1.723  12.404 -2.3663  0.2517  0.9850
 9183TIP3    H248965   2.501   1.866  12.444 -0.5425  1.0267 -0.4459
 9184TIP3   OH248966   0.303   0.803   3.912 -0.3932  0.1451 -0.4407
 9184TIP3    H148967   0.227   0.862   3.919 -0.2455  0.1071  3.2163
 9184TIP3    H248968   0.271   0.719   3.943  0.4372 -0.7437 -1.8607
 9185TIP3   OH248969   6.211   5.225   3.091  0.2441 -0.3721  0.3961
 9185TIP3    H148970   6.272   5.269   3.150  0.0370  0.5592 -0.0528
 9185TIP3    H248971   6.124   5.253   3.121  0.1353  0.1130 -0.3204
 9186TIP3   OH248972   3.184   2.901   5.642 -0.6368  0.1404 -0.5177
 9186TIP3    H148973   3.181   2.806   5.646 -0.8852  0.1052 -1.2859
 9186TIP3    H248974   3.269   2.925   5.679 -0.1520 -0.4379 -1.2387
 9187TIP3   OH248975   5.568   3.002  13.895  0.7350  0.2111 -0.0541
 9187TIP3    H148976   5.545   3.086  13.856  0.4454  0.5695  0.8642
 9187TIP3    H248977   5.513   2.995  13.972 -0.9217 -1.8540 -1.2924
 9188TIP3   OH248978   1.106   3.735  16.907 -0.0591  0.0082 -0.6366
 9188TIP3    H148979   1.090   3.642  16.919 -0.9984  0.1368 -0.8017
 9188TIP3    H248980   1.033   3.778  16.953  1.4501  0.7180  1.2122
 9189TIP3   OH248981   0.858   3.902   0.180  0.6184 -0.4554  0.4514
 9189TIP3    H148982   0.833   3.993   0.198 -0.9031 -1.1814  2.5336
 9189TIP3    H248983   0.953   3.902   0.182  0.6916  1.3510 -1.2102
 9190TIP3   OH248984   0.427   6.159  13.330 -0.3787  0.1830  0.1338
 9190TIP3    H148985   0.457   6.121  13.413  0.4916 -0.3798 -0.4226
 9190TIP3    H248986   0.332   6.165  13.339 -0.5681 -2.1695  0.2537
 9191TIP3   OH248987   4.437   2.752  10.942 -0.1164  0.2159  0.0481
 9191TIP3    H148988   4.388   2.829  10.913  0.6518  1.3422  1.6281
 9191TIP3    H248989   4.511   2.746  10.880 -1.7205 -1.0569 -1.8843
 9192TIP3   OH248990   4.411   3.204  16.509 -0.2337 -0.4486  0.3662
 9192TIP3    H148991   4.338   3.204  16.571 -0.8773  1.6582 -0.2997
 9192TIP3    H248992   4.379   3.152  16.435 -0.6960 -0.3350  0.4780
 9193TIP3   OH248993   6.710   1.575  13.442  0.6761 -0.0671  0.2640
 9193TIP3    H148994   6.648   1.505  13.425  0.4911 -0.1926  1.3629
 9193TIP3    H248995   6.729   1.568  13.536  2.9385 -0.5131 -0.1709
 9194TIP3   OH248996   0.757   5.399   1.777 -0.1060 -0.3033 -0.3466
 9194TIP3    H148997   0.794   5.409   1.865 -1.0382  3.6508 -0.2141
 9194TIP3    H248998   0.830   5.417   1.718 -0.1169 -0.0721 -0.2910
 9195TIP3   OH248999   3.668   5.695   3.032  0.4460  0.2261  0.2767
 9195TIP3    H149000   3.759   5.665   3.043 -0.4793 -2.1084  2.5796
 9195TIP3    H249001   3.665   5.780   3.076  1.3207 -0.0649  0.9312
 9196TIP3   OH249002   1.037   0.753   3.994  0.2042  0.4741 -0.2545
 9196TIP3    H149003   1.054   0.706   3.913 -1.9107  0.7667 -0.9288
 9196TIP3    H249004   0.962   0.708   4.033 -0.2848  1.7396  0.3365
 9197TIP3   OH249005   2.431   6.251   5.209 -0.6712 -0.1653  0.1227
 9197TIP3    H149006   2.346   6.246   5.166 -0.8970  1.9156  0.2196
 9197TIP3    H249007   2.464   6.338   5.187 -0.1760  0.4621  2.9526
 9198TIP3   OH249008   5.148   4.951   4.469 -0.1919  0.1149 -0.8106
 9198TIP3    H149009   5.242   4.951   4.488 -0.4921 -0.0121  0.7742
 9198TIP3    H249010   5.133   4.870   4.421 -0.0915 -1.9033  2.3270
 9199TIP3   OH249011   6.160   2.736  12.415  0.1295 -0.3678 -0.4817
 9199TIP3    H149012   6.067   2.714  12.415  0.0660 -0.0993 -1.1286
 9199TIP3    H249013   6.199   2.674  12.354 -0.0747  1.3689 -2.4611
 9200TIP3   OH249014   3.663   6.353   4.639  0.1987 -0.3699 -0.2985
 9200TIP3    H149015   3.721   6.307   4.577  0.8416  0.3740 -0.2694
 9200TIP3    H249016   3.699   6.333   4.725  0.1123 -0.3143 -0.2489
 9201TIP3   OH249017   0.158   0.627  10.855 -0.2252  0.1747  0.5824
 9201TIP3    H149018   0.236   0.674  10.884 -0.9340  2.3525 -0.8186
 9201TIP3    H249019   0.182   0.593  10.769 -0.3614 -0.3826  0.7633
 9202TIP3   OH249020   6.733   5.456  11.184  0.1440  0.2717 -0.1308
 9202TIP3    H149021   6.707   5.469  11.275  2.1488 -0.3997  0.6034
 9202TIP3    H249022   6.698   5.370  11.161 -0.6762  0.5989 -0.1211
 9203TIP3   OH249023   2.811   0.659   4.174  0.0050 -0.2187 -0.0593
 9203TIP3    H149024   2.850   0.586   4.125 -0.1625 -1.1659  1.1620
 9203TIP3    H249025   2.885   0.715   4.196  0.4756 -1.1333  0.7957
 9204TIP3   OH249026   5.243   5.348   0.513  0.2636 -0.0150 -0.0107
 9204TIP3    H149027   5.167   5.406   0.507 -0.5563 -1.0431  0.2514
 9204TIP3    H249028   5.208   5.261   0.497  1.5785 -0.3971 -0.9653
 9205TIP3   OH249029   1.916   0.970   1.956  0.0045 -0.4364 -0.1933
 9205TIP3    H149030   1.934   1.063   1.972  0.0362 -0.4652 -0.0579
 9205TIP3    H249031   1.823   0.959   1.977  0.4460 -0.8493  1.7714
 9206TIP3   OH249032   4.771   3.551   4.133  0.1106  0.3944  0.5311
 9206TIP3    H149033   4.676   3.552   4.121  0.2043  1.2345 -0.2642
 9206TIP3    H249034   4.786   3.603   4.212  0.0674  2.8110 -0.9459
 9207TIP3   OH249035   6.177   1.936  16.788  0.0141  0.0879  0.1548
 9207TIP3    H149036   6.130   1.890  16.857  1.1782 -2.8738 -0.8349
 9207TIP3    H249037   6.225   2.005  16.833  1.1751 -2.0875  2.4986
 9208TIP3   OH249038   1.922   4.772   4.134  0.6822  0.2032  0.0685
 9208TIP3    H149039   2.010   4.760   4.170  0.4173 -0.2849  0.5645
 9208TIP3    H249040   1.930   4.848   4.077  0.6641  2.2962  2.6918
 9209TIP3   OH249041   2.015   3.499   2.106  0.6526 -0.1754 -0.1938
 9209TIP3    H149042   2.010   3.586   2.066  0.1889 -0.0025  0.2233
 9209TIP3    H249043   2.094   3.460   2.070  0.3178  0.0239 -1.1839
 9210TIP3   OH249044   0.882   5.811  15.365 -0.1740  0.0982 -0.1101
 9210TIP3    H149045   0.869   5.807  15.459  0.8286  0.3083  0.0450
 9210TIP3    H249046   0.850   5.898  15.340 -3.7391 -1.1415 -0.5450
 9211TIP3   OH249047   6.385   6.709   5.583  0.1616 -0.3915  0.3695
 9211TIP3    H149048   6.297   6.745   5.586 -0.2559 -1.2858 -0.4547
 9211TIP3    H249049   6.426   6.749   5.506  0.8481  0.7828  1.3084
 9212TIP3   OH249050   2.151   4.920  14.420 -0.0960  0.2661 -0.1946
 9212TIP3    H149051   2.207   4.978  14.472 -0.6370  0.3304  0.3281
 9212TIP3    H249052   2.199   4.837  14.415  0.1795  0.4151 -0.0037
 9213TIP3   OH249053   5.427   1.059   5.902  0.4832  0.6742 -0.4952
 9213TIP3    H149054   5.416   1.134   5.842 -1.9444  0.8746  0.0954
 9213TIP3    H249055   5.435   0.984   5.844  0.4583  1.1128 -1.0801
 9214TIP3   OH249056   1.261   3.438  13.522 -0.2364  0.0878  0.2021
 9214TIP3    H149057   1.231   3.456  13.433 -1.4469 -1.5886  0.2134
 9214TIP3    H249058   1.272   3.524  13.562 -1.2350  0.8440 -1.0659
 9215TIP3   OH249059   1.785   4.583   2.061  0.0533 -0.2060  0.0320
 9215TIP3    H149060   1.704   4.536   2.080  1.4053 -1.9156  2.0896
 9215TIP3    H249061   1.841   4.566   2.136  2.0204  1.6791 -0.8860
 9216TIP3   OH249062   3.084   6.050   0.984 -0.7383 -0.3554 -0.4076
 9216TIP3    H149063   3.080   6.110   0.909 -0.4436  0.7026  0.3896
 9216TIP3    H249064   3.177   6.041   1.003 -0.7688 -1.2735 -0.6643
 9217TIP3   OH249065   6.513   3.126   1.774 -0.6951 -0.1870  0.0989
 9217TIP3    H149066   6.579   3.153   1.838 -0.4027  0.2130 -0.3657
 9217TIP3    H249067   6.440   3.187   1.787 -1.8897 -1.8764  2.0313
 9218TIP3   OH249068   4.283   5.724   3.238 -0.7357  0.3648 -0.1885
 9218TIP3    H149069   4.341   5.699   3.310 -0.6779  0.5951 -0.1540
 9218TIP3    H249070   4.253   5.812   3.261  0.7929  1.2536 -1.3846
 9219TIP3   OH249071   5.796   3.049   2.541  0.0385 -0.3679  0.2818
 9219TIP3    H149072   5.723   3.009   2.589 -1.3342 -0.8127 -2.0015
 9219TIP3    H249073   5.791   3.010   2.454  2.7459 -0.0109 -0.1193
 9220TIP3   OH249074   2.310   5.254  11.417  0.5514 -0.4121  0.1388
 9220TIP3    H149075   2.263   5.299  11.346  0.4839 -1.3228 -0.4031
 9220TIP3    H249076   2.331   5.324  11.479  0.8239  0.4479 -0.8858
 9221TIP3   OH249077   0.657   0.122   4.828  0.2732 -0.1726 -0.1352
 9221TIP3    H149078   0.659   0.135   4.733  1.1596  0.5235 -0.0335
 9221TIP3    H249079   0.565   0.133   4.851  0.2867  1.4822 -0.6991
 9222TIP3   OH249080   3.039   6.693  10.698 -0.2162 -0.7611  0.7824
 9222TIP3    H149081   2.997   6.650  10.772  1.6443 -0.3455  2.1547
 9222TIP3    H249082   3.122   6.726  10.733  1.4444 -1.8319 -1.8312
 9223TIP3   OH249083   1.185   0.736  15.717  0.1198 -0.6479 -0.0236
 9223TIP3    H149084   1.215   0.827  15.723 -0.0631 -0.5362 -0.6791
 9223TIP3    H249085   1.254   0.685  15.760 -0.5416 -0.0732  1.7894
 9224TIP3   OH249086   2.688   0.659  16.586 -0.0239 -0.8325 -0.5071
 9224TIP3    H149087   2.606   0.678  16.630  0.1337  0.0948 -0.5870
 9224TIP3    H249088   2.666   0.593  16.520 -0.4666 -1.4310  0.2327
 9225TIP3   OH249089   5.403   3.324  16.692  0.1516 -0.9448  0.6966
 9225TIP3    H149090   5.426   3.382  16.619  0.2207  1.5574  2.5428
 9225TIP3    H249091   5.395   3.237  16.653 -0.0999  0.3059 -2.3018
 9226TIP3   OH249092   3.041   4.570   0.144 -1.0422 -0.8367 -0.4361
 9226TIP3    H149093   3.061   4.569   0.237 -1.9710 -0.5098 -0.2252
 9226TIP3    H249094   2.947   4.585   0.139 -1.4574 -3.2041 -1.3595
 9227TIP3   OH249095   3.506   0.093  15.858 -0.0275  0.7637 -0.3211
 9227TIP3    H149096   3.496   0.043  15.939  0.1486  0.2358 -0.6210
 9227TIP3    H249097   3.455   0.173  15.873  0.1331  0.7441  0.3677
 9228TIP3   OH249098   6.533   0.338  15.507 -0.1293 -0.0291 -0.0972
 9228TIP3    H149099   6.550   0.395  15.582 -0.8433 -0.4363  0.3886
 9228TIP3    H249100   6.484   0.265  15.543 -1.7746  0.4742 -1.1975
 9229TIP3   OH249101   4.795   0.836  11.731 -0.0656  0.4114  0.1464
 9229TIP3    H149102   4.820   0.798  11.647 -2.1201  0.8107 -0.6874
 9229TIP3    H249103   4.706   0.804  11.747 -0.1530  1.2773  1.6114
 9230TIP3   OH249104   5.421   6.723   4.486  0.3374  0.1006  0.0485
 9230TIP3    H149105   5.498   6.748   4.537 -0.5418  0.7070  1.1115
 9230TIP3    H249106   5.390   6.643   4.527 -0.5304  0.7360  0.6699
 9231TIP3   OH249107   2.569   1.343  13.895  0.0854  0.1403 -0.4184
 9231TIP3    H149108   2.646   1.363  13.949  0.7828  0.2359 -1.4257
 9231TIP3    H249109   2.523   1.275  13.944  0.8522  0.0262  0.1645
 9232TIP3   OH249110   5.362   6.435   5.777  0.2383  0.0756  0.2168
 9232TIP3    H149111   5.335   6.480   5.697 -0.1472  0.2893  0.4596
 9232TIP3    H249112   5.436   6.486   5.810  2.5896 -1.8898 -1.7344
 9233TIP3   OH249113   5.879   0.405  15.095  0.1076  0.0791  0.3389
 9233TIP3    H149114   5.844   0.432  15.011  0.0724  2.5950  1.0883
 9233TIP3    H249115   5.809   0.423  15.158  1.3955  1.8311  1.3654
 9234TIP3   OH249116   4.807   2.385   5.344 -0.0403 -0.4087 -0.0198
 9234TIP3    H149117   4.776   2.320   5.282  1.7519 -0.6744 -0.6955
 9234TIP3    H249118   4.779   2.469   5.308 -0.5535 -0.6738 -0.2393
 9235TIP3   OH249119   4.039   0.204  10.672 -0.5707  0.0702 -0.5159
 9235TIP3    H149120   4.088   0.286  10.670 -0.7031  0.1398 -1.3867
 9235TIP3    H249121   3.972   0.215  10.604 -0.5237 -0.7932 -0.7075
 9236TIP3   OH249122   4.116   3.422  12.678  0.0132 -0.2850 -0.1615
 9236TIP3    H149123   4.057   3.407  12.604  0.0763 -0.6916 -0.1331
 9236TIP3    H249124   4.060   3.417  12.755  0.3036 -2.3067 -0.0066
 9237TIP3   OH249125   1.543   0.011  16.455  0.4644  0.2255  0.2083
 9237TIP3    H149126   1.568   0.070  16.526  3.3493  0.5946 -0.9674
 9237TIP3    H249127   1.519   0.070  16.383 -0.3063 -0.1038  0.1926
 9238TIP3   OH249128   1.349   5.668   0.746 -0.1433 -0.2201 -0.2511
 9238TIP3    H149129   1.285   5.653   0.816 -1.4764  3.4710 -0.4112
 9238TIP3    H249130   1.295   5.691   0.670  1.3548 -0.3473 -1.3949
 9239TIP3   OH249131   5.644   4.239  15.915  0.2995  0.2603  0.5883
 9239TIP3    H149132   5.591   4.269  15.841 -0.0614  1.1143  1.1769
 9239TIP3    H249133   5.590   4.174  15.959  0.6765 -0.5489 -0.1132
 9240TIP3   OH249134   3.854   3.026  13.186 -0.2143 -0.8885 -0.0684
 9240TIP3    H149135   3.884   3.076  13.111  1.4826  0.1581  1.2087
 9240TIP3    H249136   3.786   3.080  13.226  1.0635  0.1268  0.8567
 9241TIP3   OH249137   2.578   2.737  16.376  0.7290  0.5321 -0.1344
 9241TIP3    H149138   2.645   2.785  16.425  1.3878 -2.4636  2.2069
 9241TIP3    H249139   2.621   2.712  16.294  1.5537  0.8986  0.1736
 9242TIP3   OH249140   5.414   3.383  16.968  0.4417  0.2432 -0.1539
 9242TIP3    H149141   5.465   3.463  16.968  2.7990 -1.1550  0.3449
 9242TIP3    H249142   5.379   3.376  16.879 -0.1316  1.9768 -0.0875
 9243TIP3   OH249143   5.621   5.127  11.179 -0.0903  0.9571  0.0714
 9243TIP3    H149144   5.557   5.194  11.155  0.1057  1.2144  0.2606
 9243TIP3    H249145   5.587   5.089  11.260 -0.5849  0.3108 -0.4280
 9244TIP3   OH249146   2.131   4.958  13.022  0.5548  0.0103  0.4628
 9244TIP3    H149147   2.220   4.992  13.012  0.1328  1.2476  0.7158
 9244TIP3    H249148   2.076   5.021  12.975 -0.1264 -1.1907 -0.4205
 9245TIP3   OH249149   5.827   0.645   2.468 -0.2996 -0.4343  0.3548
 9245TIP3    H149150   5.838   0.723   2.414  0.9407 -0.2113  0.9136
 9245TIP3    H249151   5.732   0.633   2.473 -0.4729 -0.8062 -2.3640
 9246TIP3   OH249152   3.034   5.756  12.445  0.0597 -0.1397 -0.2444
 9246TIP3    H149153   3.092   5.831  12.459 -0.3309  0.1303 -0.0501
 9246TIP3    H249154   3.087   5.680  12.468  0.3503  0.1027 -0.1103
 9247TIP3   OH249155   6.677   0.348   0.491 -0.1207 -0.3497  0.4056
 9247TIP3    H149156   6.618   0.362   0.416 -0.0255  1.7343  0.6545
 9247TIP3    H249157   6.703   0.436   0.517  1.6029 -1.1412  1.5272
 9248TIP3   OH249158   3.891   5.406  13.953 -0.7886  0.2820  0.2987
 9248TIP3    H149159   3.863   5.375  13.867  0.2336  0.8997 -0.2938
 9248TIP3    H249160   3.926   5.494  13.936  1.8773 -0.5765  0.8379
 9249TIP3   OH249161   4.407   0.144  12.426 -0.4663  0.3492 -0.4389
 9249TIP3    H149162   4.446   0.215  12.477 -0.3936 -0.8810  1.3136
 9249TIP3    H249163   4.367   0.087  12.491 -3.0478  0.2319 -2.0024
 9250TIP3   OH249164   4.899   2.014   3.435  0.7361  0.3984 -0.4059
 9250TIP3    H149165   4.968   2.040   3.374 -0.6416  0.9600 -1.7767
 9250TIP3    H249166   4.856   1.940   3.393  0.1052  0.4507  0.1320
 9251TIP3   OH249167   4.213   0.953   5.495 -0.0407 -0.4390  0.4788
 9251TIP3    H149168   4.238   1.025   5.552 -0.7107  0.8390 -0.7805
 9251TIP3    H249169   4.174   0.888   5.554 -0.4032  0.6825  1.5076
 9252TIP3   OH249170   0.550   3.803   5.334 -0.4321 -0.0749  0.6649
 9252TIP3    H149171   0.633   3.831   5.372 -0.9574 -0.0777  1.8476
 9252TIP3    H249172   0.485   3.822   5.401 -1.5073  0.6467 -0.5454
 9253TIP3   OH249173   1.919   1.850   5.360  0.1041 -0.3752 -0.0214
 9253TIP3    H149174   1.873   1.825   5.440  3.3425  0.1080  2.1514
 9253TIP3    H249175   1.936   1.766   5.316 -1.1717 -0.6933  0.0387
 9254TIP3   OH249176   5.290   5.998  14.928 -0.1407 -0.5493  0.5548
 9254TIP3    H149177   5.331   5.920  14.890 -1.8953 -1.5569  0.5804
 9254TIP3    H249178   5.202   5.999  14.890 -0.2600  1.2832  0.7841
 9255TIP3   OH249179   6.519   1.059  12.739 -0.1657 -0.4047 -0.5853
 9255TIP3    H149180   6.502   1.018  12.824 -0.1901 -1.6253 -1.1602
 9255TIP3    H249181   6.432   1.077  12.703 -0.1579  0.6578 -0.1213
 9256TIP3   OH249182   5.210   2.447  11.957  0.0543 -0.6404 -0.0155
 9256TIP3    H149183   5.201   2.464  12.051  0.7748 -0.9068  0.1090
 9256TIP3    H249184   5.173   2.524  11.915 -0.9196 -0.8275  0.4754
 9257TIP3   OH249185   5.055   1.037  12.471  0.5941 -0.1001  0.4682
 9257TIP3    H149186   5.051   0.976  12.545  1.4322 -1.2754 -0.4084
 9257TIP3    H249187   5.044   1.124  12.511 -0.4725 -0.7881  1.7720
 9258TIP3   OH249188   5.186   4.316   4.047  0.8777 -0.1483 -0.1475
 9258TIP3    H149189   5.187   4.407   4.078 -0.7450 -0.8540  2.2225
 9258TIP3    H249190   5.190   4.264   4.127 -1.1624 -2.1524 -1.2628
 9259TIP3   OH249191   6.013   4.271  14.230  0.0792 -0.1122  0.1434
 9259TIP3    H149192   5.940   4.210  14.242  0.0475 -0.3592 -1.1971
 9259TIP3    H249193   5.982   4.353  14.270 -0.7571 -0.3360 -0.0160
 9260TIP3   OH249194   0.649   0.265  13.506  0.5093 -0.1974 -0.5181
 9260TIP3    H149195   0.721   0.315  13.468 -0.7288  2.4951  0.4178
 9260TIP3    H249196   0.679   0.242  13.594  0.3280  0.7252 -0.2096
 9261TIP3   OH249197   3.727   1.144  12.852 -0.1405 -0.3356  0.7377
 9261TIP3    H149198   3.777   1.207  12.904  0.4984 -0.1357 -0.1002
 9261TIP3    H249199   3.663   1.107  12.914  0.2265  0.3029  1.5147
 9262TIP3   OH249200   2.162   5.716   0.204 -0.1284  0.5033 -0.2831
 9262TIP3    H149201   2.142   5.807   0.180 -0.1233  0.3603 -0.8394
 9262TIP3    H249202   2.119   5.703   0.289  0.3932  1.2179  0.1083
 9263TIP3   OH249203   4.053   0.099  11.934  0.2635  0.2265 -0.0586
 9263TIP3    H149204   4.081   0.189  11.946  0.0731  0.4259 -1.0582
 9263TIP3    H249205   3.957   0.103  11.931  0.2846  0.1848 -1.4189
 9264TIP3   OH249206   1.659   3.048  11.449 -0.4009  0.0982 -0.2468
 9264TIP3    H149207   1.570   3.038  11.484 -0.1078 -3.1786 -0.1477
 9264TIP3    H249208   1.716   3.028  11.523  0.3897  0.2847 -0.7991
 9265TIP3   OH249209   0.658   6.235   5.441  0.5450 -0.3846  0.5536
 9265TIP3    H149210   0.579   6.289   5.441  1.3603  0.9377 -1.6753
 9265TIP3    H249211   0.709   6.266   5.517 -0.6526 -0.6434  1.4833
 9266TIP3   OH249212   4.970   2.787   3.139 -0.1770  0.7122  0.1442
 9266TIP3    H149213   4.909   2.719   3.109  0.5626  0.4816 -0.8757
 9266TIP3    H249214   4.971   2.852   3.069  0.8311  0.6540  0.0869
 9267TIP3   OH249215   6.562   4.531   1.298 -0.2424 -0.1954 -0.3982
 9267TIP3    H149216   6.624   4.604   1.304 -0.7611  0.1121  2.2706
 9267TIP3    H249217   6.577   4.495   1.210  1.5622  1.7351 -0.9806
 9268TIP3   OH249218   3.524   4.290  15.441 -0.1675 -0.6428 -0.2416
 9268TIP3    H149219   3.518   4.368  15.386  1.5111  0.2513  0.7423
 9268TIP3    H249220   3.458   4.231  15.407 -0.5010  0.6442 -1.9462
 9269TIP3   OH249221   3.977   4.264   2.740 -0.1333  0.2166 -0.4350
 9269TIP3    H149222   4.066   4.249   2.708 -0.5034  0.7689 -1.7911
 9269TIP3    H249223   3.988   4.303   2.826  0.9638  1.3713 -1.0735
 9270TIP3   OH249224   5.378   4.137  14.504 -0.1778 -0.1914 -0.3178
 9270TIP3    H149225   5.393   4.228  14.479  2.1692 -0.7862 -1.3752
 9270TIP3    H249226   5.347   4.141  14.594 -0.8264  1.6673 -0.5830
 9271TIP3   OH249227   0.001   3.415   3.946 -0.0477  0.3274  0.1150
 9271TIP3    H149228  -0.045   3.496   3.927  1.5295  1.0764 -0.7415
 9271TIP3    H249229  -0.001   3.407   4.041 -0.1309  1.4336  0.2146
 9272TIP3   OH249230   3.300   1.741  15.171 -0.2483 -0.1537  0.0039
 9272TIP3    H149231   3.229   1.804  15.177 -1.0043 -0.8239 -1.3708
 9272TIP3    H249232   3.317   1.734  15.077  2.6983  1.1175  0.3410
 9273TIP3   OH249233   4.120   5.989   4.363  0.0480 -0.3501 -0.2383
 9273TIP3    H149234   4.057   5.923   4.394  0.9537 -1.2300 -0.2282
 9273TIP3    H249235   4.139   6.042   4.440  0.0416 -0.6819 -0.0063
 9274TIP3   OH249236   2.899   3.514  15.408 -0.0875 -0.3324  0.1465
 9274TIP3    H149237   2.898   3.488  15.316  0.8133 -0.1383  0.0764
 9274TIP3    H249238   2.987   3.549  15.422 -0.8075  1.3734  0.5923
 9275TIP3   OH249239   6.709   6.111   5.797  0.0913 -0.0317 -0.3442
 9275TIP3    H149240   6.719   6.142   5.887  0.6153 -1.7529  0.2332
 9275TIP3    H249241   6.615   6.092   5.789  0.1675 -0.6211  0.1106
 9276TIP3   OH249242   3.247   4.760  14.854  0.0390  0.0702 -0.0064
 9276TIP3    H149243   3.245   4.837  14.797  0.4584 -0.3789 -0.6246
 9276TIP3    H249244   3.236   4.797  14.942 -1.0589  0.7253 -0.3872
 9277TIP3   OH249245   2.553   1.491   1.757  0.1350 -0.2445  0.0196
 9277TIP3    H149246   2.509   1.418   1.800 -0.3399 -0.2652 -0.4815
 9277TIP3    H249247   2.528   1.483   1.665  0.3110  0.3773 -0.0894
 9278TIP3   OH249248   1.782   5.488  13.354 -0.2803 -0.2452  0.3176
 9278TIP3    H149249   1.785   5.513  13.261  3.3977  0.8679  0.5451
 9278TIP3    H249250   1.733   5.558  13.396 -0.6253  0.0886 -0.6170
 9279TIP3   OH249251   3.756   3.922   3.076 -0.1271  0.0497  0.1071
 9279TIP3    H149252   3.803   3.966   3.005 -1.1682  0.0151 -0.6419
 9279TIP3    H249253   3.824   3.877   3.127  0.6970  0.5408 -0.5405
 9280TIP3   OH249254   4.633   4.955   5.803 -0.7239 -0.4892  0.5381
 9280TIP3    H149255   4.560   5.003   5.843 -3.2919 -2.6568 -1.1698
 9280TIP3    H249256   4.654   4.887   5.867 -1.2849 -0.8070  0.3898
 9281TIP3   OH249257   6.721   3.466  12.734 -0.5467 -0.1963  0.3723
 9281TIP3    H149258   6.804   3.422  12.719 -0.4120  0.2602 -0.2512
 9281TIP3    H249259   6.663   3.432  12.666  0.0327  1.7949 -1.2317
 9282TIP3   OH249260   3.989   6.184  13.227 -0.2133 -0.3339 -0.3503
 9282TIP3    H149261   4.084   6.188  13.240  0.1530 -1.4997 -2.2365
 9282TIP3    H249262   3.971   6.091  13.214 -1.7047 -0.1764  0.3266
 9283TIP3   OH249263   6.384   2.969   3.074 -0.2899 -0.7035 -0.1012
 9283TIP3    H149264   6.416   2.997   2.989 -0.8445  0.5165  0.0660
 9283TIP3    H249265   6.296   2.934   3.056 -0.6433  0.0889  0.0277
 9284TIP3   OH249266   6.479   2.945   0.342  0.2197  0.6142 -0.2565
 9284TIP3    H149267   6.448   2.955   0.252 -0.8880 -0.6380 -0.0562
 9284TIP3    H249268   6.489   2.850   0.353 -2.4486  0.4326  1.7605
 9285TIP3   OH249269   5.148   3.899   5.579 -0.0964  0.3880 -0.2109
 9285TIP3    H149270   5.082   3.885   5.647 -0.1434  0.0462 -0.3224
 9285TIP3    H249271   5.186   3.812   5.565 -0.6976  0.2705 -1.2376
 9286TIP3   OH249272   2.451   3.959  10.446  0.0621 -0.2047  0.1611
 9286TIP3    H149273   2.459   3.867  10.421 -0.7886 -0.3218  0.2761
 9286TIP3    H249274   2.441   3.956  10.541 -3.5629 -0.3129 -0.0918
 9287TIP3   OH249275   1.875   3.411   6.484  0.3139 -0.3306  0.0057
 9287TIP3    H149276   1.817   3.481   6.516  0.1987 -0.0222 -0.8450
 9287TIP3    H249277   1.912   3.372   6.563  1.6098  1.7359  0.4931
 9288TIP3   OH249278   2.851   6.068  16.268 -0.5798 -0.2877  0.0741
 9288TIP3    H149279   2.785   6.091  16.333 -0.5798  2.0257 -0.6392
 9288TIP3    H249280   2.801   6.057  16.187 -0.1302  1.9982 -0.5835
 9289TIP3   OH249281   2.922   6.473  15.934 -0.5942  0.9806 -0.2762
 9289TIP3    H149282   3.010   6.448  15.905 -0.5929  2.6774 -1.9901
 9289TIP3    H249283   2.922   6.461  16.028  1.1845  0.0869 -0.3644
 9290TIP3   OH249284   1.110   6.614   5.650 -0.2352  0.0203  0.2084
 9290TIP3    H149285   1.194   6.577   5.623 -1.3291 -1.6906 -1.0956
 9290TIP3    H249286   1.107   6.700   5.609  1.3878  0.6812  1.3575
 9291TIP3   OH249287   1.037   4.690  16.409  0.1924  0.3733 -0.3031
 9291TIP3    H149288   1.093   4.765  16.430 -1.7724  1.5306  1.2464
 9291TIP3    H249289   1.035   4.639  16.490 -0.5223  0.0713 -0.5019
 9292TIP3   OH249290   6.427   2.962   5.405 -0.2238 -0.1868 -0.0532
 9292TIP3    H149291   6.449   2.875   5.440 -0.9912  0.2551  1.6083
 9292TIP3    H249292   6.504   3.015   5.426  0.2007 -0.4125 -0.9748
 9293TIP3   OH249293   4.528   0.854   5.852  0.1962 -0.6074 -0.3323
 9293TIP3    H149294   4.580   0.905   5.915  0.4786 -1.2340 -0.0465
 9293TIP3    H249295   4.463   0.809   5.906  0.8105 -1.6119 -0.4020
 9294TIP3   OH249296   5.562   2.897  13.647  0.6263  0.0271  0.4297
 9294TIP3    H149297   5.563   2.921  13.739 -0.4540 -0.2785  0.5305
 9294TIP3    H249298   5.584   2.804  13.646 -1.0644 -0.3957  0.5371
 9295TIP3   OH249299   4.911   3.579  15.224 -0.0699 -0.1036  0.6223
 9295TIP3    H149300   4.925   3.506  15.164 -0.2170 -0.4012  0.9468
 9295TIP3    H249301   4.863   3.644  15.173 -1.4665 -0.9421  0.8351
 9296TIP3   OH249302   4.691   6.551   5.989  0.1966  0.2183 -0.0073
 9296TIP3    H149303   4.769   6.517   6.033 -0.4128  0.3092  1.2084
 9296TIP3    H249304   4.723   6.619   5.931  1.2247 -1.0345 -0.9727
 9297TIP3   OH249305   6.680   0.172   5.435 -0.0519 -0.1320 -0.0177
 9297TIP3    H149306   6.623   0.105   5.398  0.9837 -0.6885 -0.6754
 9297TIP3    H249307   6.703   0.140   5.522  0.7044 -0.8271 -0.4536
 9298TIP3   OH249308   2.433   1.683  15.570  0.2878  0.0491  0.5299
 9298TIP3    H149309   2.393   1.758  15.614 -0.2823  1.7668 -2.6136
 9298TIP3    H249310   2.485   1.722  15.500 -1.0903 -2.4975 -2.0739
 9299TIP3   OH249311   5.544   0.821   2.250  0.3580 -0.0872  0.0838
 9299TIP3    H149312   5.631   0.830   2.287  1.4621 -2.3305 -1.6928
 9299TIP3    H249313   5.527   0.727   2.249 -1.9264  0.2567 -0.0030
 9300TIP3   OH249314   1.391   3.881  14.701 -0.0848  0.7838  0.4177
 9300TIP3    H149315   1.374   3.820  14.630  0.2404  1.9703 -0.7124
 9300TIP3    H249316   1.405   3.966  14.658  1.7507  1.2260  1.7362
 9301TIP3   OH249317   0.183   4.241   1.545 -0.0254  0.2882 -0.2397
 9301TIP3    H149318   0.181   4.206   1.634 -0.8438  0.7811 -0.0606
 9301TIP3    H249319   0.138   4.325   1.551  1.5124  1.1894 -0.7567
 9302TIP3   OH249320   5.902   1.127  16.393 -0.8637  0.3409  0.0297
 9302TIP3    H149321   5.945   1.073  16.459 -0.8544  2.5574  1.9741
 9302TIP3    H249322   5.963   1.129  16.320  0.1276 -0.4706  0.8083
 9303TIP3   OH249323   0.312   6.698   2.077 -0.3464  0.2792  0.5624
 9303TIP3    H149324   0.311   6.784   2.036 -1.3031 -0.0333 -0.0917
 9303TIP3    H249325   0.261   6.710   2.157 -2.1619 -0.1098 -0.4847
 9304TIP3   OH249326   3.942   4.828  14.442 -0.3728  0.2178 -0.2087
 9304TIP3    H149327   4.024   4.800  14.483 -0.5485  0.6127  0.4248
 9304TIP3    H249328   3.881   4.757  14.458 -0.5415  0.5171  0.5453
 9305TIP3   OH249329   5.053   4.454   1.853 -0.6014 -0.2279  0.1007
 9305TIP3    H149330   5.144   4.442   1.882 -0.5713  1.3227  0.7856
 9305TIP3    H249331   5.053   4.541   1.813 -1.8460 -0.0773  0.3890
 9306TIP3   OH249332   5.483   1.025  16.481 -0.2293  0.5178 -0.8002
 9306TIP3    H149333   5.515   0.936  16.492 -0.1154  0.7084  0.5409
 9306TIP3    H249334   5.456   1.053  16.568  0.8191  2.2017 -0.9610
 9307TIP3   OH249335   2.214   0.312  16.353  0.8818 -0.1679  0.0374
 9307TIP3    H149336   2.180   0.223  16.351  2.0775 -0.6209 -0.8769
 9307TIP3    H249337   2.250   0.322  16.442  2.3809 -1.2556 -0.4083
 9308TIP3   OH249338   1.485   5.926  12.558  0.0143 -0.5364 -0.4659
 9308TIP3    H149339   1.401   5.904  12.517  0.2851 -0.7781 -0.8867
 9308TIP3    H249340   1.462   5.945  12.649 -0.3678 -1.5125 -0.3475
 9309TIP3   OH249341   4.019   2.669  10.926  0.5954 -0.1444  0.0879
 9309TIP3    H149342   4.000   2.757  10.895 -1.1283 -0.7528 -0.7054
 9309TIP3    H249343   4.027   2.616  10.847 -0.5394 -1.0830  0.5614
 9310TIP3   OH249344   1.601   6.230  11.987 -0.6422 -0.1496 -0.3219
 9310TIP3    H149345   1.657   6.279  12.046 -0.5095 -0.5195 -0.1373
 9310TIP3    H249346   1.518   6.222  12.033 -1.4619  1.9379 -1.3199
 9311TIP3   OH249347   4.255   0.234  15.063  0.4862 -0.3221 -0.1073
 9311TIP3    H149348   4.217   0.321  15.046  1.7329  0.3090  0.2270
 9311TIP3    H249349   4.270   0.198  14.975  1.3125  0.4179 -0.2852
 9312TIP3   OH249350   0.621   3.087  14.497  0.0620  0.6935 -0.1424
 9312TIP3    H149351   0.596   3.164  14.549  0.9959  0.6844  0.3512
 9312TIP3    H249352   0.695   3.050  14.545  1.0272  0.7352 -1.5439
 9313TIP3   OH249353   3.231   0.144  12.057  0.0566  0.2145 -0.6138
 9313TIP3    H149354   3.152   0.090  12.057  0.0824  0.1481  0.9910
 9313TIP3    H249355   3.222   0.201  12.133  0.8613  1.2591 -1.2831
 9314TIP3   OH249356   4.750   4.683  10.719  0.0917 -0.1707  0.2884
 9314TIP3    H149357   4.760   4.705  10.626 -0.9479 -0.3156  0.1316
 9314TIP3    H249358   4.660   4.651  10.726  0.2436 -0.3874  1.3042
 9315TIP3   OH249359   3.259   4.665  13.715 -0.2420 -0.2811 -0.6351
 9315TIP3    H149360   3.254   4.697  13.625  2.1219 -1.5309 -1.3050
 9315TIP3    H249361   3.168   4.659  13.744 -0.9741  3.1921 -1.7599
 9316TIP3   OH249362   6.785   1.806  17.024 -0.7188  0.2341 -0.1154
 9316TIP3    H149363   6.748   1.832  17.108  1.3754 -0.2830  1.0593
 9316TIP3    H249364   6.773   1.711  17.020  0.6558  0.0038  0.4485
 9317TIP3   OH249365   4.245   2.853  14.087 -0.6513 -0.5759 -0.4705
 9317TIP3    H149366   4.302   2.781  14.059 -1.2385 -1.2856  0.1456
 9317TIP3    H249367   4.189   2.870  14.011  1.3046  1.1497 -1.6671
 9318TIP3   OH249368   5.361   4.863  16.323  0.2394 -0.5338  0.1136
 9318TIP3    H149369   5.350   4.872  16.228  0.5871 -0.4265  0.0851
 9318TIP3    H249370   5.422   4.790  16.334  1.1356  0.2288  0.2221
 9319TIP3   OH249371   4.242   3.348  12.157  0.2222  1.1158  0.4144
 9319TIP3    H149372   4.259   3.366  12.064  0.1669  0.0189  0.1720
 9319TIP3    H249373   4.316   3.294  12.185 -0.8237 -0.4127  0.3935
 9320TIP3   OH249374   0.079   3.108  10.984 -0.2404  0.2177  0.4411
 9320TIP3    H149375   0.001   3.081  10.935 -1.2505  0.0494  2.0678
 9320TIP3    H249376   0.141   3.037  10.970 -0.2001  0.5340 -1.1941
 9321TIP3   OH249377   6.089   6.412  12.278 -0.3604  0.0666 -0.7128
 9321TIP3    H149378   6.065   6.334  12.227 -0.6843 -0.8188  0.7095
 9321TIP3    H249379   6.016   6.472  12.265 -0.3905 -0.1071 -1.3700
 9322TIP3   OH249380   2.284   6.369   4.576 -0.2478  0.4760  0.3890
 9322TIP3    H149381   2.232   6.320   4.639  0.4199 -1.8273 -0.7357
 9322TIP3    H249382   2.375   6.346   4.596 -0.0507 -0.9236 -1.7765
 9323TIP3   OH249383   6.400   5.047  13.385  0.2875 -0.1691  0.0480
 9323TIP3    H149384   6.342   4.984  13.429  0.9630 -1.0541 -0.2953
 9323TIP3    H249385   6.487   5.029  13.423  0.3557  1.0983  0.5164
 9324TIP3   OH249386   1.533   1.796  12.107  0.1336  0.1592 -0.9252
 9324TIP3    H149387   1.467   1.781  12.174  0.0459  1.4773 -0.7016
 9324TIP3    H249388   1.536   1.714  12.058 -0.1819 -0.6429  0.3481
 9325TIP3   OH249389   2.047   1.620   5.723 -0.2353 -0.0936  0.1843
 9325TIP3    H149390   2.067   1.713   5.719  0.6509 -0.3227 -1.1322
 9325TIP3    H249391   1.955   1.617   5.749 -0.9480  1.2297 -1.9321
 9326TIP3   OH249392   3.639   3.470  14.753 -0.4569  0.0585 -0.2841
 9326TIP3    H149393   3.548   3.468  14.723 -1.8194  2.9726  2.9283
 9326TIP3    H249394   3.678   3.544  14.705 -0.9090  1.0396  0.8098
 9327TIP3   OH249395   4.508   2.457  11.241 -0.2440 -0.1895 -0.2052
 9327TIP3    H149396   4.538   2.540  11.203 -0.4921  1.5498  3.0844
 9327TIP3    H249397   4.415   2.471  11.256  0.0548 -0.3385  1.9828
 9328TIP3   OH249398   1.993   3.286  15.308 -0.5724 -0.3533 -0.2621
 9328TIP3    H149399   1.915   3.330  15.341 -0.6927  0.1193 -1.1305
 9328TIP3    H249400   1.960   3.230  15.237 -0.0602  0.3010 -1.0356
 9329TIP3   OH249401   3.857   4.008   1.514  0.2110 -0.2363 -0.2886
 9329TIP3    H149402   3.940   3.988   1.559  0.3115 -1.6057 -1.0299
 9329TIP3    H249403   3.854   4.104   1.511  0.9617 -0.1343  1.2097
 9330TIP3   OH249404   3.519   4.700  11.844 -0.4213 -0.6660  0.2634
 9330TIP3    H149405   3.425   4.688  11.856 -0.4333 -2.3543 -1.1331
 9330TIP3    H249406   3.545   4.631  11.783  1.7330 -0.2385  0.5951
 9331TIP3   OH249407   6.427   6.017   5.789  0.1519 -0.5002 -0.3597
 9331TIP3    H149408   6.439   5.941   5.732  1.0744 -1.7224  1.4079
 9331TIP3    H249409   6.394   5.981   5.871 -1.0640  1.2191 -0.0396
 9332TIP3   OH249410   2.142   2.582  15.230 -0.3077  0.0769 -0.5452
 9332TIP3    H149411   2.161   2.518  15.161  1.6582  0.0528 -0.0517
 9332TIP3    H249412   2.153   2.533  15.311 -2.3907  0.1647 -0.1695
 9333TIP3   OH249413   5.256   2.186  16.736 -0.1827 -0.6058  0.1405
 9333TIP3    H149414   5.244   2.276  16.766  0.7542  0.0479 -1.3589
 9333TIP3    H249415   5.267   2.136  16.816 -0.6951  0.6068  1.0039
 9334TIP3   OH249416   2.876   6.400   0.426  0.4451 -0.0819 -0.4436
 9334TIP3    H149417   2.853   6.317   0.383 -1.5860  0.3270 -0.2462
 9334TIP3    H249418   2.912   6.454   0.355 -2.5757  0.4712 -1.7523
 9335TIP3   OH249419   2.277   3.560   2.415  0.0431 -0.1376 -0.7819
 9335TIP3    H149420   2.274   3.465   2.426  0.7596 -0.1851 -0.9698
 9335TIP3    H249421   2.334   3.575   2.340 -0.1336  0.4399 -0.8128
 9336TIP3   OH249422   0.954   5.444  16.573 -0.3223 -0.0512 -0.6644
 9336TIP3    H149423   0.879   5.394  16.605 -0.8377  0.7815 -0.5191
 9336TIP3    H249424   0.960   5.519  16.633  1.0814 -0.4776 -0.2224
 9337TIP3   OH249425   2.341   5.017  15.347  0.1252  0.3859  0.2529
 9337TIP3    H149426   2.320   4.989  15.258 -2.2613  0.7008  0.6486
 9337TIP3    H249427   2.264   5.067  15.375  0.9454  0.5632  2.3830
 9338TIP3   OH249428   3.055   0.554   5.758 -0.8330 -0.0814  0.6601
 9338TIP3    H149429   2.974   0.546   5.809 -0.6299 -2.7729  0.7025
 9338TIP3    H249430   3.071   0.466   5.725  0.4977  1.0275 -1.8844
 9339TIP3   OH249431   6.519   1.389  13.858  0.4292  0.2827  0.6278
 9339TIP3    H149432   6.561   1.374  13.943 -0.4099  0.5105  1.0872
 9339TIP3    H249433   6.529   1.483  13.842  2.0229  0.0048 -0.3150
 9340TIP3   OH249434   2.170   3.920  11.725  0.0267 -0.2039 -0.3727
 9340TIP3    H149435   2.177   3.996  11.667 -0.4997  0.5365  0.5150
 9340TIP3    H249436   2.258   3.910  11.762 -0.1629  0.6664  0.3463
 9341TIP3   OH249437   2.622   4.737  16.326 -0.1118  0.1382  0.2490
 9341TIP3    H149438   2.664   4.795  16.262 -1.0078  0.5097 -0.0181
 9341TIP3    H249439   2.692   4.714  16.387  0.9138 -0.7428 -1.2099
 9342TIP3   OH249440   0.640   3.320   4.152 -0.3546 -0.0810  0.1036
 9342TIP3    H149441   0.545   3.315   4.162 -0.1735 -3.1990  1.3900
 9342TIP3    H249442   0.666   3.387   4.215 -1.6636  0.4131  0.1616
 9343TIP3   OH249443   0.951   6.088   5.558 -0.0003  0.0905  0.6258
 9343TIP3    H149444   1.044   6.068   5.558 -0.5198 -2.8356 -0.1966
 9343TIP3    H249445   0.937   6.140   5.637  2.3190  0.7719  0.6489
 9344TIP3   OH249446   2.721   3.345   6.526 -0.0941 -0.0762  0.8639
 9344TIP3    H149447   2.815   3.366   6.524 -0.0693 -0.1954  0.7979
 9344TIP3    H249448   2.711   3.285   6.599 -0.1979  0.3206  1.1780
 9345TIP3   OH249449   6.412   2.159   2.448  0.4173  0.0015  0.2113
 9345TIP3    H149450   6.385   2.095   2.514  0.6120  0.0677  0.3573
 9345TIP3    H249451   6.468   2.110   2.387  0.5655  0.0309  0.3227
 9346TIP3   OH249452   2.157   5.292   1.984  0.0650  0.2017 -0.1775
 9346TIP3    H149453   2.144   5.386   2.000 -1.4507  0.4296 -2.2824
 9346TIP3    H249454   2.086   5.250   2.032  0.4203  0.1718  0.3253
 9347TIP3   OH249455   2.539   1.484   4.763  0.0091  0.2053  0.4432
 9347TIP3    H149456   2.538   1.394   4.795 -1.2989 -1.1294 -2.8726
 9347TIP3    H249457   2.448   1.513   4.768  0.2616  1.0206  0.5996
 9348TIP3   OH249458   5.456   1.441   2.525 -0.3373 -0.5635  0.2695
 9348TIP3    H149459   5.423   1.523   2.561  1.1731  0.2234 -0.0165
 9348TIP3    H249460   5.525   1.468   2.464 -0.0817 -2.0331 -0.1373
 9349TIP3   OH249461   3.563   0.625   2.382  0.6898 -0.4401 -0.1720
 9349TIP3    H149462   3.585   0.715   2.405  1.2738 -0.6114 -0.0600
 9349TIP3    H249463   3.642   0.591   2.340 -0.3149 -0.1501 -2.4394
 9350TIP3   OH249464   1.260   3.725  15.135  0.4777  0.0048  0.0977
 9350TIP3    H149465   1.226   3.811  15.111  0.9731  0.3319  0.5333
 9350TIP3    H249466   1.311   3.697  15.059  0.9570  0.4457  0.2510
 9351TIP3   OH249467   5.474   6.074  12.070 -0.0840 -0.4344 -0.1347
 9351TIP3    H149468   5.440   6.013  12.134 -0.7783  0.5929  0.5118
 9351TIP3    H249469   5.530   6.021  12.012  0.9973 -1.2800  1.6129
 9352TIP3   OH249470   3.819   1.912   5.312 -0.6333 -0.2686 -0.1229
 9352TIP3    H149471   3.894   1.860   5.339 -0.6457  0.0492  0.5487
 9352TIP3    H249472   3.812   1.980   5.379 -0.3070  0.9019 -1.2415
 9353TIP3   OH249473   2.225   1.523   0.281  0.1754  1.0790 -0.3793
 9353TIP3    H149474   2.284   1.513   0.206  1.1124 -0.1212  0.4657
 9353TIP3    H249475   2.160   1.586   0.252  0.2816  0.3675 -2.3433
 9354TIP3   OH249476   4.712   5.944  16.951  0.3380  0.4613 -0.6073
 9354TIP3    H149477   4.646   5.884  16.985  0.7694  0.6914  0.6842
 9354TIP3    H249478   4.781   5.946  17.018  1.4994  0.4990 -1.7558
 9355TIP3   OH249479   0.409   3.996   1.795 -0.4866 -0.1628 -0.0921
 9355TIP3    H149480   0.436   4.087   1.781 -0.2931 -0.1663  0.2283
 9355TIP3    H249481   0.340   3.981   1.731 -0.9731  0.4124  0.2887
 9356TIP3   OH249482   1.359   3.468  10.731  0.2448  0.0743 -0.1081
 9356TIP3    H149483   1.414   3.445  10.806 -0.4142  0.1205  0.4041
 9356TIP3    H249484   1.306   3.390  10.714  1.7883 -0.6754 -1.8417
 9357TIP3   OH249485   2.545   4.838  14.661 -0.1538  0.1521  1.0147
 9357TIP3    H149486   2.542   4.810  14.752  0.6821  1.1182  1.3596
 9357TIP3    H249487   2.592   4.768  14.616  0.4059  0.1834  1.5406
 9358TIP3   OH249488   4.306   4.042  12.727 -0.0807  0.2130  0.1523
 9358TIP3    H149489   4.289   4.083  12.642 -0.2469 -2.6606 -1.3175
 9358TIP3    H249490   4.400   4.055  12.741 -0.4761  2.9128  0.8693
 9359TIP3   OH249491   3.482   1.914   5.715  0.1502  0.3022  0.1726
 9359TIP3    H149492   3.500   1.970   5.791 -1.7802  1.4346 -0.1270
 9359TIP3    H249493   3.479   1.825   5.750  3.0558  0.3089  0.7115
 9360TIP3   OH249494   6.398   4.274   2.162 -0.3532 -0.0974  0.4436
 9360TIP3    H149495   6.334   4.220   2.208 -0.6172  0.5326  0.8419
 9360TIP3    H249496   6.345   4.343   2.120 -0.1737 -0.9005 -1.1880
 9361TIP3   OH249497   6.447   0.043  16.088 -0.4887 -0.1184 -0.6931
 9361TIP3    H149498   6.432  -0.016  16.015 -3.0508 -0.6017  0.1121
 9361TIP3    H249499   6.446  -0.014  16.165 -0.5875  0.6968 -0.0762
 9362TIP3   OH249500   6.531   1.768   4.031 -0.0369  0.0377 -0.2373
 9362TIP3    H149501   6.489   1.684   4.014 -0.8317  0.3138  0.3192
 9362TIP3    H249502   6.564   1.797   3.946  1.5987 -1.5388 -0.1974
 9363TIP3   OH249503   1.969   3.807   0.142  0.0888  0.1904 -0.1306
 9363TIP3    H149504   1.925   3.771   0.220 -0.8339  0.6737 -0.4124
 9363TIP3    H249505   2.061   3.812   0.167  0.1037 -1.4245  0.2689
 9364TIP3   OH249506   2.686   5.929   2.812 -0.0100 -0.5188  0.1051
 9364TIP3    H149507   2.678   6.012   2.859  3.0742 -0.4076  0.6011
 9364TIP3    H249508   2.724   5.953   2.727  0.0400 -1.3319 -0.1091
 9365TIP3   OH249509   1.511   1.537   6.047  0.1895 -0.0684  0.4867
 9365TIP3    H149510   1.560   1.499   6.120 -0.9777 -0.0594  1.2906
 9365TIP3    H249511   1.444   1.591   6.089 -0.6599 -0.2707 -0.5901
 9366TIP3   OH249512   5.195   1.417   0.704 -0.1873 -0.1067  0.4770
 9366TIP3    H149513   5.164   1.328   0.718 -0.6808  0.0788  0.5946
 9366TIP3    H249514   5.125   1.473   0.738 -0.0640  0.3261  0.0465
 9367TIP3   OH249515   1.865   5.807   3.026  0.6535 -0.3138  0.2634
 9367TIP3    H149516   1.786   5.844   3.066  1.8669  1.0074  1.5553
 9367TIP3    H249517   1.835   5.771   2.943 -1.1480  0.9387  0.3147
 9368TIP3   OH249518   3.739   2.993  11.313 -0.1468 -0.3623 -0.7942
 9368TIP3    H149519   3.720   3.060  11.246  0.6668  0.7503  0.0453
 9368TIP3    H249520   3.690   3.023  11.390  2.6837  1.1305  0.6083
 9369TIP3   OH249521   2.552   3.367   4.577 -0.0198  0.1254 -0.9141
 9369TIP3    H149522   2.500   3.346   4.654  0.4785  0.0702 -0.5861
 9369TIP3    H249523   2.580   3.282   4.543 -0.6992  0.1258 -1.4808
 9370TIP3   OH249524   0.575   4.363  12.753  0.1270  0.2160  1.0277
 9370TIP3    H149525   0.543   4.439  12.705  3.1944  0.7609 -0.3757
 9370TIP3    H249526   0.597   4.396  12.840  0.0655  0.5951  0.8990
 9371TIP3   OH249527   0.646   0.130  12.068  0.1203  0.6675  0.3087
 9371TIP3    H149528   0.565   0.082  12.053  0.9486 -1.7462  2.6952
 9371TIP3    H249529   0.662   0.121  12.162  3.8999 -0.3384 -0.2644
 9372TIP3   OH249530   4.222   1.843   5.733 -0.5070  0.3566  0.2278
 9372TIP3    H149531   4.199   1.865   5.824  1.3330  0.6732  0.6549
 9372TIP3    H249532   4.290   1.905   5.710 -0.7106  0.0510 -1.2718
 9373TIP3   OH249533   1.038   0.297   1.529  0.2012  0.2509  0.3283
 9373TIP3    H149534   1.036   0.231   1.460 -2.8089  0.8925 -0.3092
 9373TIP3    H249535   1.122   0.282   1.573  1.0598 -1.8631 -1.7893
 9374TIP3   OH249536   6.343   1.428  12.240 -0.5694  0.3970 -0.0694
 9374TIP3    H149537   6.347   1.332  12.240 -0.0307  0.3721  2.0360
 9374TIP3    H249538   6.252   1.448  12.261 -0.0636  0.2481  2.5794
 9375TIP3   OH249539   6.377   4.216  15.465  0.4158 -0.0729  0.2537
 9375TIP3    H149540   6.283   4.231  15.469  0.3358 -0.0561 -1.2806
 9375TIP3    H249541   6.394   4.153  15.536 -0.5094  0.9580  1.4289
 9376TIP3   OH249542   2.468   0.303  11.840 -0.1552 -0.3084  0.6355
 9376TIP3    H149543   2.495   0.220  11.801 -0.1752 -0.2933  0.5899
 9376TIP3    H249544   2.459   0.363  11.766 -0.1710 -0.2740  0.6653
 9377TIP3   OH249545   4.386   1.604  11.231  0.0005  0.5399  0.0385
 9377TIP3    H149546   4.339   1.601  11.148  2.3844 -1.3156 -1.3883
 9377TIP3    H249547   4.463   1.549  11.217  0.8128  0.6171  3.3261
 9378TIP3   OH249548   1.841   6.485  13.553  0.2029 -0.1301 -0.2120
 9378TIP3    H149549   1.789   6.507  13.630 -0.3479 -1.1156 -0.2890
 9378TIP3    H249550   1.776   6.460  13.487  0.5463  2.1028 -1.5172
 9379TIP3   OH249551   4.425   6.342   5.530 -0.4563  0.4197 -0.3686
 9379TIP3    H149552   4.479   6.421   5.542  0.2197 -0.1751  0.6009
 9379TIP3    H249553   4.443   6.315   5.440 -0.4137  1.1653 -0.5944
 9380TIP3   OH249554   4.544   4.117   2.983 -0.1405  0.0217  0.6053
 9380TIP3    H149555   4.451   4.100   2.996  0.0361 -1.0012  0.6386
 9380TIP3    H249556   4.558   4.205   3.019 -0.9302 -0.1476  1.3535
 9381TIP3   OH249557   0.654   6.078   3.783 -0.2016  0.1230 -0.1173
 9381TIP3    H149558   0.569   6.086   3.825  0.6201  3.3361  1.1859
 9381TIP3    H249559   0.686   5.992   3.810 -3.3928 -1.7449 -1.6135
 9382TIP3   OH249560   4.518   1.719  14.678  0.6100  0.3115 -0.4450
 9382TIP3    H149561   4.451   1.785  14.694  0.9349  0.7152 -0.7148
 9382TIP3    H249562   4.471   1.645  14.641  0.3329  0.6487 -0.7765
 9383TIP3   OH249563   0.343   4.594   1.825 -0.6282  0.0968 -0.4309
 9383TIP3    H149564   0.395   4.579   1.904 -0.1240  2.5249 -0.2197
 9383TIP3    H249565   0.260   4.628   1.857 -0.2334  1.5978 -0.9108
 9384TIP3   OH249566   3.714   2.135   0.691 -0.3236  0.2186 -0.2916
 9384TIP3    H149567   3.720   2.058   0.635  1.1588  0.5405 -0.6123
 9384TIP3    H249568   3.716   2.209   0.630  0.7985  0.5560  0.1199
 9385TIP3   OH249569   4.820   1.049  14.222  0.3043  0.1107 -0.1978
 9385TIP3    H149570   4.875   0.981  14.183 -1.5916 -1.0683 -0.9828
 9385TIP3    H249571   4.828   1.036  14.316 -1.0632 -2.1889 -0.3164
 9386TIP3   OH249572   4.604   0.126  11.343 -0.3108  0.6400 -0.1230
 9386TIP3    H149573   4.573   0.122  11.434 -0.6179  0.9762 -0.2092
 9386TIP3    H249574   4.568   0.047  11.303 -1.4090  1.2131 -0.3206
 9387TIP3   OH249575   4.382   0.814  13.956  0.2658  0.6185  0.1928
 9387TIP3    H149576   4.309   0.778  13.905  0.1722 -0.8728  1.3309
 9387TIP3    H249577   4.407   0.744  14.016  2.1369  1.3821  0.3744
 9388TIP3   OH249578   5.852   6.024   4.863 -0.3451 -0.4981 -0.5806
 9388TIP3    H149579   5.810   6.107   4.840 -3.0121 -1.2171  1.2008
 9388TIP3    H249580   5.858   6.026   4.959 -2.9105 -3.3351 -0.2190
 9389TIP3   OH249581   1.910   2.060  12.981  0.4813  0.5343 -0.0895
 9389TIP3    H149582   1.960   1.981  12.965 -1.3597 -0.8452  0.5618
 9389TIP3    H249583   1.915   2.072  13.076 -0.1083  0.5882 -0.0631
 9390TIP3   OH249584   3.360   3.170  11.359 -0.1359  0.1544  0.1635
 9390TIP3    H149585   3.281   3.187  11.309 -0.0595 -0.7635 -0.3099
 9390TIP3    H249586   3.331   3.164  11.450 -0.3927  1.1226  0.1482
 9391TIP3   OH249587   1.909   3.496  14.883  0.4184  0.1810  0.1651
 9391TIP3    H149588   1.927   3.590  14.890  1.3889 -0.0210  0.5155
 9391TIP3    H249589   1.910   3.479  14.789 -2.7552  1.0530 -0.1377
 9392TIP3   OH249590   6.564   2.007   6.023 -0.0037 -0.1135  0.0981
 9392TIP3    H149591   6.579   2.046   6.109 -0.0243 -0.6739  0.3636
 9392TIP3    H249592   6.511   1.929   6.041 -2.0706  1.0542 -0.6739
 9393TIP3   OH249593   1.777   2.429   2.325  0.1296  0.2302  0.2224
 9393TIP3    H149594   1.743   2.385   2.403  1.2992 -1.7661 -0.3323
 9393TIP3    H249595   1.871   2.434   2.339 -0.0516  5.1974  1.5060
 9394TIP3   OH249596   6.063   0.414  10.974  0.4218  0.1407  0.0968
 9394TIP3    H149597   6.139   0.458  10.937  1.1520 -0.1890  1.1413
 9394TIP3    H249598   6.013   0.484  11.018  0.2602  0.3125 -0.3565
 9395TIP3   OH249599   1.997   3.882  12.582 -0.5194 -0.0143  0.0889
 9395TIP3    H149600   1.925   3.821  12.597 -0.1248 -0.1840  1.4189
 9395TIP3    H249601   1.954   3.967  12.566 -1.0495 -0.5075 -1.2326
 9396TIP3   OH249602   0.202   1.179  12.646 -0.5818 -0.3069 -0.1042
 9396TIP3    H149603   0.172   1.119  12.715 -2.9359  1.9219  0.9710
 9396TIP3    H249604   0.144   1.162  12.572 -1.4947  0.8508  0.3320
 9397TIP3   OH249605   1.473   0.560   4.396 -0.1604  0.3339  0.0845
 9397TIP3    H149606   1.511   0.604   4.472  0.6559 -1.4022  0.7287
 9397TIP3    H249607   1.381   0.546   4.420  0.2374 -0.7669  1.0427
 9398TIP3   OH249608   4.377   2.775  14.424  0.0981 -0.2064  0.1665
 9398TIP3    H149609   4.433   2.851  14.414 -1.9561  1.5120  0.9484
 9398TIP3    H249610   4.412   2.728  14.500  0.7469  0.5531  0.3469
 9399TIP3   OH249611   5.831   6.093  10.176  0.7296 -0.3245 -0.0032
 9399TIP3    H149612   5.745   6.115  10.211  0.8854 -1.2988  1.0929
 9399TIP3    H249613   5.892   6.149  10.224  0.7610 -0.1142 -0.2888
 9400TIP3   OH249614   5.342   0.987   3.830 -0.0571  0.2141 -0.2282
 9400TIP3    H149615   5.377   1.069   3.866 -0.2371  1.1825 -2.1422
 9400TIP3    H249616   5.398   0.968   3.755 -1.9143  0.3268 -1.7139
 9401TIP3   OH249617   5.568   0.917   0.914 -0.0669 -0.5469  0.0547
 9401TIP3    H149618   5.519   0.990   0.952 -1.2211 -0.4353 -1.5319
 9401TIP3    H249619   5.634   0.896   0.979 -1.7337 -0.1962  1.9628
 9402TIP3   OH249620   6.050   1.053   3.836 -0.5371  0.3166 -0.6457
 9402TIP3    H149621   6.085   0.973   3.874  0.0603  0.2535 -1.3060
 9402TIP3    H249622   6.101   1.065   3.756  0.1245  1.9287 -0.0222
 9403TIP3   OH249623   5.512   5.149   1.738  0.1918 -0.2303 -0.9908
 9403TIP3    H149624   5.441   5.175   1.797 -0.2440  0.1864 -1.6803
 9403TIP3    H249625   5.576   5.107   1.795 -1.3468 -2.1542 -0.5576
 9404TIP3   OH249626   3.828   5.073  13.916  0.4186  0.5467  0.7405
 9404TIP3    H149627   3.793   4.986  13.934  1.2545  0.2750  1.1074
 9404TIP3    H249628   3.922   5.066  13.935  0.9746  0.8513 -1.5154
 9405TIP3   OH249629   5.526   2.332  15.005  0.0652  0.1077  0.0909
 9405TIP3    H149630   5.434   2.353  14.997 -0.0222  1.2208  2.7805
 9405TIP3    H249631   5.527   2.250  15.055  0.4649  0.9682  1.5800
 9406TIP3   OH249632   3.098   2.679   4.077  0.6081  0.0261  0.0949
 9406TIP3    H149633   3.102   2.698   4.170  0.6700 -0.5203  0.2102
 9406TIP3    H249634   3.041   2.746   4.040  1.1409  0.6599  0.4104
 9407TIP3   OH249635   1.754   2.244  11.846 -0.0347  0.7597  0.0789
 9407TIP3    H149636   1.755   2.338  11.863  0.7229  0.9074 -0.6656
 9407TIP3    H249637   1.793   2.205  11.924 -1.1642  0.9840  0.7626
 9408TIP3   OH249638   3.862   3.057   5.042  0.1066 -0.3934 -0.0721
 9408TIP3    H149639   3.900   3.048   5.129  1.6639 -1.6099 -0.8205
 9408TIP3    H249640   3.820   2.972   5.025 -1.4381  0.3171  0.0229
 9409TIP3   OH249641   5.518   0.195  10.797 -0.1910 -0.2828  0.3161
 9409TIP3    H149642   5.436   0.197  10.845 -0.5676  2.2234 -0.2778
 9409TIP3    H249643   5.586   0.193  10.865 -0.7162 -0.1367  0.8502
 9410TIP3   OH249644   1.018   4.823  10.667 -0.2569 -0.2744  0.5456
 9410TIP3    H149645   1.040   4.738  10.706  1.0554  0.4739  1.5119
 9410TIP3    H249646   0.923   4.828  10.672 -0.6400 -2.7468 -1.8280
 9411TIP3   OH249647   5.184   5.086   0.490  0.0097  1.1970 -0.4442
 9411TIP3    H149648   5.271   5.047   0.498  0.3314  1.7028 -1.3236
 9411TIP3    H249649   5.155   5.060   0.402 -0.0592  2.3510 -0.7784
 9412TIP3   OH249650   3.893   6.604   4.170  0.2691  0.1205 -0.6946
 9412TIP3    H149651   3.889   6.509   4.175  0.0709  0.1277 -0.7460
 9412TIP3    H249652   3.956   6.622   4.100 -0.4539  0.0280 -1.3769
 9413TIP3   OH249653   1.870   0.382  10.165 -0.4860 -0.0090 -0.5981
 9413TIP3    H149654   1.915   0.438  10.227 -1.7370 -0.3002  0.6162
 9413TIP3    H249655   1.935   0.316  10.140 -0.1588 -0.3071  0.9510
 9414TIP3   OH249656   0.750   1.789   0.911 -0.5829  0.3757 -0.1561
 9414TIP3    H149657   0.807   1.860   0.881  1.6616 -1.2608  0.0338
 9414TIP3    H249658   0.669   1.801   0.861  1.3643  0.4097 -3.5794
 9415TIP3   OH249659   6.106   5.410  16.623  1.2541 -0.3403  0.8369
 9415TIP3    H149660   6.150   5.405  16.538  2.1196 -0.1307  1.2574
 9415TIP3    H249661   6.050   5.333  16.626  0.6783  0.0208 -0.2140
 9416TIP3   OH249662   2.470   4.086   1.255 -0.2375 -0.0181 -0.3859
 9416TIP3    H149663   2.374   4.084   1.254 -0.3035  1.2366 -2.4333
 9416TIP3    H249664   2.496   4.011   1.202 -0.0892 -0.2301 -0.0140
 9417TIP3   OH249665   4.718   2.967   1.085  0.1517 -0.5257 -0.1030
 9417TIP3    H149666   4.808   2.997   1.103  0.9674 -3.0843  0.5020
 9417TIP3    H249667   4.665   3.006   1.154 -0.1190  4.2710 -2.5887
 9418TIP3   OH249668   4.621   3.636   1.858 -0.7466 -0.1250 -0.1455
 9418TIP3    H149669   4.570   3.620   1.938 -0.9485 -1.8007 -0.5766
 9418TIP3    H249670   4.695   3.690   1.887 -1.1919 -0.1303  1.0395
 9419TIP3   OH249671   0.593   2.006   1.911  0.0418 -0.0332  0.2801
 9419TIP3    H149672   0.620   1.918   1.936  0.5248 -0.2297 -0.9122
 9419TIP3    H249673   0.523   2.028   1.974  1.0514 -0.5903  1.6504
 9420TIP3   OH249674   4.398   0.625  15.525  0.1993 -0.1479 -0.8139
 9420TIP3    H149675   4.486   0.657  15.544  1.6595 -3.3874 -1.4514
 9420TIP3    H249676   4.362   0.600  15.610  0.2941  0.1949 -0.6700
 9421TIP3   OH249677   4.759   4.824  10.985  0.0629  0.1922 -0.3987
 9421TIP3    H149678   4.851   4.817  10.961  0.0964  1.0390 -0.5272
 9421TIP3    H249679   4.712   4.789  10.909  0.3176 -3.0033  0.7728
 9422TIP3   OH249680   4.721   4.173   5.970 -0.3829 -0.1260  0.5577
 9422TIP3    H149681   4.754   4.094   6.013  1.4142 -0.7066 -1.7264
 9422TIP3    H249682   4.742   4.244   6.031 -0.6661 -1.1982  1.9684
 9423TIP3   OH249683   0.279   4.675  10.608  0.5483 -1.0164 -0.3710
 9423TIP3    H149684   0.348   4.740  10.619 -0.4493  0.0743 -0.3800
 9423TIP3    H249685   0.294   4.639  10.521  0.1574  0.3842 -1.0445
 9424TIP3   OH249686   5.129   5.133  13.471 -0.1819 -0.9480  0.7796
 9424TIP3    H149687   5.221   5.161  13.465 -0.5631  0.6345  1.5331
 9424TIP3    H249688   5.112   5.086  13.389  1.4744 -1.8725  0.9264
 9425TIP3   OH249689   5.778   2.097   2.867  0.5630 -0.1110  0.5744
 9425TIP3    H149690   5.694   2.056   2.847  0.1618  1.0142 -0.1880
 9425TIP3    H249691   5.814   2.047   2.940 -0.6988 -0.6989  0.8019
 9426TIP3   OH249692   2.162   3.862   4.155 -0.6154 -0.1633 -0.1152
 9426TIP3    H149693   2.201   3.911   4.228 -0.1615 -0.9579  0.1909
 9426TIP3    H249694   2.234   3.809   4.121 -0.4710  1.1463 -2.0075
 9427TIP3   OH249695   3.332   4.649  11.549 -0.3323  0.4357  0.1110
 9427TIP3    H149696   3.311   4.740  11.529 -1.4749  0.1835  0.1106
 9427TIP3    H249697   3.250   4.602  11.538  0.5037 -0.8253 -1.1486
 9428TIP3   OH249698   5.973   0.889  13.306 -0.4872 -0.1559  0.6051
 9428TIP3    H149699   5.926   0.835  13.369  0.2727 -1.1772  0.3207
 9428TIP3    H249700   5.906   0.918  13.244 -1.0659  0.0370  1.3121
 9429TIP3   OH249701   5.546   5.203   2.048  0.2284  0.7249 -0.5068
 9429TIP3    H149702   5.585   5.264   1.985  1.0483  1.2542  0.4944
 9429TIP3    H249703   5.585   5.227   2.132  1.5852 -2.0256 -0.2649
 9430TIP3   OH249704   3.495   3.196   2.987 -0.2147  0.3180 -0.3457
 9430TIP3    H149705   3.440   3.269   3.018 -0.6229 -0.0246 -0.2516
 9430TIP3    H249706   3.468   3.183   2.896 -0.7889 -0.2987 -0.0983
 9431TIP3   OH249707   5.722   4.836   1.266  0.1343 -0.2943  0.1964
 9431TIP3    H149708   5.768   4.852   1.349  0.9270 -1.7376  0.0829
 9431TIP3    H249709   5.636   4.803   1.292 -0.5377  1.5731  0.4175
 9432TIP3   OH249710   5.097   3.206  16.774  0.3997  0.2930  0.7272
 9432TIP3    H149711   5.180   3.159  16.781  0.6560  0.8496  1.7293
 9432TIP3    H249712   5.064   3.185  16.686  0.9353 -1.0118  0.8072
 9433TIP3   OH249713   4.675   2.708   2.198 -0.1689 -0.0142  0.2627
 9433TIP3    H149714   4.665   2.613   2.204 -0.7635 -0.1769 -2.0769
 9433TIP3    H249715   4.768   2.720   2.179 -0.3861 -0.3037 -1.1190
 9434TIP3   OH249716   5.507   3.838   5.188 -0.3433  0.0955 -0.2276
 9434TIP3    H149717   5.544   3.751   5.171  1.1787  0.6294  0.1752
 9434TIP3    H249718   5.569   3.879   5.249 -0.2588  1.9850 -1.4832
 9435TIP3   OH249719   6.669   3.845   1.255  0.5424 -0.1747  0.0055
 9435TIP3    H149720   6.659   3.887   1.170 -0.8634  3.0251  1.5572
 9435TIP3    H249721   6.582   3.812   1.276  0.7059 -0.3055  0.4909
 9436TIP3   OH249722   6.675   2.237   3.717 -0.0089 -0.3523  0.5551
 9436TIP3    H149723   6.660   2.329   3.739  0.1614 -0.3782  0.7844
 9436TIP3    H249724   6.750   2.211   3.772 -0.5052 -0.8251  1.0259
 9437TIP3   OH249725   1.888   2.196  11.454 -0.1248  0.8197 -0.9194
 9437TIP3    H149726   1.955   2.153  11.400 -0.3829 -0.7777 -0.0357
 9437TIP3    H249727   1.838   2.123  11.492 -0.2617  1.8827  1.0711
 9438TIP3   OH249728   5.086   2.676   6.121  0.1023 -0.1227 -0.1498
 9438TIP3    H149729   5.125   2.591   6.143 -1.6043 -0.7750  0.4799
 9438TIP3    H249730   5.152   2.740   6.148  0.6669 -1.1725  1.0728
 9439TIP3   OH249731   4.345   1.741   4.771 -0.4662  0.0743  0.2735
 9439TIP3    H149732   4.411   1.747   4.840  0.8168 -0.5298 -0.8405
 9439TIP3    H249733   4.395   1.718   4.692 -2.0961 -1.0444 -0.4860
 9440TIP3   OH249734   0.291   5.399   5.881 -0.1782 -0.4266 -0.2317
 9440TIP3    H149735   0.272   5.488   5.851  0.0061  0.5642  2.3342
 9440TIP3    H249736   0.383   5.385   5.857 -0.2674 -0.0240 -0.8396
 9441TIP3   OH249737   4.591   3.884  12.155 -0.1103  0.1589  0.2834
 9441TIP3    H149738   4.545   3.968  12.153  1.0254  0.8038  0.4579
 9441TIP3    H249739   4.553   3.838  12.230  0.2649  1.1241  1.0930
 9442TIP3   OH249740   6.058   0.839   3.151  0.1824 -0.8756 -0.1066
 9442TIP3    H149741   6.045   0.933   3.142  0.1273 -0.8864 -0.1346
 9442TIP3    H249742   6.116   0.815   3.078 -1.0535 -1.1359 -1.0252
 9443TIP3   OH249743   2.187   4.091   6.350  0.0030  0.1644  0.1724
 9443TIP3    H149744   2.236   4.016   6.318  1.6590  0.2302  2.2969
 9443TIP3    H249745   2.223   4.166   6.302  1.6409  0.1347  1.3045
 9444TIP3   OH249746   3.364   0.223  14.296 -0.4447  0.2427 -0.1129
 9444TIP3    H149747   3.408   0.306  14.278  0.7878 -0.3118  0.2238
 9444TIP3    H249748   3.337   0.230  14.388 -1.4455  0.7293 -0.4218
 9445TIP3   OH249749   2.492   2.848  11.401  0.0626  0.0382  0.5856
 9445TIP3    H149750   2.547   2.868  11.476  0.2764  0.9712  0.1929
 9445TIP3    H249751   2.423   2.914  11.403  0.5991  0.6683 -0.5563
 9446TIP3   OH249752   1.712   5.922  16.231 -0.5158  0.0151  0.5493
 9446TIP3    H149753   1.624   5.959  16.242 -0.6979 -0.0047 -0.7355
 9446TIP3    H249754   1.747   5.966  16.154  0.2824 -0.5928  0.5593
 9447TIP3   OH249755   4.326   2.255  13.726 -0.2385  0.9339 -0.4356
 9447TIP3    H149756   4.237   2.229  13.749 -0.0478  1.3770  0.8921
 9447TIP3    H249757   4.373   2.172  13.715 -1.0408  0.6717 -2.2425
 9448TIP3   OH249758   1.766   0.604  14.816  0.6809  0.4448  0.3385
 9448TIP3    H149759   1.673   0.617  14.801  0.9701  1.0336 -1.1375
 9448TIP3    H249760   1.789   0.670  14.882  0.3074  1.2248 -0.2922
 9449TIP3   OH249761   4.969   1.620   1.463 -0.1712 -0.1807 -0.3557
 9449TIP3    H149762   4.890   1.578   1.428 -0.0962 -0.0840 -0.6467
 9449TIP3    H249763   4.991   1.569   1.540 -1.8583  1.1694  1.1320
 9450TIP3   OH249764   4.084   6.636  14.858  0.0412  0.2517 -0.2970
 9450TIP3    H149765   4.149   6.672  14.918 -0.0402  2.1479 -1.2742
 9450TIP3    H249766   4.066   6.708  14.796 -2.0239 -0.6569 -0.8206
 9451TIP3   OH249767   5.087   1.712  11.293  0.1101 -0.1489  0.1124
 9451TIP3    H149768   4.992   1.727  11.290 -0.2240 -2.1696 -1.8118
 9451TIP3    H249769   5.116   1.726  11.203  1.0830 -2.6390 -0.0158
 9452TIP3   OH249770   3.444   6.285   0.362  0.5621 -0.0547 -0.1018
 9452TIP3    H149771   3.444   6.245   0.275  0.6609 -0.7731  0.2244
 9452TIP3    H249772   3.379   6.234   0.411  3.1316 -2.1438  1.3699
 9453TIP3   OH249773   4.469   3.756  15.848  0.5828 -0.0018 -0.0801
 9453TIP3    H149774   4.554   3.793  15.826  0.7911  0.1259  0.9263
 9453TIP3    H249775   4.485   3.663  15.861  0.1391 -0.4263 -2.1518
 9454TIP3   OH249776   6.367   2.463  12.489  0.0138  0.9379  0.2243
 9454TIP3    H149777   6.341   2.526  12.557 -0.8160  0.9691 -0.1185
 9454TIP3    H249778   6.287   2.416  12.467  0.5475  0.0051  0.2032
 9455TIP3   OH249779   3.856   2.277  14.346 -0.2285 -0.1217 -0.2984
 9455TIP3    H149780   3.896   2.198  14.382  0.4743  0.8676  1.2176
 9455TIP3    H249781   3.789   2.245  14.286  0.3678 -1.8525 -0.1010
 9456TIP3   OH249782   4.490   3.158  16.795 -0.4432  0.1446  0.4379
 9456TIP3    H149783   4.448   3.202  16.869 -0.4122  1.0223 -0.0435
 9456TIP3    H249784   4.419   3.141  16.734 -0.1988  1.1896 -0.1638
 9457TIP3   OH249785   3.778   0.118  12.484 -0.1225  0.8973  0.5136
 9457TIP3    H149786   3.814   0.206  12.481 -0.3751  0.9944  0.2897
 9457TIP3    H249787   3.688   0.128  12.454 -0.0527  0.5144  0.1568
 9458TIP3   OH249788   4.915   3.071  16.459 -0.4386  0.6232  0.4703
 9458TIP3    H149789   4.949   3.158  16.480 -0.5399  0.6714  0.4333
 9458TIP3    H249790   4.886   3.077  16.368  2.5237 -0.3415 -0.6826
 9459TIP3   OH249791   2.914   1.276   3.812  0.0620 -0.5144 -0.2195
 9459TIP3    H149792   2.848   1.237   3.868  0.7383 -1.8097 -0.2827
 9459TIP3    H249793   2.888   1.368   3.803 -1.5112 -0.9151  0.0335
 9460TIP3   OH249794   4.928   5.553   2.027  0.2068 -0.1894 -0.1778
 9460TIP3    H149795   4.948   5.481   2.087 -0.3023  0.3100  0.6130
 9460TIP3    H249796   4.846   5.527   1.985  0.6301 -0.5982 -0.7575
 9461TIP3   OH249797   5.603   1.395  11.056  0.1524 -0.3389  0.1157
 9461TIP3    H149798   5.563   1.308  11.058  0.3058 -0.4543 -0.8778
 9461TIP3    H249799   5.529   1.455  11.061 -0.1951 -0.5504 -1.6068
 9462TIP3   OH249800   2.777   6.206   3.974 -0.3908  0.1675 -0.9240
 9462TIP3    H149801   2.711   6.200   4.044  0.2633 -0.3410 -0.3380
 9462TIP3    H249802   2.729   6.187   3.894 -1.8184  3.5730 -1.0425
 9463TIP3   OH249803   2.313   5.130   0.586 -0.1092 -0.2156 -0.2855
 9463TIP3    H149804   2.387   5.070   0.588  0.7845  0.8488 -0.5437
 9463TIP3    H249805   2.317   5.176   0.670 -0.4960 -0.1696 -0.2902
 9464TIP3   OH249806   2.834   3.884   5.132 -0.6291  0.5799  0.7220
 9464TIP3    H149807   2.875   3.970   5.140 -0.7762  0.5616  1.9414
 9464TIP3    H249808   2.778   3.877   5.210 -1.8138  0.0092 -0.1460
 9465TIP3   OH249809   4.886   4.896  15.544  0.5580 -0.7307 -0.1768
 9465TIP3    H149810   4.925   4.887  15.631 -1.6644  0.1690  1.0064
 9465TIP3    H249811   4.799   4.858  15.552 -1.6779  3.6396 -0.4350
 9466TIP3   OH249812   0.646   2.562   3.554  0.0216  0.0813  0.0046
 9466TIP3    H149813   0.597   2.637   3.519  0.7604  0.7669  0.3992
 9466TIP3    H249814   0.693   2.598   3.630 -0.5660 -1.0823  0.9477
 9467TIP3   OH249815   4.011   1.435  15.950  0.2723 -0.1316 -0.6985
 9467TIP3    H149816   3.967   1.502  16.003  0.5122 -0.2324 -0.3683
 9467TIP3    H249817   4.103   1.443  15.973  0.5816  0.7392 -2.1174
 9468TIP3   OH249818   5.907   0.658   4.133  0.5528 -0.4920  0.0897
 9468TIP3    H149819   5.939   0.622   4.216  0.4746 -0.3851  0.1652
 9468TIP3    H249820   5.831   0.710   4.157  0.2673 -0.8210 -0.1024
 9469TIP3   OH249821   0.617   4.106  11.345 -0.4761  0.5147 -0.0585
 9469TIP3    H149822   0.558   4.116  11.270 -0.8540  1.8823  0.3979
 9469TIP3    H249823   0.590   4.174  11.406  2.4015  2.0755 -0.3768
 9470TIP3   OH249824   1.578   0.971   4.588 -0.5942  0.1872 -0.1343
 9470TIP3    H149825   1.571   0.878   4.569  1.3366 -0.2462  0.9684
 9470TIP3    H249826   1.573   0.976   4.684 -0.6881  1.2371 -0.1790
 9471TIP3   OH249827   5.109   2.038  16.342 -0.2387 -0.4141 -0.2800
 9471TIP3    H149828   5.072   2.112  16.293 -0.7186  0.2659  1.0798
 9471TIP3    H249829   5.095   1.963  16.285  1.2978  0.6767 -2.2311
 9472TIP3   OH249830   3.784   4.670  12.442 -0.3032  0.0802 -0.1400
 9472TIP3    H149831   3.852   4.692  12.378 -1.9077  1.4246 -1.4843
 9472TIP3    H249832   3.728   4.608  12.395 -0.5893 -0.2028  0.5720
 9473TIP3   OH249833   1.085   1.696  15.819 -0.1729  0.0538 -0.3910
 9473TIP3    H149834   1.052   1.702  15.729 -0.3424 -1.4959 -0.4694
 9473TIP3    H249835   1.040   1.619  15.855  0.7112  0.0175  0.6716
 9474TIP3   OH249836   0.802   0.271   3.829  0.3356  0.0600  0.0490
 9474TIP3    H149837   0.765   0.185   3.811 -0.8195  0.0941  2.0048
 9474TIP3    H249838   0.896   0.260   3.814  0.1859 -1.4927  0.1033
 9475TIP3   OH249839   5.022   0.477  12.607 -0.0370  0.0048  0.3318
 9475TIP3    H149840   5.087   0.418  12.644  0.5154 -0.3540 -1.1310
 9475TIP3    H249841   4.958   0.489  12.677 -0.2425 -2.4475  0.6607
 9476TIP3   OH249842   6.299   0.617   1.864  0.8222  0.1893  0.5494
 9476TIP3    H149843   6.247   0.677   1.810  1.4540 -0.4234 -0.7619
 9476TIP3    H249844   6.386   0.657   1.868  1.7116 -1.3473 -1.6552
 9477TIP3   OH249845   0.734   0.273  16.305 -0.0125  0.2596  0.1612
 9477TIP3    H149846   0.640   0.295  16.306 -0.2494 -0.5696 -0.9834
 9477TIP3    H249847   0.737   0.184  16.268  1.1962  0.0395  0.7335
 9478TIP3   OH249848   0.261   1.221  15.232  0.0967 -0.2914 -0.1693
 9478TIP3    H149849   0.295   1.132  15.229  1.4034  0.1911 -0.7327
 9478TIP3    H249850   0.310   1.263  15.303 -1.2632 -0.2890  0.8043
 9479TIP3   OH249851   1.029   4.808  12.845 -0.3693  0.3096  0.2137
 9479TIP3    H149852   0.933   4.810  12.845 -0.4738 -1.2826  2.0574
 9479TIP3    H249853   1.051   4.727  12.800  0.2079  1.3356 -1.4209
 9480TIP3   OH249854   0.803   1.548  11.401 -0.1919  0.7140  0.3559
 9480TIP3    H149855   0.841   1.606  11.335 -1.2271 -0.1914 -1.0943
 9480TIP3    H249856   0.783   1.467  11.353 -0.2989 -0.2549  1.9584
 9481TIP3   OH249857   4.519   5.712   2.737 -0.0435  0.2572 -0.3360
 9481TIP3    H149858   4.437   5.760   2.736  0.7132  1.6286 -2.1184
 9481TIP3    H249859   4.587   5.779   2.724  1.3302 -0.9011  0.4948
 9482TIP3   OH249860   0.109   6.624   0.640  0.0261  0.1808 -0.1004
 9482TIP3    H149861   0.026   6.587   0.611 -1.5421  2.4535  1.1451
 9482TIP3    H249862   0.089   6.716   0.658  2.0994  0.1801  2.9421
 9483TIP3   OH249863   5.743   6.718  13.748  0.2870 -0.4054  0.1043
 9483TIP3    H149864   5.818   6.694  13.694  0.1251 -0.2200 -0.2050
 9483TIP3    H249865   5.781   6.746  13.831  0.6609  1.1004 -0.5423
 9484TIP3   OH249866   3.439   0.907   3.435  0.1358  0.2643 -0.0615
 9484TIP3    H149867   3.460   0.836   3.497  0.9391 -1.1254 -1.8446
 9484TIP3    H249868   3.507   0.972   3.450  1.8986 -1.2302 -1.2010
 9485TIP3   OH249869   0.362   0.567   1.557  0.2809 -0.3349  0.1097
 9485TIP3    H149870   0.333   0.624   1.628 -0.2245 -1.1129  0.5436
 9485TIP3    H249871   0.330   0.480   1.582  0.3936 -0.6757 -0.9022
 9486TIP3   OH249872   6.458   5.246  15.604 -0.2783 -0.0057  0.7584
 9486TIP3    H149873   6.451   5.187  15.679 -0.7665 -0.8724  0.0538
 9486TIP3    H249874   6.404   5.322  15.627 -0.8051 -0.4779  1.0861
 9487TIP3   OH249875   0.740   3.706  16.384  0.7911  0.2420 -0.7393
 9487TIP3    H149876   0.782   3.662  16.310 -0.2829 -2.2605  0.0475
 9487TIP3    H249877   0.773   3.661  16.461 -0.8856  0.3137  0.0666
 9488TIP3   OH249878   4.511   0.488  12.038  0.7094 -0.7242 -0.5316
 9488TIP3    H149879   4.574   0.505  12.108  0.6183  1.2141 -0.8620
 9488TIP3    H249880   4.449   0.560  12.043 -0.4300 -1.6134 -1.3824
 9489TIP3   OH249881   6.370   2.871   0.112  0.2245  0.2381 -0.3274
 9489TIP3    H149882   6.304   2.906   0.052  0.3434 -0.2938 -0.7773
 9489TIP3    H249883   6.453   2.881   0.065  0.3335 -0.0800 -0.2024
 9490TIP3   OH249884   3.669   2.215  15.704  0.2142 -0.0860 -0.8912
 9490TIP3    H149885   3.679   2.232  15.610 -1.2510  2.2355 -0.6976
 9490TIP3    H249886   3.583   2.173  15.712  0.5193 -0.6652 -0.6206
 9491TIP3   OH249887   3.773   2.696   0.428  0.3166 -0.7119 -0.3858
 9491TIP3    H149888   3.782   2.790   0.444  2.4626 -1.1588  1.6489
 9491TIP3    H249889   3.725   2.664   0.504 -0.9776 -1.2143 -1.3858
 9492TIP3   OH249890   2.616   4.898  12.190  0.1880 -0.1478  0.3351
 9492TIP3    H149891   2.707   4.883  12.164 -0.4663 -0.7588 -1.8717
 9492TIP3    H249892   2.599   4.989  12.166  0.2830  0.0451  0.9896
 9493TIP3   OH249893   4.331   3.954   5.654  0.0116  0.4316  0.3472
 9493TIP3    H149894   4.397   3.921   5.714 -0.3243  2.2048  1.7766
 9493TIP3    H249895   4.377   3.966   5.571  1.0747  0.1764  0.8852
 9494TIP3   OH249896   0.237   0.886   2.310  0.2049 -0.0056 -0.5566
 9494TIP3    H149897   0.268   0.797   2.292  0.4337 -0.3758  1.4478
 9494TIP3    H249898   0.147   0.874   2.341  0.5774  0.3281  0.7108
 9495TIP3   OH249899   3.915   0.462   0.266  0.2001 -0.0363 -0.1592
 9495TIP3    H149900   3.978   0.521   0.307 -0.4005  1.0640 -0.7765
 9495TIP3    H249901   3.960   0.430   0.187 -0.6209  2.2085 -1.6245
 9496TIP3   OH249902   5.874   1.861   1.448 -0.1322 -0.5301  0.1039
 9496TIP3    H149903   5.801   1.859   1.386  0.0179 -0.5542 -0.0697
 9496TIP3    H249904   5.840   1.912   1.522 -0.7200 -1.4952  0.5115
 9497TIP3   OH249905   1.761   6.004   3.661 -0.1582  0.3877 -0.4361
 9497TIP3    H149906   1.722   5.956   3.588  0.1095  1.3790 -1.2525
 9497TIP3    H249907   1.754   6.096   3.635 -1.0662  0.8444  1.2841
 9498TIP3   OH249908   4.286   2.586   1.097  0.2129  0.2006 -0.1827
 9498TIP3    H149909   4.332   2.669   1.112  0.1587  0.0479  0.9806
 9498TIP3    H249910   4.208   2.611   1.047  0.0246  0.9142  0.4394
 9499TIP3   OH249911   3.930   1.949  12.874 -0.0418 -0.1446  0.5832
 9499TIP3    H149912   3.913   1.973  12.965 -1.3625  1.9069 -0.1435
 9499TIP3    H249913   3.930   2.032  12.826  1.3006 -1.1003 -1.2245
 9500TIP3   OH249914   0.648   2.915  10.534  0.0796  0.2332 -0.0653
 9500TIP3    H149915   0.731   2.914  10.485  0.1515 -1.9180  0.0035
 9500TIP3    H249916   0.635   2.824  10.561 -1.6638  0.7659  1.0596
 9501TIP3   OH249917   2.498   5.312  13.395  0.6391 -0.2795 -0.2944
 9501TIP3    H149918   2.535   5.387  13.442 -0.0303 -0.6123  0.8058
 9501TIP3    H249919   2.572   5.273  13.348  0.5334  2.7810 -3.3898
 9502TIP3   OH249920   6.762   2.721   2.413  0.3778  0.0479  0.4974
 9502TIP3    H149921   6.848   2.684   2.393  0.5367  0.3911  0.5537
 9502TIP3    H249922   6.748   2.786   2.345 -0.3799 -0.8652 -0.2523
 9503TIP3   OH249923   2.624   1.688   0.414 -0.9060 -0.3021  0.5229
 9503TIP3    H149924   2.586   1.741   0.344 -0.2550  3.1924  2.6044
 9503TIP3    H249925   2.694   1.638   0.371 -0.8548  1.3231 -1.4230
 9504TIP3   OH249926   0.840   0.510   4.299  0.6282 -0.1138  0.8141
 9504TIP3    H149927   0.888   0.557   4.367 -0.0345  1.2654  0.3514
 9504TIP3    H249928   0.898   0.439   4.274  1.0252 -0.4782  2.5936
 9505TIP3   OH249929   4.144   2.436   1.324  0.2673 -0.1063 -0.3507
 9505TIP3    H149930   4.192   2.502   1.274 -2.0409  0.7774 -1.6017
 9505TIP3    H249931   4.187   2.353   1.302  1.2074  0.6227 -1.3950
 9506TIP3   OH249932   4.591   5.164  14.799  0.1290 -0.1259  0.2768
 9506TIP3    H149933   4.610   5.169  14.705  0.3326  2.6232  0.3952
 9506TIP3    H249934   4.536   5.086  14.808  2.0446 -1.8409 -1.7354
 9507TIP3   OH249935   1.836   4.220   4.629  0.1692  0.4243 -0.1406
 9507TIP3    H149936   1.852   4.294   4.688 -0.3487 -0.4355  1.1270
 9507TIP3    H249937   1.744   4.229   4.605  0.3583  0.7250 -0.7738
 9508TIP3   OH249938   6.060   1.945  13.777  0.2373  0.0541  0.1440
 9508TIP3    H149939   6.128   1.973  13.715  1.0230  0.3575  1.1282
 9508TIP3    H249940   6.108   1.914  13.853 -0.7356  0.4345  0.9260
 9509TIP3   OH249941   0.541   3.001   3.210 -0.0201  0.2305  0.5600
 9509TIP3    H149942   0.455   2.981   3.245 -0.1258  1.1064  0.8162
 9509TIP3    H249943   0.591   2.920   3.221 -0.4875  0.0514  1.3930
 9510TIP3   OH249944   1.760   4.139  16.289  0.6094 -0.2685 -0.1951
 9510TIP3    H149945   1.810   4.145  16.370 -0.8936 -0.8068  0.8133
 9510TIP3    H249946   1.713   4.222  16.283 -1.0327 -1.0541  0.7459
 9511TIP3   OH249947   3.843   1.497   5.749 -0.1785 -0.3347 -0.4215
 9511TIP3    H149948   3.838   1.417   5.802  0.6337 -0.5718 -0.6881
 9511TIP3    H249949   3.911   1.550   5.791 -0.0624 -0.1948 -0.7780
 9512TIP3   OH249950   3.127   2.356   5.950 -0.4745  0.5965  0.1106
 9512TIP3    H149951   3.044   2.322   5.985 -0.2414  0.4701  0.5462
 9512TIP3    H249952   3.174   2.388   6.027 -0.1388  0.7207 -0.1445
 9513TIP3   OH249953   2.254   3.264  16.917  0.0184  0.3254  0.2720
 9513TIP3    H149954   2.183   3.309  16.963 -0.6542  0.5272 -0.9385
 9513TIP3    H249955   2.286   3.327  16.853 -0.0897 -0.4510 -0.5770
 9514TIP3   OH249956   2.909   3.678   0.816 -0.9295  0.2413  0.1125
 9514TIP3    H149957   2.957   3.746   0.863 -1.2543  1.4948 -1.3011
 9514TIP3    H249958   2.867   3.626   0.885  0.5802  0.5054  1.2781
 9515TIP3   OH249959   4.762   3.979  13.675 -0.3394  0.2664  0.0379
 9515TIP3    H149960   4.857   3.968  13.683 -0.3572 -1.4168 -1.4477
 9515TIP3    H249961   4.750   4.074  13.671  1.2331  0.5333  0.6393
 9516TIP3   OH249962   1.013   1.137  15.800 -0.4018 -0.0336  0.2229
 9516TIP3    H149963   1.098   1.095  15.817 -1.1965 -2.5198 -1.4309
 9516TIP3    H249964   0.977   1.090  15.725 -3.3540  0.8144  0.9682
 9517TIP3   OH249965   0.156   4.204   1.277 -0.0340  0.3157 -0.9831
 9517TIP3    H149966   0.071   4.177   1.241  0.4272 -3.8793  0.5264
 9517TIP3    H249967   0.139   4.216   1.371  0.6536  1.8959 -1.0222
 9518TIP3   OH249968   0.997   5.257  14.407  0.0235 -0.4020  0.2638
 9518TIP3    H149969   0.931   5.190  14.424  0.7301 -1.2514 -0.2545
 9518TIP3    H249970   1.021   5.290  14.493 -2.5254  1.4050  0.4020
 9519TIP3   OH249971   0.751   5.605   4.113 -0.2976 -0.6837 -0.0975
 9519TIP3    H149972   0.840   5.622   4.082  0.0563  0.2161  1.2973
 9519TIP3    H249973   0.762   5.546   4.188 -0.8299 -0.3562  0.2517
 9520TIP3   OH249974   2.854   5.008  15.567 -0.3786 -0.1321  0.0390
 9520TIP3    H149975   2.773   5.023  15.616  0.3079 -0.2604  1.2772
 9520TIP3    H249976   2.836   5.041  15.479 -2.9017 -3.1367 -0.7378
 9521TIP3   OH249977   1.369   6.071   4.156  0.1651  0.4897  0.0675
 9521TIP3    H149978   1.334   6.066   4.067  1.6680  0.4853 -0.5636
 9521TIP3    H249979   1.359   5.983   4.191  0.4087  0.2467 -0.4542
 9522TIP3   OH249980   5.946   5.299  14.708 -0.1448  0.7405 -0.0449
 9522TIP3    H149981   5.975   5.349  14.784  0.5053 -0.6341  0.6566
 9522TIP3    H249982   5.989   5.214  14.718  1.1471  0.9844 -2.7325
 9523TIP3   OH249983   3.586   3.382  11.363  0.2072  0.1925 -0.0529
 9523TIP3    H149984   3.555   3.295  11.389 -1.6431  0.9708  0.5266
 9523TIP3    H249985   3.631   3.368  11.280 -0.8132 -1.2076 -0.4067
 9524TIP3   OH249986   6.423   1.537   4.848 -0.0046 -0.1446  1.1156
 9524TIP3    H149987   6.464   1.451   4.858 -0.5643 -0.6078 -0.2805
 9524TIP3    H249988   6.338   1.518   4.808 -1.1149  0.8862  2.8257
 9525TIP3   OH249989   5.391   0.586   2.776  0.2169 -0.0347 -0.0329
 9525TIP3    H149990   5.390   0.663   2.834 -1.6572 -0.5847  0.7654
 9525TIP3    H249991   5.430   0.517   2.828 -1.7363 -0.6066  0.7729
 9526TIP3   OH249992   4.889   4.424   3.911 -0.0800 -0.2249  0.7259
 9526TIP3    H149993   4.946   4.499   3.928 -0.2697  0.4261 -1.2583
 9526TIP3    H249994   4.948   4.350   3.899  0.6292  0.7633 -3.0560
 9527TIP3   OH249995   3.048   3.653   3.107  0.3081  0.1968  0.1795
 9527TIP3    H149996   3.089   3.616   3.030  1.3468  0.6252  0.5081
 9527TIP3    H249997   3.000   3.581   3.147  0.4585 -0.2280 -0.4072
 9528TIP3   OH249998   2.491   0.602   4.677 -0.4605 -0.4691 -0.0367
 9528TIP3    H149999   2.586   0.591   4.684  0.5150  4.3683 -2.0994
 9528TIP3    H250000   2.462   0.614   4.768  1.4804  0.9047  0.4777
 9529TIP3   OH250001   4.047   5.109  14.866  0.3791  0.3582 -0.1747
 9529TIP3    H150002   4.035   5.069  14.780  1.4800 -4.3154  1.5600
 9529TIP3    H250003   3.960   5.145  14.888 -0.4247 -0.0423 -2.4127
 9530TIP3   OH250004   5.494   4.054   3.456 -0.5035 -0.5120 -0.1961
 9530TIP3    H150005   5.483   4.147   3.437 -1.1799 -1.0948 -3.0580
 9530TIP3    H250006   5.408   4.024   3.483  0.1469  0.0080  2.8654
 9531TIP3   OH250007   0.236   4.876  13.769  0.1248 -0.7356  0.0619
 9531TIP3    H150008   0.319   4.851  13.727  2.2677  3.0459  1.5878
 9531TIP3    H250009   0.199   4.942  13.710 -1.1276 -1.3595  0.1206
 9532TIP3   OH250010   2.912   4.023  15.853  0.2533 -0.2030 -0.1990
 9532TIP3    H150011   2.899   4.023  15.758  1.2401  2.1192 -0.4077
 9532TIP3    H250012   3.003   3.997  15.864  0.0580 -0.7551  0.1545
 9533TIP3   OH250013   1.657   4.147  13.950 -0.2104 -0.2950  0.0372
 9533TIP3    H150014   1.571   4.158  13.909  0.3556  0.1227 -1.0751
 9533TIP3    H250015   1.640   4.095  14.028 -1.6629  0.8568  0.5261
 9534TIP3   OH250016   5.232   0.495  14.094  0.2020  0.2315  0.2330
 9534TIP3    H150017   5.296   0.526  14.157 -1.7335  2.2639  1.3209
 9534TIP3    H250018   5.172   0.568  14.082 -0.7589 -0.8450 -2.3451
 9535TIP3   OH250019   0.001   4.849   4.258  0.8981  0.1152 -0.2663
 9535TIP3    H150020  -0.027   4.761   4.234  1.0179  0.3757 -1.4383
 9535TIP3    H250021   0.044   4.839   4.343 -1.7201 -0.4685  1.0857
 9536TIP3   OH250022   3.699   2.661   3.267  0.3029 -0.3320 -0.0420
 9536TIP3    H150023   3.676   2.569   3.280  0.7513 -0.3023  1.0970
 9536TIP3    H250024   3.795   2.663   3.273  0.3615  0.0874 -0.9333
 9537TIP3   OH250025   3.966   1.724   2.613  0.0426 -0.4384 -0.1336
 9537TIP3    H150026   3.893   1.784   2.628  0.8050  0.0599  1.9559
 9537TIP3    H250027   4.041   1.767   2.653  1.9782 -0.1311 -3.6366
 9538TIP3   OH250028   5.732   4.460   5.119  0.1240  0.5366  0.6348
 9538TIP3    H150029   5.684   4.524   5.171 -0.2536  0.4988  0.3324
 9538TIP3    H250030   5.723   4.490   5.029 -1.0399 -0.5696  0.3572
 9539TIP3   OH250031   1.517   5.249  15.441 -0.0833  0.2928  0.4643
 9539TIP3    H150032   1.493   5.238  15.533  0.2783 -0.4890  0.4711
 9539TIP3    H250033   1.434   5.271  15.398 -0.8498 -2.1994  0.5193
 9540TIP3   OH250034   3.496   0.745  16.288 -0.3204  0.2903  0.0125
 9540TIP3    H150035   3.457   0.766  16.373 -1.5226 -1.2253 -0.1267
 9540TIP3    H250036   3.431   0.773  16.224  0.2438  0.7004 -0.4003
 9541TIP3   OH250037   4.355   2.371   1.673  0.0520 -0.1189 -0.0490
 9541TIP3    H150038   4.302   2.450   1.661  0.5195  0.1973 -0.0961
 9541TIP3    H250039   4.300   2.311   1.723 -0.5008  0.0368 -0.4663
 9542TIP3   OH250040   0.674   2.344   5.344  0.0319 -0.2082 -0.0520
 9542TIP3    H150041   0.769   2.333   5.335  0.2761  1.9660 -0.7223
 9542TIP3    H250042   0.662   2.379   5.432 -0.1473 -0.3215 -0.0307
 9543TIP3   OH250043   4.566   6.659  11.420 -0.2094  0.0818 -0.5407
 9543TIP3    H150044   4.549   6.595  11.351 -0.5736  1.3257 -1.6409
 9543TIP3    H250045   4.527   6.621  11.498 -0.9020 -0.7910 -1.2855
 9544TIP3   OH250046   6.379   4.413   4.415 -0.0918  0.2831 -0.2015
 9544TIP3    H150047   6.313   4.351   4.384  2.3856 -3.2601  1.0625
 9544TIP3    H250048   6.379   4.402   4.510  2.4317  0.0254 -0.1831
 9545TIP3   OH250049   1.844   4.949   3.950  0.6074  0.3929  0.3066
 9545TIP3    H150050   1.904   5.024   3.944  2.4959 -0.8605  2.1555
 9545TIP3    H250051   1.757   4.988   3.947  1.4844  2.4366 -1.0985
 9546TIP3   OH250052   6.589   5.739  14.687  0.5363  0.5104  0.1445
 9546TIP3    H150053   6.564   5.824  14.722 -0.3913  0.5860 -0.6511
 9546TIP3    H250054   6.524   5.678  14.722  1.3304  0.0822  0.8961
 9547TIP3   OH250055   2.357   3.336   4.741  0.1559 -0.3309 -0.2163
 9547TIP3    H150056   2.278   3.341   4.686  0.6142  0.6757 -0.7947
 9547TIP3    H250057   2.324   3.344   4.830 -0.1848  3.7168 -0.5314
 9548TIP3   OH250058   6.127   1.462  13.926 -0.4989 -0.2356 -0.0322
 9548TIP3    H150059   6.201   1.468  13.987 -0.8659  0.4030  0.3602
 9548TIP3    H250060   6.168   1.444  13.842  0.1181  0.1583  0.1719
 9549TIP3   OH250061   5.686   0.250   6.148  0.0799 -0.3677  0.3142
 9549TIP3    H150062   5.607   0.196   6.154 -0.3666  0.0410 -1.2610
 9549TIP3    H250063   5.720   0.253   6.237 -1.3496 -1.0488  0.9198
 9550TIP3   OH250064   5.821   2.889  13.937  0.1296 -0.0832 -0.0105
 9550TIP3    H150065   5.819   2.828  14.011 -0.4885  0.6985  0.6452
 9550TIP3    H250066   5.730   2.916  13.926  0.4952  1.3489  0.2710
 9551TIP3   OH250067   6.599   5.786  13.986  0.5079  0.3966 -0.0165
 9551TIP3    H150068   6.626   5.868  13.945  0.0239  0.1702 -0.8003
 9551TIP3    H250069   6.679   5.733  13.991  0.7750  0.8186  0.2861
 9552TIP3   OH250070   4.476   6.158  14.651  0.0831  0.3134  0.2374
 9552TIP3    H150071   4.555   6.114  14.684  0.7234  0.8431 -0.5530
 9552TIP3    H250072   4.490   6.251  14.672  0.0962  0.5335 -0.7145
 9553TIP3   OH250073   4.124   6.280  16.153  1.0765  0.0288 -0.4006
 9553TIP3    H150074   4.216   6.277  16.126  1.1155 -0.0740 -0.2583
 9553TIP3    H250075   4.115   6.363  16.199  1.0869  0.0616 -0.4588
 9554TIP3   OH250076   0.956   2.598  12.109  0.0597 -0.2316 -0.1628
 9554TIP3    H150077   0.905   2.602  12.189  1.5452  0.7634  0.7801
 9554TIP3    H250078   0.915   2.528  12.058 -0.2874 -1.6154  1.9020
 9555TIP3   OH250079   3.952   3.567  13.169 -0.5226  0.0747  0.0031
 9555TIP3    H150080   4.018   3.547  13.236  0.8530 -0.1892 -1.3867
 9555TIP3    H250081   4.002   3.587  13.091 -2.0515  1.8366 -0.6104
 9556TIP3   OH250082   6.717   4.477   5.227 -0.2893 -0.2565 -0.6083
 9556TIP3    H150083   6.704   4.382   5.229  0.6887 -0.3933 -0.0229
 9556TIP3    H250084   6.642   4.510   5.179 -1.0686 -1.2576 -0.1319
 9557TIP3   OH250085   6.571   6.415  13.619 -0.2221 -0.2168 -0.4439
 9557TIP3    H150086   6.522   6.493  13.643  1.3288  1.2038 -1.6264
 9557TIP3    H250087   6.652   6.421  13.670  0.4858 -0.3100 -1.5124
 9558TIP3   OH250088   0.595   0.953  13.144  0.4794  0.1726 -0.3485
 9558TIP3    H150089   0.598   1.040  13.103  0.1319  0.7981  0.8932
 9558TIP3    H250090   0.564   0.895  13.075  0.6144  1.0570 -1.1744
 9559TIP3   OH250091   3.520   0.477   0.923 -0.1708 -0.6301 -0.2132
 9559TIP3    H150092   3.437   0.435   0.942  0.3937 -0.2689  3.9028
 9559TIP3    H250093   3.576   0.407   0.890 -0.7946 -1.9418  1.4006
 9560TIP3   OH250094   1.002   0.442   4.605 -0.6732 -0.0802  0.2364
 9560TIP3    H150095   0.987   0.427   4.698  0.0219 -0.4930  0.2876
 9560TIP3    H250096   0.949   0.375   4.561 -0.7888 -0.0588  0.3427
 9561TIP3   OH250097   1.697   2.849   0.677 -0.0606 -0.4237 -0.0404
 9561TIP3    H150098   1.710   2.914   0.608  0.0666  0.1118  0.4801
 9561TIP3    H250099   1.725   2.894   0.757  0.0061 -1.1146  0.3256
 9562TIP3   OH250100   1.186   4.294   2.635 -0.3331 -0.0977 -0.0244
 9562TIP3    H150101   1.181   4.226   2.568  1.5403 -0.1376 -0.1690
 9562TIP3    H250102   1.244   4.257   2.702 -1.1051  0.4733  0.9785
 9563TIP3   OH250103   4.411   5.908   2.425 -0.2274  0.3228  0.6878
 9563TIP3    H150104   4.496   5.867   2.410 -1.4816 -2.0612 -0.3978
 9563TIP3    H250105   4.373   5.860   2.499 -0.5385  1.5673  1.3668
 9564TIP3   OH250106   1.254   6.465   4.031 -0.6164  0.2384  0.2173
 9564TIP3    H150107   1.331   6.421   3.994 -2.3225 -2.7710 -0.1636
 9564TIP3    H250108   1.234   6.535   3.969  0.6111 -0.2842 -0.8235
 9565TIP3   OH250109   5.363   3.338   0.074  0.1321 -0.2030 -0.0176
 9565TIP3    H150110   5.432   3.402   0.091 -0.8798  0.7974  0.4818
 9565TIP3    H250111   5.362   3.328  -0.021  1.5578 -0.9386  0.0128
 9566TIP3   OH250112   5.230   3.623  14.887  0.4060  0.2916 -0.4010
 9566TIP3    H150113   5.293   3.590  14.952 -0.2680  0.2637  0.2451
 9566TIP3    H250114   5.147   3.625  14.933 -0.3330 -0.8608 -1.5940
 9567TIP3   OH250115   0.380   3.434  16.963 -0.6847  0.2164  0.2200
 9567TIP3    H150116   0.408   3.353  17.005 -0.6718 -0.3021 -0.7819
 9567TIP3    H250117   0.285   3.432  16.966 -0.7943 -1.1550 -2.2054
 9568TIP3   OH250118   1.626   6.010   0.215 -0.7005  0.4688 -0.3552
 9568TIP3    H150119   1.719   5.985   0.216 -0.3921  1.5498 -0.4410
 9568TIP3    H250120   1.613   6.055   0.298 -1.7600 -1.6787  0.7197
 9569TIP3   OH250121   3.185   6.449  15.885  0.0665 -0.1275  0.1598
 9569TIP3    H150122   3.251   6.423  15.948  0.9868  0.8317 -0.3812
 9569TIP3    H250123   3.185   6.378  15.820  2.0249  0.7675 -0.9075
 9570TIP3   OH250124   3.526   0.070  17.072 -0.3555 -0.1630 -0.0727
 9570TIP3    H150125   3.606   0.120  17.056 -0.8316  0.1681 -1.6022
 9570TIP3    H250126   3.552   0.002  17.134  1.0272  0.1400 -0.2871
 9571TIP3   OH250127   5.942   1.114  14.726  0.4107 -0.0370 -0.5023
 9571TIP3    H150128   5.995   1.076  14.656  2.5504 -0.9039  1.4564
 9571TIP3    H250129   5.918   1.201  14.693  1.8781 -0.1630 -2.0439
 9572TIP3   OH250130   4.858   2.455   1.267  0.6365 -0.1410  0.5477
 9572TIP3    H150131   4.884   2.506   1.190 -3.5693 -0.8714 -1.6984
 9572TIP3    H250132   4.834   2.369   1.231 -3.0727  0.0007  2.1882
 9573TIP3   OH250133   4.613   2.527  14.440  1.0030 -0.2941  0.1966
 9573TIP3    H150134   4.539   2.470  14.418 -0.0125  1.3411 -0.8035
 9573TIP3    H250135   4.599   2.551  14.531  0.5464 -0.3673  0.1478
 9574TIP3   OH250136   2.689   5.557  14.877 -0.7893  0.4461 -0.0088
 9574TIP3    H150137   2.628   5.497  14.921  0.8729  0.1280  1.9911
 9574TIP3    H250138   2.657   5.644  14.899 -2.2102  0.3434 -1.4881
 9575TIP3   OH250139   4.282   2.011   1.330 -0.1222 -0.0246 -0.1871
 9575TIP3    H150140   4.359   1.953   1.335 -0.5070 -0.5340 -0.0743
 9575TIP3    H250141   4.305   2.075   1.263  0.3686 -0.2245 -0.2156
 9576TIP3   OH250142   5.331   0.901  14.754 -0.1220 -0.0273  0.2661
 9576TIP3    H150143   5.381   0.982  14.747 -1.0526  0.5508  0.2054
 9576TIP3    H250144   5.257   0.923  14.810 -2.1521  0.0824 -2.3092
 9577TIP3   OH250145   3.420   1.624  13.258 -0.0633 -0.7279 -0.0728
 9577TIP3    H150146   3.423   1.661  13.169 -0.8550 -2.0430 -0.6849
 9577TIP3    H250147   3.356   1.677  13.304  0.8042  0.3635 -0.0708
 9578TIP3   OH250148   4.479   2.687  14.664  0.1838  0.0991 -0.1214
 9578TIP3    H150149   4.447   2.759  14.718 -1.1127  0.3889 -1.2064
 9578TIP3    H250150   4.429   2.611  14.693  0.4669 -0.0388  0.0075
 9579TIP3   OH250151   1.947   1.239   1.954 -0.2910 -0.4047  0.4686
 9579TIP3    H150152   1.894   1.272   2.027  1.2620 -0.4385  1.6449
 9579TIP3    H250153   1.973   1.317   1.906 -1.4213 -0.3909 -0.1612
 9580TIP3   OH250154   3.453   6.122  11.214 -0.4011 -0.0468 -0.3806
 9580TIP3    H150155   3.497   6.064  11.151  1.9673  1.0365  0.1740
 9580TIP3    H250156   3.385   6.165  11.163 -1.5775 -2.5432 -1.0390
 9581TIP3   OH250157   2.287   5.290  15.480 -0.0569  0.3338 -0.1789
 9581TIP3    H150158   2.363   5.279  15.423  0.3806 -0.9309  0.6189
 9581TIP3    H250159   2.291   5.216  15.540 -1.5634  0.6162  0.2983
 9582TIP3   OH250160   4.170   6.289   2.481 -0.2005 -0.3878  0.0177
 9582TIP3    H150161   4.245   6.229   2.486 -1.2762 -1.9909 -1.8766
 9582TIP3    H250162   4.210   6.376   2.479  1.4321 -0.9835  2.1786
 9583TIP3   OH250163   2.944   2.353   0.631  0.0586  0.2162 -0.4531
 9583TIP3    H150164   2.938   2.259   0.616 -0.1150  0.3508 -1.2580
 9583TIP3    H250165   3.004   2.362   0.705 -2.5670 -0.7325  1.9957
 9584TIP3   OH250166   2.357   4.753  12.941 -0.1511 -0.2026 -0.0928
 9584TIP3    H150167   2.272   4.770  12.980 -0.7832  0.3955 -1.6590
 9584TIP3    H250168   2.354   4.796  12.855  1.1333 -1.5039 -0.8482
 9585TIP3   OH250169   2.385   2.125  13.779  0.0098  0.3410 -0.0996
 9585TIP3    H150170   2.399   2.220  13.769 -0.0262  0.2805 -0.7778
 9585TIP3    H250171   2.321   2.118  13.849 -1.3706  0.9122 -1.2582
 9586TIP3   OH250172   0.295   1.967   1.332 -0.5683  0.3513 -0.0081
 9586TIP3    H150173   0.387   1.950   1.351 -0.1167  1.2225 -1.2611
 9586TIP3    H250174   0.276   1.913   1.255 -1.4591 -0.7277  0.9377
 9587TIP3   OH250175   4.293   3.825   0.975 -0.4493  0.4604 -0.3081
 9587TIP3    H150176   4.291   3.847   1.068 -0.8373  1.2709 -0.5022
 9587TIP3    H250177   4.387   3.816   0.955 -0.3638  0.2989  0.1475
 9588TIP3   OH250178   1.537   6.793   0.285  0.4146 -0.1280 -0.2835
 9588TIP3    H150179   1.535   6.888   0.283  0.2486 -0.1416 -0.8725
 9588TIP3    H250180   1.610   6.772   0.345 -0.5500  0.3497  1.1172
 9589TIP3   OH250181   0.073   1.309  12.922  0.3053 -0.4529  0.1805
 9589TIP3    H150182   0.043   1.270  13.004 -0.7242 -1.7087 -0.7641
 9589TIP3    H250183   0.121   1.239  12.878  1.1237  0.3052 -0.1610
 9590TIP3   OH250184   3.029   4.112  15.117  0.4666 -0.0501 -0.3396
 9590TIP3    H150185   3.038   4.054  15.041  1.3419 -0.5033  0.0978
 9590TIP3    H250186   2.996   4.055  15.187 -1.4838  0.6073 -0.6602
 9591TIP3   OH250187   4.450   1.490  12.537 -0.3272 -0.3715 -0.1359
 9591TIP3    H150188   4.405   1.443  12.466 -1.0262 -0.1046  0.1153
 9591TIP3    H250189   4.389   1.561  12.560  0.7423  0.7093 -0.5602
 9592TIP3   OH250190   6.737   1.379   1.495 -0.0051 -0.0677  0.1992
 9592TIP3    H150191   6.652   1.373   1.449  0.1789  1.2097 -0.3539
 9592TIP3    H250192   6.717   1.426   1.575  0.2435  0.5374 -0.0949
 9593TIP3   OH250193   5.253   2.643   2.963  0.2732  0.5110  0.1507
 9593TIP3    H150194   5.274   2.592   2.885  0.2380  0.6336  0.0612
 9593TIP3    H250195   5.158   2.652   2.961 -0.0791 -1.8860  1.6887
 9594TIP3   OH250196   3.369   4.305  11.639 -0.3782  0.1661 -0.1459
 9594TIP3    H150197   3.346   4.359  11.563  0.0812  0.9988  0.2902
 9594TIP3    H250198   3.424   4.235  11.602 -0.7423  0.1526 -0.6782
 9595TIP3   OH250199   5.899   5.213  13.116 -0.5427  0.3426 -0.4339
 9595TIP3    H150200   5.979   5.170  13.086  0.6142  1.4681  0.9277
 9595TIP3    H250201   5.886   5.286  13.056 -0.2707  0.4568 -0.3530
 9596TIP3   OH250202   6.595   6.534   1.304 -0.5099  0.3818  0.3856
 9596TIP3    H150203   6.640   6.453   1.283 -1.1763  0.1658 -0.2433
 9596TIP3    H250204   6.627   6.558   1.392  0.7498  0.2013 -0.0107
 9597TIP3   OH250205   5.953   0.149  12.288 -0.3569  0.1092 -0.5169
 9597TIP3    H150206   5.965   0.225  12.231 -2.0112 -0.3309 -1.4868
 9597TIP3    H250207   5.873   0.167  12.337 -1.2980 -1.3627 -1.4190
 9598TIP3   OH250208   2.255   6.588  12.241  1.0640 -0.1366  0.0442
 9598TIP3    H150209   2.231   6.677  12.268 -1.9370 -0.6839 -0.4367
 9598TIP3    H250210   2.250   6.590  12.145  1.6992 -0.6551 -0.0056
 9599TIP3   OH250211   6.441   4.444  15.202  0.5115  0.4607  0.2240
 9599TIP3    H150212   6.508   4.409  15.261 -0.8321 -1.9543  0.4356
 9599TIP3    H250213   6.445   4.388  15.125  0.7698  2.2387 -1.1233
 9600TIP3   OH250214   1.890   2.985  12.892  0.0849  0.4913 -0.2209
 9600TIP3    H150215   1.814   3.032  12.925 -1.4685 -1.6016 -0.6370
 9600TIP3    H250216   1.920   3.038  12.817 -2.1498  0.4118 -1.2576
 9601TIP3   OH250217   6.018   1.604  10.878  0.6698 -0.2288  0.0751
 9601TIP3    H150218   5.951   1.652  10.829  0.0547  1.7150  2.6056
 9601TIP3    H250219   6.004   1.512  10.855 -2.3253  0.1951 -0.1246
 9602TIP3   OH250220   4.245   0.760   4.102 -0.2933  0.2345 -0.2241
 9602TIP3    H150221   4.210   0.753   4.191  0.0417  3.4326  0.2758
 9602TIP3    H250222   4.167   0.766   4.047 -0.5780  2.0567  0.3169
 9603TIP3   OH250223   1.402   6.133  11.025 -0.1769  0.1856  0.4264
 9603TIP3    H150224   1.333   6.192  10.995 -0.7119  0.1808  1.6051
 9603TIP3    H250225   1.402   6.062  10.960  0.5871  1.5082 -1.0979
 9604TIP3   OH250226   3.055   4.910   3.951 -0.3634 -0.4810 -0.2477
 9604TIP3    H150227   2.969   4.871   3.969 -1.2772  1.1403 -0.8633
 9604TIP3    H250228   3.078   4.955   4.032 -0.4610 -0.2738 -0.3347
 9605TIP3   OH250229   5.113   3.286  15.245  0.5907 -0.4855 -0.1101
 9605TIP3    H150230   5.158   3.264  15.326 -0.1521 -2.9767 -0.2743
 9605TIP3    H250231   5.053   3.356  15.269  2.9721  1.4380  0.5674
 9606TIP3   OH250232   2.437   1.731  13.401  0.2035 -0.4120 -0.2119
 9606TIP3    H150233   2.491   1.653  13.385 -1.8318 -1.5118 -2.3931
 9606TIP3    H250234   2.487   1.803  13.366  1.4812 -0.9320  0.4779
 9607TIP3   OH250235   3.941   1.452  14.829  0.5678  0.2772  0.4158
 9607TIP3    H150236   3.863   1.503  14.852  1.0718  0.8577  0.8503
 9607TIP3    H250237   3.979   1.426  14.913 -1.0305 -2.9974  0.2953
 9608TIP3   OH250238   5.372   5.594   4.707 -0.1565  0.1039 -0.2894
 9608TIP3    H150239   5.332   5.531   4.647  1.6121 -0.3204 -1.0765
 9608TIP3    H250240   5.309   5.602   4.779 -1.2167 -1.2065 -1.0313
 9609TIP3   OH250241   0.396   0.178   4.905  0.3478 -0.3119  0.3138
 9609TIP3    H150242   0.334   0.164   4.834 -0.9652 -0.7133  1.4904
 9609TIP3    H250243   0.399   0.273   4.917 -1.0207 -0.3321  1.0403
 9610TIP3   OH250244   6.142   3.280  13.377  0.0895 -0.3169  0.4832
 9610TIP3    H150245   6.204   3.298  13.448  0.7019  0.7093 -0.2645
 9610TIP3    H250246   6.162   3.348  13.312 -3.9441  2.2085  1.5112
 9611TIP3   OH250247   1.257   0.893  12.673  0.3057 -0.0851 -0.3381
 9611TIP3    H150248   1.261   0.817  12.616 -0.4502  0.2602 -0.8615
 9611TIP3    H250249   1.348   0.908  12.699  0.4190 -1.3705  0.0588
 9612TIP3   OH250250   4.785   5.405   2.496  0.0781  0.2581  0.1135
 9612TIP3    H150251   4.799   5.428   2.404 -2.5597 -0.0543 -0.4574
 9612TIP3    H250252   4.766   5.311   2.494 -0.1513  0.2801  0.9340
 9613TIP3   OH250253   0.559   3.990   2.043 -0.1312  0.4904 -0.3168
 9613TIP3    H150254   0.522   3.984   1.954 -0.6933 -0.9873 -0.0109
 9613TIP3    H250255   0.508   3.926   2.094  2.7674 -1.6443  0.1463
 9614TIP3   OH250256   6.541   4.456   5.619  0.0903 -0.0373  0.1785
 9614TIP3    H150257   6.621   4.507   5.608  0.7450 -0.9715  0.5727
 9614TIP3    H250258   6.477   4.519   5.652  1.0510  0.4036  1.2235
 9615TIP3   OH250259   0.735   4.785   2.663 -0.3170  0.3715 -0.1431
 9615TIP3    H150260   0.820   4.764   2.700 -0.8558 -0.0274  0.8853
 9615TIP3    H250261   0.736   4.743   2.577 -0.3707 -1.6845  0.8117
 9616TIP3   OH250262   4.887   1.778  14.938 -0.2402 -0.3305  0.2429
 9616TIP3    H150263   4.958   1.718  14.916 -0.1590  0.4770 -1.9791
 9616TIP3    H250264   4.851   1.804  14.853 -1.3279  1.5043  1.2011
 9617TIP3   OH250265   4.730   0.629   4.580  0.6853 -0.2782  0.4178
 9617TIP3    H150266   4.798   0.679   4.625 -0.1954  1.0039  0.3596
 9617TIP3    H250267   4.766   0.613   4.492  0.7236  0.8617  0.2066
 9618TIP3   OH250268   1.421   4.359  14.779 -0.3043  0.0958  0.1568
 9618TIP3    H150269   1.381   4.391  14.860 -0.9876 -0.5111  0.0665
 9618TIP3    H250270   1.436   4.437  14.727  2.9570  0.9184  2.0503
 9619TIP3   OH250271   6.767   4.562  11.218 -0.0400  0.0616  0.3764
 9619TIP3    H150272   6.682   4.563  11.174  0.5627  2.4211 -0.9111
 9619TIP3    H250273   6.803   4.475  11.196 -1.0922 -0.0387 -1.1765
 9620TIP3   OH250274   4.571   2.893   2.018 -0.3857  0.8887  0.2576
 9620TIP3    H150275   4.618   2.849   2.089  2.3773  0.0102 -1.9128
 9620TIP3    H250276   4.510   2.827   1.985 -0.3888  0.6921  0.6447
 9621TIP3   OH250277   4.348   3.139   4.538 -0.3159 -0.6757  0.0749
 9621TIP3    H150278   4.421   3.082   4.563 -1.2240 -1.5917  0.6769
 9621TIP3    H250279   4.285   3.131   4.609 -1.0388  0.0615 -0.4648
 9622TIP3   OH250280   6.057   2.876  11.923  0.0765 -0.5086 -0.6473
 9622TIP3    H150281   6.011   2.816  11.981  1.5114 -0.1244  0.9765
 9622TIP3    H250282   6.080   2.824  11.846 -1.9521 -1.0024 -0.9793
 9623TIP3   OH250283   4.800   4.724  15.910 -0.7631 -0.2469  0.0931
 9623TIP3    H150284   4.729   4.718  15.846  0.2944 -0.8632 -1.0657
 9623TIP3    H250285   4.825   4.816  15.909 -0.1647 -0.3951 -1.0928
 9624TIP3   OH250286   6.042   1.922  13.112 -0.5840 -0.3949  0.2071
 9624TIP3    H150287   6.013   1.932  13.203 -0.4963 -0.9455  0.2968
 9624TIP3    H250288   6.025   2.007  13.072 -0.6734 -0.1657  0.7266
 9625TIP3   OH250289   1.948   5.980  12.495  0.2322 -0.4037  0.1777
 9625TIP3    H150290   1.915   6.063  12.462  0.9257 -0.2879 -0.2457
 9625TIP3    H250291   2.043   5.985  12.484  0.2168 -1.6207 -0.7451
 9626TIP3   OH250292   0.002   0.813   1.270  1.0043  0.4492  0.4659
 9626TIP3    H150293   0.051   0.731   1.259  1.9280  1.2074 -1.6534
 9626TIP3    H250294  -0.083   0.797   1.230  2.3239  1.4026 -3.1148
 9627TIP3   OH250295   3.792   5.200  14.995 -0.1749 -0.1704  0.2709
 9627TIP3    H150296   3.788   5.207  15.090 -3.2077  0.1107  0.2168
 9627TIP3    H250297   3.764   5.111  14.976 -2.7343  0.7058 -0.3932
 9628TIP3   OH250298   5.803   3.178  12.278 -0.0178 -0.2936 -0.1202
 9628TIP3    H150299   5.887   3.199  12.238 -0.2711  1.0380  0.0203
 9628TIP3    H250300   5.805   3.221  12.364 -0.6740 -0.6001  0.0552
 9629TIP3   OH250301   1.813   3.580  12.091  0.2830 -0.4025 -0.2060
 9629TIP3    H150302   1.881   3.640  12.121  1.6357 -0.5222 -2.6956
 9629TIP3    H250303   1.808   3.595  11.996 -1.5882 -2.0111 -0.4393
 9630TIP3   OH250304   5.996   4.167   1.468 -0.2120 -0.2832 -0.0468
 9630TIP3    H150305   5.989   4.169   1.563 -0.7792 -1.4910 -0.0456
 9630TIP3    H250306   6.000   4.074   1.446 -0.6466 -0.0414 -1.2279
 9631TIP3   OH250307   0.913   2.945  15.598 -0.0138 -1.2488  0.4909
 9631TIP3    H150308   0.880   3.030  15.625  1.3640 -0.8920  1.1493
 9631TIP3    H250309   0.907   2.890  15.676 -1.6470 -2.0440 -0.1317
 9632TIP3   OH250310   2.861   2.643   1.252 -0.3064 -0.3569 -0.0546
 9632TIP3    H150311   2.861   2.652   1.156  0.3730  1.4812  0.0781
 9632TIP3    H250312   2.778   2.599   1.271 -0.8142 -0.0781 -1.4490
 9633TIP3   OH250313   3.097   0.522   4.343 -0.0646 -0.0013 -0.0326
 9633TIP3    H150314   3.181   0.476   4.345  0.9762  1.7526 -1.0011
 9633TIP3    H250315   3.033   0.453   4.322  1.2333 -1.2304 -0.1509
 9634TIP3   OH250316   3.460   3.000  14.946 -0.7592  0.0248  0.3755
 9634TIP3    H150317   3.466   3.056  14.868  2.1228  1.3447  1.3976
 9634TIP3    H250318   3.460   2.911  14.912 -1.7420  0.5627 -1.1599
 9635TIP3   OH250319   2.475   6.586   4.765 -0.4936 -0.4899 -0.7738
 9635TIP3    H150320   2.415   6.647   4.721  0.9258  1.6219  0.0336
 9635TIP3    H250321   2.538   6.561   4.698 -0.7419 -0.6042 -0.9647
 9636TIP3   OH250322   5.086   3.803   0.109 -0.2596  0.7389 -0.1101
 9636TIP3    H150323   5.149   3.782   0.040  0.9570  0.7549  0.9577
 9636TIP3    H250324   5.117   3.885   0.146 -0.3681  0.2744  1.0407
 9637TIP3   OH250325   6.698   1.588  11.529 -0.8873 -0.0545 -0.2972
 9637TIP3    H150326   6.662   1.671  11.498  1.0339  1.1705  0.5567
 9637TIP3    H250327   6.621   1.537  11.554 -2.1029  1.8934  0.1749
 9638TIP3   OH250328   2.024   1.947   0.748  0.4056 -0.0302 -0.1692
 9638TIP3    H150329   1.935   1.917   0.762  0.8117 -1.4667 -0.5031
 9638TIP3    H250330   2.016   2.042   0.739 -1.0875 -0.1381 -0.2414
 9639TIP3   OH250331   5.041   6.790  13.221 -0.2401  0.4500 -0.2482
 9639TIP3    H150332   5.014   6.703  13.190 -1.3626  0.9522 -0.7377
 9639TIP3    H250333   5.007   6.794  13.311 -1.2673  0.8303 -0.6401
 9640TIP3   OH250334   0.549   5.496   4.560  0.6012 -0.5066 -0.1146
 9640TIP3    H150335   0.584   5.442   4.488 -0.7605 -0.3793 -0.9016
 9640TIP3    H250336   0.459   5.466   4.570  1.0443 -1.2232  2.2483
 9641TIP3   OH250337   5.886   0.426   5.336 -0.5715  0.3469 -0.1804
 9641TIP3    H150338   5.925   0.493   5.279 -1.2869  0.4894 -0.5145
 9641TIP3    H250339   5.876   0.470   5.421  2.4255 -0.4777  0.7409
 9642TIP3   OH250340   6.663   6.081   3.812 -0.5992  0.3606  0.0472
 9642TIP3    H150341   6.634   6.139   3.742 -2.3005 -3.1306 -2.4718
 9642TIP3    H250342   6.710   6.010   3.766  0.6985 -0.7040  2.7870
 9643TIP3   OH250343   3.321   6.623  16.217 -0.0684 -0.1248  0.1742
 9643TIP3    H150344   3.334   6.691  16.151 -3.0348  0.3705 -0.0590
 9643TIP3    H250345   3.335   6.541  16.171  1.3917  0.2477 -0.0989
 9644TIP3   OH250346   6.600   2.434   5.303 -0.2004 -0.2118 -0.0260
 9644TIP3    H150347   6.544   2.363   5.333  0.7714 -0.4188  1.3537
 9644TIP3    H250348   6.563   2.513   5.343 -1.4067  0.1621 -1.7218
 9645TIP3   OH250349   0.443   2.864  11.358  0.6074 -0.1722  0.1611
 9645TIP3    H150350   0.384   2.849  11.284  2.4875 -0.7753 -1.3227
 9645TIP3    H250351   0.429   2.789  11.416  0.4027 -0.6604 -0.5136
 9646TIP3   OH250352   4.374   5.611  17.041 -0.3266 -0.0151 -0.2511
 9646TIP3    H150353   4.392   5.703  17.024 -0.2603 -0.2131 -1.3425
 9646TIP3    H250354   4.440   5.585  17.106  0.4105  0.4110 -0.8119
 9647TIP3   OH250355   3.267   0.987   0.266  0.4523  0.1197 -0.1905
 9647TIP3    H150356   3.337   0.924   0.282  1.1749  0.9123 -0.1827
 9647TIP3    H250357   3.187   0.934   0.262  0.6538 -0.5183  2.5133
 9648TIP3   OH250358   5.590   3.461  14.405 -0.2603 -0.2786  0.0478
 9648TIP3    H150359   5.513   3.515  14.385 -0.9731 -1.8970 -1.9034
 9648TIP3    H250360   5.657   3.491  14.344  0.3264  0.3458  0.9686
 9649TIP3   OH250361   4.478   6.322  16.561  0.0876  0.7248  0.4589
 9649TIP3    H150362   4.406   6.259  16.570  0.0315  0.8710  1.0637
 9649TIP3    H250363   4.499   6.348  16.651  1.2018  0.3549  0.3213
 9650TIP3   OH250364   4.049   3.759   0.917 -0.4352  0.3995  0.2665
 9650TIP3    H150365   4.039   3.725   1.006 -0.0188  0.7752  0.4556
 9650TIP3    H250366   4.138   3.793   0.914 -0.1286 -0.4305 -0.5767
 9651TIP3   OH250367   6.756   0.208   6.180  0.2862 -0.4321  0.3666
 9651TIP3    H150368   6.661   0.213   6.189  0.1296  0.0971 -1.2662
 9651TIP3    H250369   6.788   0.187   6.268 -1.2951 -0.1109  1.0395
 9652TIP3   OH250370   4.714   3.184  12.172  0.0261  0.2057 -0.6482
 9652TIP3    H150371   4.752   3.108  12.217  0.0090 -0.8172 -2.2417
 9652TIP3    H250372   4.675   3.147  12.093 -0.4133  1.8368 -1.2337
 9653TIP3   OH250373   4.040   0.480  17.116  0.6515  0.1483 -0.0117
 9653TIP3    H150374   3.984   0.440  17.049  1.1080  0.1195 -0.3792
 9653TIP3    H250375   4.088   0.407  17.153  0.5819  0.1985  0.1796
 9654TIP3   OH250376   3.349   5.388  14.546 -0.6954  0.1720 -0.0073
 9654TIP3    H150377   3.364   5.482  14.546  0.2819  0.0329 -0.7523
 9654TIP3    H250378   3.265   5.377  14.501 -0.9769  0.6916  0.3704
 9655TIP3   OH250379   2.390   5.651   5.499  0.0264  0.4076 -0.5612
 9655TIP3    H150380   2.385   5.745   5.520  2.2679  0.4014  0.3042
 9655TIP3    H250381   2.340   5.642   5.418 -2.5941  1.8250  0.7676
 9656TIP3   OH250382   1.002   0.928   2.702 -0.0481 -0.1735 -0.1531
 9656TIP3    H150383   0.956   0.891   2.778 -0.9445  0.6862 -0.2548
 9656TIP3    H250384   0.932   0.961   2.646  0.6695  0.3986 -0.7271
 9657TIP3   OH250385   4.855   0.855   1.588 -0.4785 -0.1734 -0.5826
 9657TIP3    H150386   4.905   0.796   1.645  0.0178  0.8499  0.0843
 9657TIP3    H250387   4.772   0.868   1.634 -0.0255  0.7583 -0.0020
 9658TIP3   OH250388   3.826   5.823  10.308 -0.3316 -0.0852  0.2559
 9658TIP3    H150389   3.905   5.840  10.359  1.0749 -0.7034 -1.6367
 9658TIP3    H250390   3.824   5.728  10.296  0.1040  0.1289 -1.8896
 9659TIP3   OH250391   1.815   1.323  13.220  0.6810 -0.0799 -0.2264
 9659TIP3    H150392   1.767   1.242  13.204  2.3330 -1.0179 -0.5947
 9659TIP3    H250393   1.770   1.388  13.167 -0.8976 -0.6399  0.3555
 9660TIP3   OH250394   3.481   4.890  12.100  0.2511 -0.8837  0.2022
 9660TIP3    H150395   3.467   4.911  12.008  2.1045  0.1262  0.0930
 9660TIP3    H250396   3.393   4.882  12.137 -0.5546  0.7851 -1.2012
 9661TIP3   OH250397   0.059   0.546   2.338  0.3446 -0.1022  0.1457
 9661TIP3    H150398   0.011   0.623   2.368  0.7981 -0.4255  1.8211
 9661TIP3    H250399   0.151   0.572   2.340  0.4284 -0.3233 -0.4536
 9662TIP3   OH250400   5.471   5.082   3.718  0.5983  0.1971  0.5459
 9662TIP3    H150401   5.509   5.018   3.657 -0.7520 -2.7743  2.6021
 9662TIP3    H250402   5.544   5.108   3.775  0.9003 -0.4962  0.4839
 9663TIP3   OH250403   1.922   2.592  11.707  0.1026 -1.2108 -0.0873
 9663TIP3    H150404   1.860   2.574  11.778  0.8855 -1.0873  0.6366
 9663TIP3    H250405   1.887   2.672  11.666  0.6235 -0.2015  1.3360
 9664TIP3   OH250406   4.058   0.347   1.531  0.0273 -0.8821 -0.1989
 9664TIP3    H150407   4.078   0.311   1.618 -0.8322 -2.6787 -0.6931
 9664TIP3    H250408   4.055   0.270   1.474 -1.8237 -0.0182 -1.3474
 9665TIP3   OH250409   2.962   6.380  15.544  0.3074  0.0063 -0.2637
 9665TIP3    H150410   3.014   6.452  15.507  1.0599  0.2297  1.1720
 9665TIP3    H250411   2.874   6.393  15.507  0.7533  0.8562 -1.0783
 9666TIP3   OH250412   2.847   2.355   4.250 -0.3676 -0.3296  0.5847
 9666TIP3    H150413   2.923   2.378   4.304 -1.2639 -0.3524  1.8962
 9666TIP3    H250414   2.775   2.406   4.287 -1.0639 -0.5378 -0.4486
 9667TIP3   OH250415   1.673   5.059  11.552 -0.3776 -0.2941 -0.0147
 9667TIP3    H150416   1.623   5.105  11.620  0.3939 -0.7688  0.8994
 9667TIP3    H250417   1.760   5.098  11.556 -0.1146 -0.8512 -0.1982
 9668TIP3   OH250418   5.184   5.166  16.037 -0.1667 -0.3898  0.5304
 9668TIP3    H150419   5.089   5.165  16.041 -0.3651  1.4139 -1.5858
 9668TIP3    H250420   5.207   5.104  15.968 -0.0397  1.1238 -0.8362
 9669TIP3   OH250421   6.508   5.359   4.525 -0.0016 -0.3693  0.0097
 9669TIP3    H150422   6.503   5.264   4.515  0.1517 -0.7991  3.0623
 9669TIP3    H250423   6.478   5.393   4.441 -0.4084 -3.0924 -1.0676
 9670TIP3   OH250424   3.974   2.929   4.411 -0.2920 -0.0502 -0.3140
 9670TIP3    H150425   3.998   2.911   4.502 -2.3087 -1.5512  0.0064
 9670TIP3    H250426   4.037   2.879   4.359  0.4372  0.2340  0.2910
 9671TIP3   OH250427   2.114   1.480   0.919 -0.4111 -0.0667  0.0311
 9671TIP3    H150428   2.136   1.518   1.004 -2.7016  0.3075  0.5361
 9671TIP3    H250429   2.124   1.551   0.857  1.1513 -0.3056 -0.0196
 9672TIP3   OH250430   0.392   3.080  15.141 -0.4813  0.5541 -0.1783
 9672TIP3    H150431   0.346   3.070  15.058  0.0572 -0.3966 -0.3774
 9672TIP3    H250432   0.384   3.173  15.162  0.0222  0.9580 -1.6719
 9673TIP3   OH250433   0.821   2.532   5.552 -0.0133  0.2838  0.5255
 9673TIP3    H150434   0.827   2.614   5.601  1.3864  0.6157 -0.1480
 9673TIP3    H250435   0.889   2.539   5.485 -1.8495 -0.1274 -1.5095
 9674TIP3   OH250436   0.368   6.709   5.030  0.4998  0.3000  0.2307
 9674TIP3    H150437   0.279   6.697   4.997  0.2137  1.5722  0.4767
 9674TIP3    H250438   0.401   6.785   4.982  1.7183 -0.5612 -0.3443
 9675TIP3   OH250439   3.357   0.543  10.767  0.4468  0.2576 -0.4952
 9675TIP3    H150440   3.352   0.600  10.691 -0.2512  0.8476 -0.0224
 9675TIP3    H250441   3.268   0.543  10.803  0.3387 -1.4215 -0.6822
 9676TIP3   OH250442   0.080   1.077  15.997 -0.2341  0.1469  0.2782
 9676TIP3    H150443   0.154   1.017  15.992 -0.3292  0.0611 -0.0644
 9676TIP3    H250444   0.056   1.094  15.906 -1.0500 -0.3368  0.3992
 9677TIP3   OH250445   0.914   0.595  15.339  0.1441  0.1347  0.0682
 9677TIP3    H150446   0.979   0.575  15.407  0.8001  0.5493 -0.4203
 9677TIP3    H250447   0.925   0.525  15.275  0.3940  0.4255 -0.2099
 9678TIP3   OH250448   4.802   0.956  15.110 -0.1702 -0.0162 -0.1123
 9678TIP3    H150449   4.855   1.032  15.088 -2.3808  1.0375 -2.2987
 9678TIP3    H250450   4.722   0.992  15.148 -1.1963 -1.1961 -1.0222
 9679TIP3   OH250451   2.132   1.140   3.686 -0.0977  0.4559 -0.4346
 9679TIP3    H150452   2.181   1.172   3.762 -1.3610 -1.2745  1.2213
 9679TIP3    H250453   2.195   1.141   3.615  2.2658 -1.1453  1.4565
 9680TIP3   OH250454   5.131   1.846  12.454 -0.2867 -0.8601 -0.3644
 9680TIP3    H150455   5.105   1.872  12.543 -0.2491 -0.3782 -0.4913
 9680TIP3    H250456   5.161   1.756  12.464  1.4392 -0.2327  0.4578
 9681TIP3   OH250457   4.069   6.210  14.382 -0.3420  0.4154  0.2296
 9681TIP3    H150458   4.057   6.134  14.325  0.3766 -0.6451  1.4280
 9681TIP3    H250459   4.161   6.234  14.371 -0.6036  1.2382 -0.2617
 9682TIP3   OH250460   6.594   3.179  13.172  0.6590  0.5502  0.2385
 9682TIP3    H150461   6.504   3.177  13.205  1.1152  3.0869  1.9582
 9682TIP3    H250462   6.585   3.164  13.078 -1.6990  1.5273  0.2326
 9683TIP3   OH250463   3.507   5.437  15.225  0.0454  0.8774 -0.2575
 9683TIP3    H150464   3.498   5.346  15.255  1.8030  0.2182 -1.5860
 9683TIP3    H250465   3.417   5.470  15.225 -0.4751 -0.3400  1.7162
 9684TIP3   OH250466   1.018   6.701   2.636 -0.6944  0.5229  0.3031
 9684TIP3    H150467   0.981   6.764   2.698 -0.7789 -0.3907  1.1908
 9684TIP3    H250468   1.105   6.737   2.615 -0.4052  0.5159  1.4414
 9685TIP3   OH250469   1.958   1.905  11.751 -0.1680 -0.1889  0.1831
 9685TIP3    H150470   1.896   1.954  11.697  1.0243 -0.2947 -1.3456
 9685TIP3    H250471   2.043   1.922  11.712  0.6280 -1.1438  1.4041
 9686TIP3   OH250472   3.292   0.220   0.161 -0.1290  0.5052  0.3871
 9686TIP3    H150473   3.334   0.185   0.240  0.4832  0.7270  0.1721
 9686TIP3    H250474   3.337   0.303   0.146 -1.4072  1.2931  0.7606
 9687TIP3   OH250475   4.818   1.934  11.769 -0.0548 -0.0195  0.2536
 9687TIP3    H150476   4.747   1.871  11.777  0.8794 -0.9191  1.9012
 9687TIP3    H250477   4.831   1.969  11.857 -0.2969  2.2699 -0.5351
 9688TIP3   OH250478   5.853   4.551  15.755 -0.1574  0.1755  0.4322
 9688TIP3    H150479   5.930   4.495  15.750 -0.5545 -0.2814 -1.8605
 9688TIP3    H250480   5.779   4.492  15.740 -0.8156  0.8891  0.7635
 9689TIP3   OH250481   6.708   4.191  13.265  0.2499  0.4962 -0.0931
 9689TIP3    H150482   6.737   4.100  13.277  2.5163  0.9469 -1.6739
 9689TIP3    H250483   6.692   4.222  13.354 -0.1410 -1.2930  0.5140
 9690TIP3   OH250484   3.728   1.060  16.236  0.0182 -0.0499  0.5789
 9690TIP3    H150485   3.689   1.017  16.160  1.0774  0.9719 -0.5885
 9690TIP3    H250486   3.753   0.988  16.295  2.7274 -1.2367 -1.7668
 9691TIP3   OH250487   1.735   3.825   5.536 -0.0012  0.1200 -0.2647
 9691TIP3    H150488   1.790   3.780   5.599  0.3489 -0.6836 -1.1137
 9691TIP3    H250489   1.729   3.915   5.569  0.6740 -0.1297  0.5715
 9692TIP3   OH250490   5.416   5.299   2.610 -0.3903  0.0704 -0.2771
 9692TIP3    H150491   5.406   5.257   2.525 -0.4749  0.1892 -0.3282
 9692TIP3    H250492   5.397   5.392   2.593 -2.1326 -0.1608  0.1843
 9693TIP3   OH250493   0.712   0.518   4.641 -0.7677 -0.1261  0.0373
 9693TIP3    H150494   0.782   0.464   4.676 -1.1483 -1.3477 -1.0258
 9693TIP3    H250495   0.742   0.608   4.653  0.2700 -0.5877  1.0192
 9694TIP3   OH250496   5.255   1.688   1.582  0.0176  0.3729  0.6167
 9694TIP3    H150497   5.188   1.751   1.610  0.4613  1.3852 -0.5199
 9694TIP3    H250498   5.274   1.637   1.660 -1.6298  0.4682  1.1295
 9695TIP3   OH250499   1.627   6.740  11.462 -0.1833  0.3933 -0.0793
 9695TIP3    H150500   1.700   6.681  11.482 -0.8313 -0.2540  0.4371
 9695TIP3    H250501   1.549   6.691  11.487 -0.9757  0.1765 -2.6364
 9696TIP3   OH250502   1.278   1.392  12.610 -0.6700  0.0992 -0.0475
 9696TIP3    H150503   1.185   1.375  12.626 -0.4306 -0.8670  0.3525
 9696TIP3    H250504   1.295   1.355  12.524  0.0166 -2.5342  1.1132
 9697TIP3   OH250505   4.262   4.119  16.527  0.6287 -0.3224  0.0950
 9697TIP3    H150506   4.294   4.051  16.468  1.0534  1.6379 -2.0774
 9697TIP3    H250507   4.306   4.199  16.497 -2.1126  1.4874  0.5807
 9698TIP3   OH250508   5.447   2.821  15.359 -0.4463  0.2002 -0.1424
 9698TIP3    H150509   5.389   2.856  15.427  3.0452  0.7380  2.8615
 9698TIP3    H250510   5.447   2.726  15.374  1.8048  0.4596  2.1435
 9699TIP3   OH250511   3.452   3.977   0.528  0.1125 -0.1290  0.4508
 9699TIP3    H150512   3.375   3.946   0.577  0.8710 -0.8956  1.1894
 9699TIP3    H250513   3.525   3.965   0.588  0.4327  3.7711  1.0523
 9700TIP3   OH250514   6.307   6.140  16.139  0.7052  0.1678 -0.1862
 9700TIP3    H150515   6.376   6.075  16.155 -0.0720 -0.9690 -1.2452
 9700TIP3    H250516   6.340   6.221  16.177  1.8179 -0.7950  0.9738
 9701TIP3   OH250517   1.260   3.270  15.935 -0.2677  0.3921  0.3181
 9701TIP3    H150518   1.268   3.297  15.843 -0.5540  2.3285  0.8080
 9701TIP3    H250519   1.350   3.256  15.964 -0.0830  1.0120  0.0622
 9702TIP3   OH250520   2.599   0.313  16.637  0.4433 -0.0111  0.7156
 9702TIP3    H150521   2.639   0.318  16.723  0.4033 -2.0807  0.9074
 9702TIP3    H250522   2.673   0.299  16.577  0.2908 -0.8891  0.7178
 9703TIP3   OH250523   0.591   2.319  13.496 -0.1035  0.9597 -0.2754
 9703TIP3    H150524   0.565   2.229  13.476  4.6240 -1.2933  2.2226
 9703TIP3    H250525   0.638   2.349  13.418  0.5408  0.2387 -0.1678
 9704TIP3   OH250526   0.363   0.773   4.862 -0.4383  0.0856  0.3273
 9704TIP3    H150527   0.349   0.801   4.772  1.4428 -0.5987 -0.2268
 9704TIP3    H250528   0.316   0.838   4.915 -1.4925  0.5466 -1.1237
 9705TIP3   OH250529   6.550   4.311   2.398  0.1830 -0.3415  0.2021
 9705TIP3    H150530   6.645   4.319   2.390 -0.0921  2.0612 -1.6875
 9705TIP3    H250531   6.521   4.284   2.311 -1.0213  1.5308 -0.0345
 9706TIP3   OH250532   4.602   3.894  14.418  0.6599 -0.2383  0.0738
 9706TIP3    H150533   4.673   3.957  14.408  0.0378  0.5125  0.2122
 9706TIP3    H250534   4.529   3.946  14.453 -0.6621 -0.4737 -2.1241
 9707TIP3   OH250535   4.848   2.151  15.981  0.4028 -0.1688  0.4372
 9707TIP3    H150536   4.926   2.169  16.034  0.2449 -0.5300  0.7970
 9707TIP3    H250537   4.783   2.120  16.044 -1.4314  3.8677  0.9094
 9708TIP3   OH250538   1.396   3.994  13.512  0.3796 -0.2983  0.1169
 9708TIP3    H150539   1.300   3.987  13.503  0.2097  1.7823 -0.1778
 9708TIP3    H250540   1.427   4.003  13.422  0.4295  2.5985  0.3062
 9709TIP3   OH250541   4.022   0.081  11.143 -0.5516  0.4081 -0.2484
 9709TIP3    H150542   4.092   0.086  11.208  0.7508 -0.3891 -1.5353
 9709TIP3    H250543   4.013   0.170  11.110 -0.8564  0.7101  0.6191
 9710TIP3   OH250544   5.113   0.797   2.961  0.1766 -0.8506 -0.6718
 9710TIP3    H150545   5.177   0.854   2.920 -0.9323  1.6025  0.7836
 9710TIP3    H250546   5.052   0.775   2.890  1.0106 -0.8479 -1.4094
 9711TIP3   OH250547   5.510   5.315   1.510  0.3684 -0.2292 -0.5273
 9711TIP3    H150548   5.499   5.250   1.579  0.8197  0.5101  0.2575
 9711TIP3    H250549   5.438   5.298   1.449  0.3635 -1.3326 -0.2472
 9712TIP3   OH250550   0.531   6.107   3.316  0.2859  0.6412 -0.0909
 9712TIP3    H150551   0.587   6.117   3.392  0.7295  1.9730 -0.5487
 9712TIP3    H250552   0.586   6.064   3.250 -0.1210 -0.5783  0.3430
 9713TIP3   OH250553   0.340   0.831   6.303 -0.0911 -0.6314  0.4498
 9713TIP3    H150554   0.435   0.835   6.291  0.3377  1.6700  3.4430
 9713TIP3    H250555   0.328   0.814   6.396 -2.5908  0.2324  0.3559
 9714TIP3   OH250556   0.670   2.787  17.122  0.6113  0.1997  0.0999
 9714TIP3    H150557   0.670   2.703  17.169  3.4704 -0.3141 -0.6240
 9714TIP3    H250558   0.661   2.853  17.191  1.5564 -0.6298  1.0524
 9715TIP3   OH250559   0.798   5.362   0.442 -0.2313  0.9629  0.0130
 9715TIP3    H150560   0.836   5.425   0.380  2.4760 -1.1921 -0.6961
 9715TIP3    H250561   0.748   5.302   0.387  0.6212  0.1475  0.0937
 9716TIP3   OH250562   1.513   5.238  16.723 -0.0666  0.0723  0.9144
 9716TIP3    H150563   1.466   5.235  16.806 -0.2076 -0.7369  0.8146
 9716TIP3    H250564   1.599   5.273  16.745 -0.1372 -0.0453  1.3807
 9717TIP3   OH250565   2.898   1.199   2.079  0.4813 -0.2120  0.0018
 9717TIP3    H150566   2.951   1.203   2.159 -0.1825 -2.1593  0.6235
 9717TIP3    H250567   2.916   1.111   2.044  0.6076  0.5390 -1.9041
 9718TIP3   OH250568   2.198   4.337   0.200 -0.6869  0.1158 -0.2690
 9718TIP3    H150569   2.283   4.309   0.168 -0.6581  0.6413 -0.6743
 9718TIP3    H250570   2.162   4.390   0.128 -1.5546 -0.4929 -0.3021
 9719TIP3   OH250571   2.302   1.709  16.507  0.2273  0.6318 -0.1175
 9719TIP3    H150572   2.270   1.671  16.425 -1.2483  0.7483  0.3692
 9719TIP3    H250573   2.250   1.666  16.575  0.4271  1.5594  0.6443
 9720TIP3   OH250574   4.693   4.754   0.479 -0.0948 -0.3086 -0.5322
 9720TIP3    H150575   4.745   4.802   0.543  1.2354 -2.0266 -0.2593
 9720TIP3    H250576   4.694   4.810   0.401 -0.2162  0.9641  0.3414
 9721TIP3   OH250577   2.260   5.846   3.367 -1.0993 -0.5297 -0.8091
 9721TIP3    H150578   2.208   5.822   3.290 -1.9862 -1.8649  0.1686
 9721TIP3    H250579   2.278   5.763   3.411  0.9576  0.0069 -0.5191
 9722TIP3   OH250580   4.718   4.447  15.470 -0.5214  0.1459  0.5297
 9722TIP3    H150581   4.727   4.513  15.402 -1.9087  0.5890  0.7291
 9722TIP3    H250582   4.749   4.366  15.430  0.5303  0.7705  0.0504
 9723TIP3   OH250583   4.450   2.946  14.783  0.1354  0.4682  0.5056
 9723TIP3    H150584   4.545   2.960  14.783  0.1420  0.4360  0.9564
 9723TIP3    H250585   4.413   3.033  14.795  0.1047  0.5052  0.1345
 9724TIP3   OH250586   5.893   1.741   1.146  0.0633 -0.1072 -0.0805
 9724TIP3    H150587   5.858   1.719   1.060  0.4120 -0.1182 -0.2182
 9724TIP3    H250588   5.826   1.798   1.185 -1.0342 -1.6649  0.4252
 9725TIP3   OH250589   2.499   2.432   3.253 -0.4488 -0.5924 -0.0619
 9725TIP3    H150590   2.473   2.340   3.261 -0.7999 -0.4752  0.1431
 9725TIP3    H250591   2.523   2.442   3.161  1.3991 -1.3611  0.2880
 9726TIP3   OH250592   1.370   4.954  11.895 -0.3076 -0.6772 -0.4289
 9726TIP3    H150593   1.350   4.885  11.831 -1.6223  0.5307 -1.3796
 9726TIP3    H250594   1.293   4.956  11.952  0.7990 -1.6581  1.1760
 9727TIP3   OH250595   5.214   0.523  15.295  0.0904 -0.2271 -0.3275
 9727TIP3    H150596   5.248   0.609  15.320 -1.1105  0.1790 -0.0388
 9727TIP3    H250597   5.172   0.490  15.374 -1.3412 -0.1299 -1.0231
 9728TIP3   OH250598   5.836   5.383  15.305 -0.0830 -0.5044  0.8671
 9728TIP3    H150599   5.868   5.469  15.278  0.4335 -1.0264 -0.3139
 9728TIP3    H250600   5.911   5.342  15.348 -0.1559 -0.5524  0.9494
 9729TIP3   OH250601   4.919   2.513   3.977 -0.5513  0.1502  0.2638
 9729TIP3    H150602   4.838   2.549   4.013 -0.3953 -0.4412  1.2277
 9729TIP3    H250603   4.913   2.419   3.992 -0.3938 -0.1041 -1.1214
 9730TIP3   OH250604   4.141   2.307   6.166 -0.5259  0.5928 -0.1501
 9730TIP3    H150605   4.069   2.369   6.167  0.6887  2.0731  0.6426
 9730TIP3    H250606   4.180   2.316   6.079 -2.0178 -1.1763 -1.0747
 9731TIP3   OH250607   6.352   5.595  17.007  0.2614 -0.0121 -0.2623
 9731TIP3    H150608   6.362   5.690  17.018 -0.2526  0.0893 -0.6415
 9731TIP3    H250609   6.320   5.585  16.918  1.5987 -0.6375 -0.7032
 9732TIP3   OH250610   3.064   2.780  13.639 -0.5758 -0.5502  0.0131
 9732TIP3    H150611   3.152   2.756  13.666 -0.2449 -0.1167 -0.6630
 9732TIP3    H250612   3.031   2.835  13.709  0.0703  0.1149 -0.1932
 9733TIP3   OH250613   3.101   2.005  16.489 -0.4031 -0.4789 -0.2624
 9733TIP3    H150614   3.153   2.058  16.549 -0.5865 -3.2510  2.6396
 9733TIP3    H250615   3.109   2.049  16.404  2.5962  1.8884  1.0614
 9734TIP3   OH250616   3.991   1.046  15.619  0.0704  0.4190 -0.1765
 9734TIP3    H150617   3.974   1.140  15.630  1.1248  0.6696 -0.5745
 9734TIP3    H250618   3.968   1.007  15.703  1.7692  1.3590  0.7820
 9735TIP3   OH250619   3.985   3.426  11.916  0.5637 -0.3245  0.2107
 9735TIP3    H150620   3.934   3.494  11.873 -0.4760 -0.8135  0.6332
 9735TIP3    H250621   3.985   3.450  12.008  0.1228 -0.9321  0.3743
 9736TIP3   OH250622   0.641   5.514  10.399 -0.1892  0.1402  0.0432
 9736TIP3    H150623   0.663   5.604  10.374  0.6228  0.2116  0.9608
 9736TIP3    H250624   0.706   5.491  10.465  0.0216 -1.3675 -0.6562
 9737TIP3   OH250625   0.282   1.743   1.142  0.2582  0.7612 -0.1125
 9737TIP3    H150626   0.331   1.786   1.072 -0.8610 -1.4367 -2.4064
 9737TIP3    H250627   0.320   1.655   1.148  0.8262  1.1187  2.6417
 9738TIP3   OH250628   4.771   3.632  14.197  0.1290  0.4743  0.4772
 9738TIP3    H150629   4.768   3.640  14.102  0.6378  0.9131  0.4950
 9738TIP3    H250630   4.842   3.690  14.224  0.4338 -0.1654  1.0738
 9739TIP3   OH250631   1.960   5.272  13.680 -0.1969 -0.0101 -0.4731
 9739TIP3    H150632   1.941   5.201  13.618 -0.1325  0.1694 -0.6988
 9739TIP3    H250633   2.004   5.338  13.627 -1.3263  0.7176 -0.5164
 9740TIP3   OH250634   4.793   6.000   2.150  0.1062 -0.2906  0.6180
 9740TIP3    H150635   4.883   5.969   2.134  0.4841  0.9570  0.1703
 9740TIP3    H250636   4.740   5.956   2.083  0.8517  0.9977 -0.9012
 9741TIP3   OH250637   3.597   6.618  13.208 -0.2608 -0.1016 -0.1434
 9741TIP3    H150638   3.511   6.581  13.227 -2.4236  4.0415 -0.6018
 9741TIP3    H250639   3.631   6.566  13.135 -2.2870 -1.9653  0.1530
 9742TIP3   OH250640   3.637   2.158  14.237 -0.3138  0.8866 -0.3474
 9742TIP3    H150641   3.673   2.069  14.242 -0.9606  0.5140 -1.7947
 9742TIP3    H250642   3.550   2.151  14.277 -0.5227  0.7687 -0.8158
 9743TIP3   OH250643   6.731   5.736   2.039  0.8754  0.4086  0.6522
 9743TIP3    H150644   6.799   5.692   2.090 -0.6811 -1.9960  0.7723
 9743TIP3    H250645   6.774   5.755   1.955  1.9380 -0.3324  0.9965
 9744TIP3   OH250646   5.040   5.476  15.759 -0.0442  0.1367 -0.2640
 9744TIP3    H150647   4.959   5.447  15.799  0.8640 -1.0031  0.8406
 9744TIP3    H250648   5.025   5.568  15.736 -1.2771  0.2301  0.8471
 9745TIP3   OH250649   3.304   1.112  16.137  0.4016  0.1760  0.0417
 9745TIP3    H150650   3.226   1.167  16.133  1.2952  1.4969  0.1429
 9745TIP3    H250651   3.319   1.099  16.231  0.7807  0.6428  0.0492
 9746TIP3   OH250652   6.258   1.967  14.309  1.0496  0.2993 -0.2105
 9746TIP3    H150653   6.203   2.045  14.309  0.4821 -0.0294 -2.6300
 9746TIP3    H250654   6.205   1.899  14.267  2.5339 -0.6025 -0.7210
 9747TIP3   OH250655   6.149   1.044   4.217  0.3023  0.1157 -0.0789
 9747TIP3    H150656   6.082   1.113   4.217  1.0085  0.8157 -0.2814
 9747TIP3    H250657   6.111   0.974   4.269 -1.8143 -0.7010 -2.4951
 9748TIP3   OH250658   0.323   4.841   4.112  0.2365  0.0539 -0.0757
 9748TIP3    H150659   0.378   4.903   4.063  1.1946 -0.9231 -0.2876
 9748TIP3    H250660   0.289   4.892   4.185 -0.0082  1.1514 -0.9318
 9749TIP3   OH250661   5.479   3.258  15.354  0.4298  0.0990 -0.2630
 9749TIP3    H150662   5.507   3.228  15.267  0.4599  1.2460 -0.6692
 9749TIP3    H250663   5.496   3.352  15.353  1.9175 -0.1117  1.5753
 9750TIP3   OH250664   5.770   6.646  13.103  0.1502 -0.8099 -0.4383
 9750TIP3    H150665   5.745   6.716  13.043  0.2666 -1.0604 -0.7835
 9750TIP3    H250666   5.763   6.566  13.051  0.3894 -1.0158 -0.1592
 9751TIP3   OH250667   6.423   5.570  13.883  0.4829 -0.2431 -0.0890
 9751TIP3    H150668   6.468   5.652  13.901 -0.3425 -0.1804  1.9683
 9751TIP3    H250669   6.357   5.563  13.952 -1.4589 -1.2137 -1.9286
 9752TIP3   OH250670   5.206   3.728  15.691 -0.2516  0.3342  0.4138
 9752TIP3    H150671   5.200   3.786  15.767  0.0973  0.9081  0.0147
 9752TIP3    H250672   5.212   3.788  15.616 -0.8354 -0.2215 -0.0917
 9753TIP3   OH250673   1.131   3.671  14.473 -0.6285 -0.0479  0.0000
 9753TIP3    H150674   1.072   3.699  14.543 -0.7243  0.2365 -0.1920
 9753TIP3    H250675   1.123   3.740  14.407  0.8956  0.6642  0.5139
 9754TIP3   OH250676   3.450   5.791   5.664  0.4446 -0.7476 -0.5323
 9754TIP3    H150677   3.388   5.725   5.694  0.9419 -0.8215  0.3268
 9754TIP3    H250678   3.394   5.862   5.632 -0.0885 -1.0085 -0.1957
 9755TIP3   OH250679   3.177   0.886  16.719  0.3442 -0.0940 -0.4149
 9755TIP3    H150680   3.206   0.864  16.808  1.1691  0.3078 -0.5743
 9755TIP3    H250681   3.090   0.846  16.712 -0.8750  2.0039  1.4528
 9756TIP3   OH250682   5.126   0.361  16.331 -0.6072 -0.3062  0.4098
 9756TIP3    H150683   5.078   0.404  16.260 -0.9869  1.1713  1.5099
 9756TIP3    H250684   5.215   0.395  16.324  0.7931 -3.8197 -2.2757
 9757TIP3   OH250685   5.051   5.752   2.787 -0.4228 -0.2778 -0.1074
 9757TIP3    H150686   5.050   5.842   2.819  1.3256 -0.1679 -0.2711
 9757TIP3    H250687   5.020   5.759   2.696  0.1193  0.2249 -0.2608
 9758TIP3   OH250688   5.277   4.530   0.615 -0.2088 -0.2716 -0.1391
 9758TIP3    H150689   5.218   4.584   0.669 -0.6308  0.0692 -0.9261
 9758TIP3    H250690   5.220   4.493   0.548  0.6126  0.8219 -1.5014
 9759TIP3   OH250691   5.036   4.892  11.854  0.4149  0.0981  0.0078
 9759TIP3    H150692   5.109   4.953  11.847  1.0109 -0.4524  1.0887
 9759TIP3    H250693   5.040   4.840  11.774  0.8977  0.4140 -0.1765
 9760TIP3   OH250694   6.511   4.086  13.056  0.2625  0.0920 -0.0778
 9760TIP3    H150695   6.554   4.002  13.037  1.5206  0.8165 -0.5319
 9760TIP3    H250696   6.470   4.111  12.973 -1.3425 -0.7308  0.4246
 9761TIP3   OH250697   5.668   2.558  13.472 -0.1710  0.1101 -0.2298
 9761TIP3    H150698   5.606   2.502  13.517 -1.7707  1.8041 -0.1873
 9761TIP3    H250699   5.723   2.595  13.541 -0.0943 -0.2380 -0.1044
 9762TIP3   OH250700   5.236   3.639   5.601  0.3577 -0.3199 -0.2553
 9762TIP3    H150701   5.203   3.559   5.560  0.0123  0.3567 -1.3438
 9762TIP3    H250702   5.226   3.624   5.695 -1.5398 -0.7931 -0.4942
 9763TIP3   OH250703   5.507   3.451  16.463 -0.2953 -0.4580 -0.1756
 9763TIP3    H150704   5.435   3.402  16.424 -2.1101  1.5334  0.4537
 9763TIP3    H250705   5.586   3.412  16.426 -1.6309 -3.0214 -0.5816
 9764TIP3   OH250706   4.180   3.587   5.380 -0.2712  0.2739 -0.4257
 9764TIP3    H150707   4.269   3.622   5.391 -0.1521 -0.2061  0.2085
 9764TIP3    H250708   4.140   3.643   5.314  0.1781  1.1127 -0.0023
 9765TIP3   OH250709   6.714   3.887  12.776  0.4410  0.0568  0.3374
 9765TIP3    H150710   6.761   3.863  12.696 -0.4606 -0.5947 -0.0122
 9765TIP3    H250711   6.623   3.863  12.759 -0.0307  1.2543  1.0193
 9766TIP3   OH250712   2.660   6.514   5.423  0.0395  0.4738 -0.0855
 9766TIP3    H150713   2.690   6.444   5.365 -1.7658  1.1917 -1.9946
 9766TIP3    H250714   2.733   6.576   5.426  1.4095 -1.1100  1.1273
 9767TIP3   OH250715   6.459   1.346  16.775 -0.5867  0.0043 -0.1251
 9767TIP3    H150716   6.537   1.373  16.727  0.2626 -0.5078  0.9138
 9767TIP3    H250717   6.400   1.420  16.770  0.0535  0.4780 -0.7648
 9768TIP3   OH250718   1.148   5.039   3.901  0.2406  0.5328  0.5894
 9768TIP3    H150719   1.199   5.016   3.978  0.9082  2.0022  0.6159
 9768TIP3    H250720   1.175   5.128   3.879 -0.2542  0.3193 -1.0827
 9769TIP3   OH250721   1.845   2.784  13.821 -0.5048  0.3076 -0.2515
 9769TIP3    H150722   1.807   2.872  13.827 -0.3582  0.4297 -0.9889
 9769TIP3    H250723   1.809   2.748  13.739 -4.6255 -2.2685  2.3284
 9770TIP3   OH250724   2.206   0.301  10.817  0.2809  0.0892 -0.6705
 9770TIP3    H150725   2.158   0.371  10.772  0.5383  1.6018  1.2913
 9770TIP3    H250726   2.165   0.294  10.903  2.4052  0.2276  0.4310
 9771TIP3   OH250727   1.732   3.434  15.355  0.5613  0.1011  0.9152
 9771TIP3    H150728   1.800   3.493  15.322 -0.5344  1.3599  0.8102
 9771TIP3    H250729   1.657   3.449  15.297 -0.1378 -0.4828  1.6422
 9772TIP3   OH250730   4.467   1.164   2.887 -0.0600  0.0097 -0.4400
 9772TIP3    H150731   4.477   1.259   2.896 -0.8447  0.1704 -1.1035
 9772TIP3    H250732   4.384   1.154   2.840 -0.2035 -1.0221  0.0199
 9773TIP3   OH250733   2.545   6.701  12.144 -0.5005 -0.1730 -0.1712
 9773TIP3    H150734   2.534   6.632  12.078  1.6976 -1.2672  0.5286
 9773TIP3    H250735   2.459   6.708  12.186 -0.9638 -1.9838 -0.7295
 9774TIP3   OH250736   0.003   6.120   3.021  0.1249 -0.0686 -0.4005
 9774TIP3    H150737  -0.004   6.211   2.992 -0.0043 -0.0671 -0.3665
 9774TIP3    H250738   0.094   6.111   3.049  0.0384  0.1636 -0.0301
 9775TIP3   OH250739   1.581   2.183   0.435 -0.3167  0.2480 -0.2575
 9775TIP3    H150740   1.635   2.215   0.507 -0.2859  1.0019 -0.6044
 9775TIP3    H250741   1.567   2.091   0.455  0.1391  0.3182  0.4326
 9776TIP3   OH250742   0.396   3.639   2.800  0.0386 -0.8810 -0.1226
 9776TIP3    H150743   0.371   3.553   2.767 -1.3469 -0.0533 -1.3240
 9776TIP3    H250744   0.319   3.669   2.848 -0.1595  0.4091 -1.2040
 9777TIP3   OH250745   0.817   6.325   1.420 -0.4289 -0.3046  0.5097
 9777TIP3    H150746   0.795   6.250   1.476  0.2301 -0.1538  0.9826
 9777TIP3    H250747   0.844   6.393   1.481 -3.2580  1.1782  0.2650
 9778TIP3   OH250748   3.538   4.332   4.623 -0.3520  0.1791 -0.5985
 9778TIP3    H150749   3.574   4.368   4.542  1.4316 -1.8631 -0.7938
 9778TIP3    H250750   3.614   4.314   4.678 -1.3295 -0.9295  0.4570
 9779TIP3   OH250751   5.574   4.612  15.752  0.1922  0.2405 -0.6276
 9779TIP3    H150752   5.611   4.695  15.782  0.2560  0.3514 -1.0162
 9779TIP3    H250753   5.494   4.636  15.705 -2.8652 -0.1513  3.6710
 9780TIP3   OH250754   4.921   0.375  15.514  0.3688  0.3641 -0.7038
 9780TIP3    H150755   4.923   0.453  15.568 -0.2570 -0.3124  0.3453
 9780TIP3    H250756   4.840   0.383  15.464  0.7489  0.8037 -1.2511
 9781TIP3   OH250757   3.222   2.726  11.416 -0.3752 -0.4821  0.3329
 9781TIP3    H150758   3.248   2.636  11.430  1.7674 -0.0135 -0.2216
 9781TIP3    H250759   3.262   2.775  11.487 -1.5003  0.0731  0.6220
 9782TIP3   OH250760   4.134   1.979  10.755 -0.3537 -0.1601 -0.1296
 9782TIP3    H150761   4.191   1.967  10.831 -1.1265 -1.9409  0.2078
 9782TIP3    H250762   4.052   2.012  10.792 -1.4663 -2.9854  0.1709
 9783TIP3   OH250763   6.136   6.386   5.921  0.1495 -0.1741 -0.7075
 9783TIP3    H150764   6.220   6.347   5.896  0.0946 -0.1071 -1.0042
 9783TIP3    H250765   6.100   6.420   5.839  0.3951  0.8932 -0.3868
 9784TIP3   OH250766   6.516   5.822   5.100  0.0715  0.3599  0.0092
 9784TIP3    H150767   6.542   5.839   5.009 -0.1167  0.1452 -0.0864
 9784TIP3    H250768   6.500   5.728   5.103  0.4843  0.2994  0.3719
 9785TIP3   OH250769   6.717   5.364   1.499 -0.5135  0.0491 -0.4080
 9785TIP3    H150770   6.703   5.363   1.594  1.3564  2.2206 -0.0248
 9785TIP3    H250771   6.753   5.278   1.479  0.3949  0.0311  1.1212
 9786TIP3   OH250772   0.597   5.379   0.644  0.0347  0.0839  0.4234
 9786TIP3    H150773   0.586   5.302   0.701 -0.9875  0.0594  0.2189
 9786TIP3    H250774   0.654   5.349   0.573 -1.6312 -1.0035 -0.5281
 9787TIP3   OH250775   1.483   1.508  16.017 -0.2686  0.0884  0.0168
 9787TIP3    H150776   1.486   1.596  16.053 -0.7392  0.2930 -0.4429
 9787TIP3    H250777   1.466   1.520  15.924 -2.5039 -0.5486  0.2809
 9788TIP3   OH250778   3.320   4.869  15.459 -0.0313 -0.2478 -0.7318
 9788TIP3    H150779   3.319   4.952  15.507 -0.2758 -0.2302 -0.7646
 9788TIP3    H250780   3.296   4.803  15.524 -2.6175  0.0382 -1.2922
 9789TIP3   OH250781   6.105   3.946  11.021  0.1265 -0.0234 -0.0093
 9789TIP3    H150782   6.124   3.941  11.115  0.1911 -0.3132 -0.0385
 9789TIP3    H250783   6.159   4.019  10.990 -0.8440  0.9011  0.4096
 9790TIP3   OH250784   6.744   5.257   1.877  0.1103  0.2934 -0.1710
 9790TIP3    H150785   6.815   5.204   1.841  0.6206  0.0893  1.0751
 9790TIP3    H250786   6.788   5.335   1.912 -0.2573  0.1435  0.6515
 9791TIP3   OH250787   5.646   5.091   0.450 -0.0080 -0.3505  0.2634
 9791TIP3    H150788   5.603   5.171   0.420 -0.6138 -0.3659  1.0438
 9791TIP3    H250789   5.724   5.122   0.495  0.0301 -0.2279  0.1143
 9792TIP3   OH250790   6.048   4.228  11.398 -0.4338  0.4674  0.6342
 9792TIP3    H150791   6.109   4.191  11.462  1.3251  1.9494 -0.0776
 9792TIP3    H250792   6.054   4.323  11.411  1.2408  0.9725 -2.6421
 9793TIP3   OH250793   1.266   6.015   5.423 -0.1671 -0.1653 -0.4404
 9793TIP3    H150794   1.190   6.050   5.377 -0.1366 -0.3072 -0.5971
 9793TIP3    H250795   1.326   5.988   5.354  0.4065  0.7690 -0.3212
 9794TIP3   OH250796   3.215   5.336  13.937 -0.3525 -0.0976  0.1275
 9794TIP3    H150797   3.127   5.344  13.972 -0.0594 -1.4293  1.2305
 9794TIP3    H250798   3.246   5.250  13.967  1.3736  0.4001 -0.1111
 9795TIP3   OH250799   1.714   5.385  16.880 -0.4916 -0.1752  0.4654
 9795TIP3    H150800   1.730   5.474  16.909 -0.5084  0.1939 -0.5955
 9795TIP3    H250801   1.772   5.331  16.934 -0.8791  0.4154  1.4732
 9796TIP3   OH250802   0.111   4.318  12.107  0.3438 -0.3704 -0.5670
 9796TIP3    H150803   0.056   4.303  12.030 -0.3534 -0.2399 -0.1005
 9796TIP3    H250804   0.138   4.230  12.135  1.2835 -0.3805 -1.4355
 9797TIP3   OH250805   0.410   2.477  13.643  0.1427 -0.0394  0.4254
 9797TIP3    H150806   0.464   2.517  13.711  0.0037  0.2758  0.3570
 9797TIP3    H250807   0.473   2.441  13.580  0.2883  0.8187  0.0608
 9798TIP3   OH250808   6.512   6.561   2.887  0.3117  0.2550  0.1580
 9798TIP3    H150809   6.460   6.587   2.811  1.1478 -0.4182 -0.6680
 9798TIP3    H250810   6.448   6.554   2.958 -0.2595  2.4712 -0.0534
 9799TIP3   OH250811   0.241   3.950   0.357  0.2061  0.1551 -0.0989
 9799TIP3    H150812   0.165   4.008   0.354 -0.8489 -1.0556  1.4884
 9799TIP3    H250813   0.216   3.875   0.304  0.0919 -0.4378  0.7695
 9800TIP3   OH250814   3.919   3.463  13.787  0.3336 -0.3059  0.0902
 9800TIP3    H150815   3.906   3.435  13.696 -0.0965  1.6338 -0.5085
 9800TIP3    H250816   3.970   3.393  13.827  0.2622 -1.3626 -1.5568
 9801TIP3   OH250817   3.258   0.108  10.839  0.2059 -0.0722  0.1863
 9801TIP3    H150818   3.310   0.168  10.787  1.1082 -0.4537  0.6190
 9801TIP3    H250819   3.265   0.024  10.793 -0.3858 -0.0333  0.0168
 9802TIP3   OH250820   5.648   4.107   1.579  0.1076 -0.3074  0.1084
 9802TIP3    H150821   5.577   4.082   1.639 -1.1634 -2.1703 -2.0009
 9802TIP3    H250822   5.694   4.025   1.561  0.9972  0.3657 -0.7741
 9803TIP3   OH250823   6.078   1.109   5.688  0.0058 -0.4834 -0.0116
 9803TIP3    H150824   5.991   1.092   5.723  0.3030 -1.7986  0.1519
 9803TIP3    H250825   6.125   1.153   5.760 -0.7000  0.8725 -0.3418
 9804TIP3   OH250826   0.264   5.668  12.342  0.2652  0.0188  0.2874
 9804TIP3    H150827   0.268   5.627  12.256  0.8852  0.2395  0.2071
 9804TIP3    H250828   0.252   5.595  12.403 -0.0145 -0.1513  0.0355
 9805TIP3   OH250829   6.069   0.431   0.776 -0.1914  0.1881  0.4502
 9805TIP3    H150830   6.082   0.438   0.870 -0.0738 -0.3511  0.4784
 9805TIP3    H250831   6.118   0.505   0.739  2.1864 -1.2089  0.6163
 9806TIP3   OH250832   0.397   4.030   0.137 -0.5520 -0.0528 -0.2114
 9806TIP3    H150833   0.479   4.065   0.170 -1.2164  1.4446 -0.0808
 9806TIP3    H250834   0.342   4.018   0.215 -0.6523 -0.5591 -0.3511
 9807TIP3   OH250835   0.362   1.596   2.093 -0.1743  0.3513 -0.4879
 9807TIP3    H150836   0.391   1.509   2.119  1.1188  0.4739 -1.4255
 9807TIP3    H250837   0.284   1.581   2.040 -0.7793 -0.1220  0.5025
 9808TIP3   OH250838   1.917   3.906  11.874 -0.2202 -0.9679 -0.0622
 9808TIP3    H150839   1.893   3.989  11.915 -2.1996 -1.4356 -0.1525
 9808TIP3    H250840   2.006   3.919  11.842  0.0922  0.5683  1.3284
 9809TIP3   OH250841   6.080   4.496   4.471 -0.1015  0.2131  0.4163
 9809TIP3    H150842   6.045   4.548   4.398 -1.5366  1.0757  1.6550
 9809TIP3    H250843   6.151   4.445   4.433 -0.7976  0.6577 -1.5721
 9810TIP3   OH250844   1.001   3.040  15.298 -0.1110 -0.2341 -0.1450
 9810TIP3    H150845   1.035   2.996  15.376 -0.5115 -1.2368 -0.5171
 9810TIP3    H250846   1.012   2.976  15.228 -0.3204  0.4267 -0.7897
 9811TIP3   OH250847   5.543   4.458   1.038  0.4214  0.1809  0.1909
 9811TIP3    H150848   5.609   4.501   0.983  0.6888  0.4593  0.7200
 9811TIP3    H250849   5.560   4.491   1.127  0.4486 -0.8040  0.5621
 9812TIP3   OH250850   1.805   5.938  13.303  0.5694  0.0535  0.3508
 9812TIP3    H150851   1.802   5.992  13.382  0.5107  0.2027  0.2459
 9812TIP3    H250852   1.898   5.929  13.283  0.5449  1.6064 -0.6550
 9813TIP3   OH250853   5.880   0.550  16.511 -0.4390  0.2417  0.1309
 9813TIP3    H150854   5.957   0.500  16.535 -0.0218  1.3075  1.1447
 9813TIP3    H250855   5.835   0.565  16.595 -1.1546  0.5624 -0.3030
 9814TIP3   OH250856   0.901   3.145  14.668  0.1730  0.1323 -0.2935
 9814TIP3    H150857   0.975   3.099  14.629  1.0963  0.0780  1.4442
 9814TIP3    H250858   0.917   3.143  14.762 -1.3321  1.3461  0.0457
 9815TIP3   OH250859   2.305   6.099   3.010 -0.3084 -0.3203 -0.0237
 9815TIP3    H150860   2.312   6.046   3.090 -3.0615 -0.8722 -0.0481
 9815TIP3    H250861   2.336   6.186   3.037  0.5783 -0.9546  1.1018
 9816TIP3   OH250862   2.903   6.426  14.472  0.6756  0.4511  0.0098
 9816TIP3    H150863   2.971   6.484  14.437  1.3855  0.6951  1.6866
 9816TIP3    H250864   2.950   6.366  14.530 -0.4827  0.3366  0.8666
 9817TIP3   OH250865   3.037   0.505  14.880 -0.1348  0.4724 -0.8013
 9817TIP3    H150866   2.972   0.565  14.917 -0.7793 -0.8366  0.2434
 9817TIP3    H250867   3.014   0.419  14.916  1.3263 -0.2551 -1.5360
 9818TIP3   OH250868   5.182   6.449   6.286 -0.1925  0.1101  0.6920
 9818TIP3    H150869   5.200   6.371   6.338  0.0360 -1.1539 -1.1602
 9818TIP3    H250870   5.265   6.467   6.241 -0.5740  0.6874  0.2001
 9819TIP3   OH250871   2.469   2.410   4.665 -0.0236 -0.3923  0.0520
 9819TIP3    H150872   2.446   2.436   4.755  1.0589  0.9622 -0.0334
 9819TIP3    H250873   2.564   2.416   4.662  0.0483 -1.5764 -0.8760
 9820TIP3   OH250874   4.215   3.262  14.403  0.1245  0.1236 -0.4521
 9820TIP3    H150875   4.261   3.346  14.407  1.2987 -0.5372  0.4413
 9820TIP3    H250876   4.217   3.238  14.311  0.3226  0.7747 -0.6248
 9821TIP3   OH250877   3.700   1.812  15.422  0.1798 -0.0927  0.1549
 9821TIP3    H150878   3.621   1.835  15.373  0.3222 -0.7314 -0.3871
 9821TIP3    H250879   3.729   1.895  15.460 -1.6715 -0.1197  1.7727
 9822TIP3   OH250880   4.394   4.021   2.367 -0.2095  0.2106 -0.6167
 9822TIP3    H150881   4.406   3.981   2.280 -2.0595  1.1670 -1.3714
 9822TIP3    H250882   4.303   4.002   2.389  0.3976 -0.5235  1.4227
 9823TIP3   OH250883   4.439   0.675   5.362  0.6805  0.1974  0.1933
 9823TIP3    H150884   4.393   0.722   5.433  0.1231  2.0716 -1.3228
 9823TIP3    H250885   4.526   0.656   5.399 -0.1987 -0.5432  1.9984
 9824TIP3   OH250886   3.570   5.444   2.800 -0.3801  0.4705  0.3659
 9824TIP3    H150887   3.619   5.526   2.803 -0.6168  0.6769 -0.8656
 9824TIP3    H250888   3.492   5.460   2.853  0.5834  0.3228  1.8678
 9825TIP3   OH250889   3.251   3.442   1.574  0.0197 -0.2156  0.5988
 9825TIP3    H150890   3.296   3.371   1.620  1.2175 -0.6043 -1.0736
 9825TIP3    H250891   3.262   3.421   1.481  1.2140  2.5843 -0.0115
 9826TIP3   OH250892   6.240   2.343  15.509  0.6606 -0.3918  0.8900
 9826TIP3    H150893   6.210   2.416  15.455  0.9299 -0.8420  0.0975
 9826TIP3    H250894   6.184   2.345  15.586 -1.1937 -0.9611 -0.3517
 9827TIP3   OH250895   0.827   0.024   0.442 -0.2998 -0.1600  0.4635
 9827TIP3    H150896   0.734   0.008   0.430 -0.0935 -1.7270  0.7036
 9827TIP3    H250897   0.832   0.088   0.513 -1.1747 -0.5633  0.8972
 9828TIP3   OH250898   1.875   6.112  13.513 -0.1645  0.0157  0.3265
 9828TIP3    H150899   1.928   6.192  13.509 -1.6481  0.9731 -1.5870
 9828TIP3    H250900   1.803   6.134  13.573 -0.4288  0.0306  0.0069
 9829TIP3   OH250901   6.797   5.053  16.642 -0.4063 -0.7794  0.1838
 9829TIP3    H150902   6.805   4.981  16.704 -1.7961 -0.5506  0.6634
 9829TIP3    H250903   6.887   5.082  16.627 -0.0373 -0.7272  2.2263
 9830TIP3   OH250904   3.070   0.524  12.684 -0.2380  0.8780 -0.0629
 9830TIP3    H150905   3.146   0.469  12.666  2.3746  3.7607  1.4136
 9830TIP3    H250906   3.071   0.537  12.779 -0.5715  3.6229 -0.3675
 9831TIP3   OH250907   0.333   6.422   2.700  0.3275  0.5572 -0.2585
 9831TIP3    H150908   0.248   6.452   2.665  0.1526  1.0625  0.5744
 9831TIP3    H250909   0.379   6.503   2.722  0.2679  0.2448  1.0574
 9832TIP3   OH250910   0.124   5.705  11.192 -0.0508 -0.3860  0.0607
 9832TIP3    H150911   0.077   5.623  11.206  0.1009 -0.5253 -0.2558
 9832TIP3    H250912   0.081   5.744  11.115 -1.5767  0.8711  1.4521
 9833TIP3   OH250913   6.331   3.757   4.175  0.0886  0.0379  0.1879
 9833TIP3    H150914   6.318   3.733   4.083 -0.5399  1.9864 -0.2834
 9833TIP3    H250915   6.425   3.741   4.190  0.3603  0.3642 -1.0207
 9834TIP3   OH250916   0.825   0.496  15.635  0.2254  0.4571  0.2850
 9834TIP3    H150917   0.750   0.438  15.622 -0.0098  0.3250  1.9492
 9834TIP3    H250918   0.893   0.439  15.671  0.1465  1.0825  1.4801
 9835TIP3   OH250919   1.693   0.497  11.540  0.1554  0.5698 -0.0356
 9835TIP3    H150920   1.783   0.490  11.507  1.1255  0.7351  2.3562
 9835TIP3    H250921   1.665   0.406  11.552  0.9545  0.4959  1.4866
 9836TIP3   OH250922   0.454   1.726  13.422  0.6285  0.0078  0.0272
 9836TIP3    H150923   0.508   1.752  13.497 -1.1511 -0.1108  1.4085
 9836TIP3    H250924   0.397   1.657  13.456  0.7660 -1.1105 -1.8571
 9837TIP3   OH250925   1.402   6.757  15.067 -0.0494  0.7069 -0.0073
 9837TIP3    H150926   1.354   6.772  14.985 -0.6914 -1.6763 -0.1454
 9837TIP3    H250927   1.491   6.786  15.048 -0.7326  2.4647 -0.7240
 9838TIP3   OH250928   1.068   5.655   1.858  0.2786  0.4169 -0.1278
 9838TIP3    H150929   1.156   5.617   1.858 -0.4051 -1.3027 -0.8278
 9838TIP3    H250930   1.066   5.710   1.780  1.2430  1.8321  0.8080
 9839TIP3   OH250931   1.044   3.220  13.979 -0.2601  0.0049 -0.0909
 9839TIP3    H150932   1.136   3.195  13.992 -0.2580  0.0814  0.0322
 9839TIP3    H250933   0.998   3.136  13.971 -0.3224 -0.0462  0.7840
 9840TIP3   OH250934   2.480   3.351  11.907  0.0194  0.4819 -0.0669
 9840TIP3    H150935   2.558   3.381  11.954 -0.5767  2.6802 -0.3759
 9840TIP3    H250936   2.491   3.385  11.818 -1.6619  1.5847  0.1117
 9841TIP3   OH250937   3.999   6.713   1.741  0.3512 -0.8059 -0.0730
 9841TIP3    H150938   4.017   6.757   1.824  0.5593 -1.8389  0.4388
 9841TIP3    H250939   4.042   6.629   1.749 -2.2514 -2.2399  0.0550
 9842TIP3   OH250940   0.131   3.132  15.744  0.2471 -0.4559  0.0715
 9842TIP3    H150941   0.180   3.148  15.825  0.4345 -1.8059  0.2579
 9842TIP3    H250942   0.060   3.197  15.745  2.0712  1.6560 -0.2778
 9843TIP3   OH250943   6.717   2.673  11.995  0.5259 -0.1029  1.0248
 9843TIP3    H150944   6.709   2.578  11.986  0.8476 -0.0302 -0.2530
 9843TIP3    H250945   6.760   2.701  11.914 -0.5561  1.2574  0.8889
 9844TIP3   OH250946   6.029   5.207  13.708 -0.1077 -0.4339  0.2848
 9844TIP3    H150947   6.039   5.267  13.782  0.2207 -1.0194  0.7256
 9844TIP3    H250948   5.974   5.254  13.646 -0.6899 -0.0702  1.0640
 9845TIP3   OH250949   3.062   0.467   6.298  0.1943 -0.1152 -0.5175
 9845TIP3    H150950   3.097   0.399   6.356  1.4021 -0.3806 -1.5097
 9845TIP3    H250951   2.990   0.425   6.251 -0.6320  0.0297  0.5826
 9846TIP3   OH250952   2.711   6.791   0.327  0.3888 -0.1802  0.3379
 9846TIP3    H150953   2.697   6.734   0.251  3.8005 -0.1630 -0.4803
 9846TIP3    H250954   2.682   6.877   0.297  2.5484  0.0251 -1.4203
 9847TIP3   OH250955   4.351   6.789  15.311 -0.0242 -0.1176 -0.3030
 9847TIP3    H150956   4.271   6.831  15.279 -0.8757 -1.3115  0.1836
 9847TIP3    H250957   4.363   6.713  15.254 -2.2840 -3.0295  2.6672
 9848TIP3   OH250958   1.924   3.365  11.510 -0.0906 -0.0182 -0.2275
 9848TIP3    H150959   1.936   3.305  11.584  1.6843  0.0247 -0.4263
 9848TIP3    H250960   1.921   3.309  11.433 -3.8427 -0.2351 -0.1038
 9849TIP3   OH250961   3.771   0.708   6.091  0.5198 -0.0096 -0.0883
 9849TIP3    H150962   3.805   0.795   6.113 -1.0713  0.5426  0.3420
 9849TIP3    H250963   3.848   0.652   6.087  1.6329  1.5055 -0.8058
 9850TIP3   OH250964   4.044   4.343  10.202 -0.0367 -0.3912 -0.0425
 9850TIP3    H150965   4.035   4.432  10.235 -0.8641 -1.1774  1.9703
 9850TIP3    H250966   4.122   4.308  10.245  0.7548 -0.4124 -1.4362
 9851TIP3   OH250967   5.015   1.877  15.965  0.5528  0.2905 -0.2783
 9851TIP3    H150968   5.038   1.857  16.056  0.5118  0.8251 -0.1510
 9851TIP3    H250969   4.930   1.919  15.970  0.0366 -0.6778 -0.6604
 9852TIP3   OH250970   2.017   2.918  15.626  0.0119 -0.1009  0.3843
 9852TIP3    H150971   2.074   2.887  15.697  0.6757 -0.0927 -0.1296
 9852TIP3    H250972   2.004   2.841  15.570  3.1200  0.8106 -1.8704
 9853TIP3   OH250973   2.739   0.513  12.892  0.1753  0.2974  0.5625
 9853TIP3    H150974   2.783   0.434  12.922  0.8017  0.5970  0.4619
 9853TIP3    H250975   2.655   0.514  12.939 -0.2609 -0.9104 -0.1447
 9854TIP3   OH250976   0.364   0.962  17.067 -0.4498 -0.0411 -0.3036
 9854TIP3    H150977   0.459   0.949  17.068 -0.5219 -0.6413 -0.9822
 9854TIP3    H250978   0.330   0.888  17.018 -1.5321 -1.5630  2.4987
 9855TIP3   OH250979   3.607   4.165   0.417 -0.1654  0.0668 -0.2697
 9855TIP3    H150980   3.556   4.085   0.432  0.2489 -0.5042 -1.7412
 9855TIP3    H250981   3.694   4.145   0.451  0.1894 -0.4572 -1.4490
 9856TIP3   OH250982   1.202   1.349  15.989  0.4588 -0.0929 -0.0809
 9856TIP3    H150983   1.276   1.300  15.954  0.5889  0.4291 -0.5398
 9856TIP3    H250984   1.152   1.376  15.911 -0.5402 -0.9416  0.2377
 9857TIP3   OH250985   2.349   4.609   1.666 -0.0426 -0.3057 -0.4015
 9857TIP3    H150986   2.366   4.522   1.702  0.7473  0.1451  0.3286
 9857TIP3    H250987   2.354   4.668   1.741 -0.9995  0.3268 -0.8209
 9858TIP3   OH250988   0.233   3.008   0.810 -0.1500  0.4196  0.4316
 9858TIP3    H150989   0.242   3.033   0.902  2.3010 -0.0322  0.3903
 9858TIP3    H250990   0.187   2.925   0.811 -0.1042  0.3992  1.2446
 9859TIP3   OH250991   4.362   5.344   2.695  0.0153  0.0749  0.2258
 9859TIP3    H150992   4.339   5.293   2.773  0.0886 -1.7635 -0.9190
 9859TIP3    H250993   4.457   5.354   2.701  0.2273 -1.3863 -0.3731
 9860TIP3   OH250994   1.065   1.085  15.101 -0.1597 -0.0171 -0.1521
 9860TIP3    H150995   1.141   1.041  15.139  0.2611  0.4276 -0.4774
 9860TIP3    H250996   0.997   1.076  15.167 -0.4751 -2.2410 -0.6848
 9861TIP3   OH250997   3.540   4.257   3.550 -0.3771  0.1006 -0.0662
 9861TIP3    H150998   3.507   4.197   3.483 -0.2554  2.1335 -2.0486
 9861TIP3    H250999   3.475   4.327   3.554 -0.1132  0.2933  1.6170
 9862TIP3   OH251000   5.163   2.987  16.255 -0.2535 -0.1338  0.0833
 9862TIP3    H151001   5.139   3.079  16.266  1.7372  0.6180 -1.1857
 9862TIP3    H251002   5.259   2.986  16.263 -0.3798 -2.6007  2.9822
 9863TIP3   OH251003   2.351   5.703  13.399 -0.6582 -0.2750  0.7202
 9863TIP3    H151004   2.277   5.752  13.435 -0.9291  1.0441 -1.4324
 9863TIP3    H251005   2.428   5.751  13.431 -0.9130  1.4210 -0.9904
 9864TIP3   OH251006   1.673   0.231  12.810 -0.0479 -0.1857  0.1875
 9864TIP3    H151007   1.732   0.256  12.881  0.1965  0.6121 -0.2800
 9864TIP3    H251008   1.585   0.245  12.846 -0.1706 -4.0439  1.8942
 9865TIP3   OH251009   6.581   2.711   4.447  0.3787 -0.3477  0.3971
 9865TIP3    H151010   6.491   2.679   4.435 -1.2385  3.8102 -0.2950
 9865TIP3    H251011   6.582   2.746   4.536  1.5012 -0.7451  0.5531
 9866TIP3   OH251012   3.351   4.982   1.734  0.4772 -0.1484  0.1309
 9866TIP3    H151013   3.274   5.037   1.746 -0.1534 -1.1138  0.6572
 9866TIP3    H251014   3.410   5.035   1.680 -0.7604  0.3992 -0.7322
 9867TIP3   OH251015   6.732   4.406  13.863  0.0296 -0.4475  0.2329
 9867TIP3    H151016   6.650   4.451  13.882 -0.9405 -1.9869 -0.0804
 9867TIP3    H251017   6.787   4.471  13.821 -1.3413  0.4115 -0.2945
 9868TIP3   OH251018   6.606   3.765   5.034  0.3265 -0.2361  0.6824
 9868TIP3    H151019   6.609   3.771   4.939 -1.8573  1.5583  0.6392
 9868TIP3    H251020   6.697   3.773   5.062  0.8030  1.9747 -1.1730
 9869TIP3   OH251021   3.015   2.991  14.583  0.1590  0.3353  0.1046
 9869TIP3    H151022   3.025   2.938  14.662  0.3653  2.1496  1.3589
 9869TIP3    H251023   2.993   2.928  14.514 -0.5436 -1.2529  1.7003
 9870TIP3   OH251024   1.058   2.970  14.256  0.6953 -0.1331  0.0239
 9870TIP3    H151025   0.975   3.018  14.246  0.9009  0.1373 -0.4504
 9870TIP3    H251026   1.118   3.033  14.296  0.4857 -0.5419  0.9926
 9871TIP3   OH251027   4.020   1.770   3.366  0.1149  0.2466  0.2081
 9871TIP3    H151028   4.095   1.800   3.417  0.2633  1.2808 -0.5865
 9871TIP3    H251029   4.042   1.681   3.340  1.6848  0.9890 -1.1423
 9872TIP3   OH251030   1.029   0.170  14.496 -0.2113  0.0145 -0.5260
 9872TIP3    H151031   0.973   0.094  14.479 -0.3639 -0.2992  1.1583
 9872TIP3    H251032   1.070   0.190  14.412  0.5871 -2.5383 -0.8136
 9873TIP3   OH251033   3.543   6.585   1.941 -0.2813 -0.8193  0.3479
 9873TIP3    H151034   3.581   6.572   2.029 -2.0648 -2.1541  0.9885
 9873TIP3    H251035   3.510   6.498   1.917 -0.2772 -0.3553 -1.4604
 9874TIP3   OH251036   0.173   1.684   4.825  0.4413  0.2715  0.0876
 9874TIP3    H151037   0.268   1.677   4.834  0.6603  0.7655 -1.5828
 9874TIP3    H251038   0.156   1.670   4.732 -1.1502 -0.0168  0.3945
 9875TIP3   OH251039   6.054   2.004  12.440 -0.3299 -0.1459 -0.1624
 9875TIP3    H151040   6.083   1.921  12.478  1.5277  0.1877 -0.7609
 9875TIP3    H251041   6.028   2.057  12.515 -0.9664 -1.0410  0.2701
 9876TIP3   OH251042   5.378   5.687  13.818 -0.3735 -0.2421 -0.0039
 9876TIP3    H151043   5.385   5.781  13.804 -1.6548  0.0362  1.0252
 9876TIP3    H251044   5.404   5.674  13.909  0.2364 -0.9555 -0.2697
 9877TIP3   OH251045   1.590   1.624  11.842  0.3446 -0.1113 -0.0234
 9877TIP3    H151046   1.664   1.684  11.851  0.1812 -0.1291  1.8013
 9877TIP3    H251047   1.621   1.543  11.881 -0.9824  0.2170  1.8145
 9878TIP3   OH251048   4.130   6.605   4.030 -0.7659  0.4204  0.1362
 9878TIP3    H151049   4.210   6.632   4.075 -1.5792  0.2355  1.7571
 9878TIP3    H251050   4.148   6.516   3.999  0.0739  0.8393 -0.6133
 9879TIP3   OH251051   4.985   3.733   1.685 -0.0552 -0.4958  0.1553
 9879TIP3    H151052   4.940   3.650   1.670  0.8882 -0.7855 -1.2748
 9879TIP3    H251053   4.943   3.795   1.624 -0.4344 -0.0213  0.8762
 9880TIP3   OH251054   3.370   2.340   3.113 -0.4359 -0.0299  0.6197
 9880TIP3    H151055   3.353   2.424   3.157  0.5674  0.4797  0.0629
 9880TIP3    H251056   3.382   2.363   3.021  3.5093 -0.2346  0.9451
 9881TIP3   OH251057   4.964   3.840  13.229 -0.7928 -0.3259 -0.4762
 9881TIP3    H151058   5.039   3.805  13.277 -0.3678  0.2894 -0.6775
 9881TIP3    H251059   4.916   3.762  13.199 -0.6494 -0.7148  0.2946
 9882TIP3   OH251060   1.798   0.523   5.816  0.6980  1.0389 -0.7844
 9882TIP3    H151061   1.786   0.564   5.902 -1.7308 -1.2083  0.0822
 9882TIP3    H251062   1.732   0.565   5.760  1.4975  1.6757 -1.2779
 9883TIP3   OH251063   5.740   0.855   4.216 -0.3125 -0.0815  0.7516
 9883TIP3    H151064   5.720   0.945   4.188 -0.9298 -0.2583  0.6156
 9883TIP3    H251065   5.713   0.852   4.308 -2.9780 -0.9190  0.0280
 9884TIP3   OH251066   3.137   1.353   4.929  0.2656 -0.3842 -0.4864
 9884TIP3    H151067   3.136   1.349   5.025 -0.4901  0.3250 -0.4496
 9884TIP3    H251068   3.229   1.358   4.906  0.4413 -0.1508  0.2341
 9885TIP3   OH251069   6.228   6.231   5.611 -0.0826 -0.3495  0.0660
 9885TIP3    H151070   6.139   6.265   5.607 -0.3030 -0.2363  3.2176
 9885TIP3    H251071   6.282   6.300   5.573 -1.1061  0.7335  0.5345
 9886TIP3   OH251072   5.978   1.753   2.942  0.6305 -0.9526  0.0251
 9886TIP3    H151073   5.991   1.658   2.940  1.2259 -0.8825  0.2404
 9886TIP3    H251074   6.067   1.789   2.938  0.3985 -0.3999 -0.2415
 9887TIP3   OH251075   2.681   3.857   0.255 -0.5416  0.2823  0.2602
 9887TIP3    H151076   2.646   3.928   0.201 -0.2873 -0.4584 -0.9096
 9887TIP3    H251077   2.609   3.795   0.262  0.5874 -1.5812 -2.7376
 9888TIP3   OH251078   1.132   1.619  17.160  0.2798 -0.7863 -0.0131
 9888TIP3    H151079   1.200   1.552  17.157 -0.9469 -2.2456  2.0255
 9888TIP3    H251080   1.072   1.596  17.089  0.2954 -1.3807  0.1620
 9889TIP3   OH251081   0.952   6.775  14.976 -0.1429 -0.9535  0.4645
 9889TIP3    H151082   0.955   6.685  15.007  1.7092 -0.6514  1.2639
 9889TIP3    H251083   0.962   6.828  15.056 -3.1494  0.0767  0.3151
 9890TIP3   OH251084   6.343   4.746   4.928  0.4444 -0.2596 -0.7876
 9890TIP3    H151085   6.265   4.787   4.965 -0.2159 -1.8244 -0.3745
 9890TIP3    H251086   6.311   4.691   4.857  1.2461 -0.4382 -1.0267
 9891TIP3   OH251087   2.842   2.373  15.811 -0.8421  0.3463  0.5287
 9891TIP3    H151088   2.879   2.311  15.874  0.8015 -0.2085 -0.8977
 9891TIP3    H251089   2.856   2.459  15.850 -0.1836 -0.0030  1.0752
 9892TIP3   OH251090   6.700   0.827  15.913 -0.0166 -0.3691 -0.2995
 9892TIP3    H151091   6.745   0.766  15.972 -0.6277 -0.6138 -0.0774
 9892TIP3    H251092   6.759   0.902  15.907 -0.4889  0.2284  1.6409
 9893TIP3   OH251093   6.239   3.530   2.018 -0.0187 -0.4980 -0.5946
 9893TIP3    H151094   6.196   3.573   1.944 -0.5572 -0.0439 -0.0262
 9893TIP3    H251095   6.177   3.538   2.090  1.7322  1.8679  0.8001
 9894TIP3   OH251096   0.858   1.637   3.921  0.7027 -0.2496 -0.4672
 9894TIP3    H151097   0.917   1.704   3.955  0.2674 -0.1160  0.0552
 9894TIP3    H251098   0.861   1.567   3.985  1.5025 -0.9384 -1.2439
 9895TIP3   OH251099   5.702   3.257   4.227  0.3187 -0.4853 -0.1349
 9895TIP3    H151100   5.750   3.174   4.221  1.9466  0.2816  1.4113
 9895TIP3    H251101   5.631   3.239   4.288  0.3675 -0.8542 -0.1818
 9896TIP3   OH251102   5.650   6.669  15.031 -0.0308  0.3701 -0.1608
 9896TIP3    H151103   5.727   6.671  14.974 -0.2980 -1.8256 -0.6878
 9896TIP3    H251104   5.676   6.720  15.108  2.4728 -1.3106  0.2310
 9897TIP3   OH251105   5.568   3.970  13.290  0.4050 -0.3871 -0.1589
 9897TIP3    H151106   5.606   3.969  13.202 -0.7986 -0.5874 -0.6927
 9897TIP3    H251107   5.637   4.009  13.345  1.2267 -0.3901 -1.1510
 9898TIP3   OH251108   0.552   0.972   5.145  0.4036  0.1825  0.1657
 9898TIP3    H151109   0.615   1.021   5.198  3.3832 -0.6286 -2.3009
 9898TIP3    H251110   0.484   1.036   5.124  1.2095  1.5991  1.6210
 9899TIP3   OH251111   1.301   3.367   3.605 -0.0035  0.3316 -0.2488
 9899TIP3    H151112   1.219   3.351   3.651 -1.2271 -1.6547 -2.8625
 9899TIP3    H251113   1.332   3.451   3.639 -2.2976  0.4040  1.9238
 9900TIP3   OH251114   5.626   1.257   2.103  0.4330 -0.8965 -0.1956
 9900TIP3    H151115   5.551   1.314   2.122  2.2207  1.3284  0.5407
 9900TIP3    H251116   5.675   1.303   2.035  2.2151 -1.2894  0.7797
 9901TIP3   OH251117   0.441   3.457  13.672  0.1990 -0.1175  0.1093
 9901TIP3    H151118   0.398   3.451  13.587  0.0527  2.7383 -0.1127
 9901TIP3    H251119   0.535   3.459  13.651  0.2026 -0.3645  0.0992
 9902TIP3   OH251120   5.821   1.383  10.543 -0.4428 -0.6556 -0.3812
 9902TIP3    H151121   5.771   1.307  10.572 -1.0742 -0.0176  0.2397
 9902TIP3    H251122   5.901   1.381  10.596  0.3333 -1.8174 -1.5526
 9903TIP3   OH251123   0.629   1.024  14.976 -0.5816 -0.4896  0.3382
 9903TIP3    H151124   0.671   0.949  14.934 -0.0197  0.1139 -0.1903
 9903TIP3    H251125   0.591   1.074  14.904 -1.3977 -0.5289  0.7283
 9904TIP3   OH251126   6.694   5.769   5.734 -0.5205  0.0037 -0.1129
 9904TIP3    H151127   6.704   5.720   5.815 -1.2671 -0.2154 -0.1439
 9904TIP3    H251128   6.748   5.847   5.746  1.8475 -1.4438 -0.6025
 9905TIP3   OH251129   4.849   4.903  14.742 -0.1482 -0.0864 -0.4574
 9905TIP3    H151130   4.875   4.995  14.752  0.2422 -0.4143  3.1415
 9905TIP3    H251131   4.775   4.893  14.803 -0.1655 -2.1681 -0.7489
 9906TIP3   OH251132   1.483   1.121  11.207  1.0336 -0.0757 -0.1845
 9906TIP3    H151133   1.490   1.026  11.198  1.6927 -0.0350 -0.1087
 9906TIP3    H251134   1.400   1.134  11.255 -0.7660 -0.4343 -2.9853
 9907TIP3   OH251135   0.643   5.876  12.725  0.5034 -0.1605  0.3158
 9907TIP3    H151136   0.734   5.849  12.738  1.2153  1.4175 -1.0283
 9907TIP3    H251137   0.619   5.834  12.642  0.2587  0.0068  0.3027
 9908TIP3   OH251138   4.996   3.522   3.066 -0.1530 -0.1777 -0.3130
 9908TIP3    H151139   4.960   3.610   3.081 -0.6456 -0.3732 -0.3175
 9908TIP3    H251140   4.943   3.486   2.995 -0.5584 -0.8170  0.2911
 9909TIP3   OH251141   1.881   5.457  16.602  0.0985  0.2500 -0.3757
 9909TIP3    H151142   1.851   5.412  16.681 -0.7657  1.6794  0.1341
 9909TIP3    H251143   1.807   5.451  16.542  0.0865  0.7678 -0.4095
 9910TIP3   OH251144   1.480   0.441  12.425 -0.0343 -0.4703  0.5778
 9910TIP3    H151145   1.428   0.383  12.480 -1.6359 -0.7951 -1.1407
 9910TIP3    H251146   1.436   0.438  12.340  0.7538  2.0445 -0.0055
 9911TIP3   OH251147   1.071   5.890   2.075  0.6699  0.4583  0.5809
 9911TIP3    H151148   1.127   5.814   2.063  0.7910  0.7734 -1.0739
 9911TIP3    H251149   1.128   5.965   2.060  0.7818  0.9618  3.1397
 9912TIP3   OH251150   0.817   6.245  13.785  0.7345 -0.4381 -0.2623
 9912TIP3    H151151   0.798   6.171  13.727 -0.6100 -0.5537  0.2907
 9912TIP3    H251152   0.905   6.272  13.760  1.2502 -2.1952 -0.5150
 9913TIP3   OH251153   4.101   2.841   5.966 -0.0466  0.5553 -0.4957
 9913TIP3    H151154   4.166   2.898   5.925  0.8465  1.4133  1.9639
 9913TIP3    H251155   4.136   2.823   6.053 -1.6551 -1.5278 -0.2060
 9914TIP3   OH251156   3.675   4.563  15.287  0.4104  0.1036 -0.0267
 9914TIP3    H151157   3.670   4.556  15.382 -0.0218 -0.8136 -0.1102
 9914TIP3    H251158   3.587   4.540  15.256  0.7139 -0.2212 -0.6725
 9915TIP3   OH251159   4.015   3.491  15.849 -0.1387 -0.1891  0.2344
 9915TIP3    H151160   4.080   3.499  15.779  1.4021 -2.9339  1.1680
 9915TIP3    H251161   4.032   3.565  15.907  0.2739  0.6700 -0.9445
 9916TIP3   OH251162   5.754   1.341   5.843 -0.8559  0.1468 -0.3570
 9916TIP3    H151163   5.782   1.250   5.850 -0.5528  0.3315  1.0970
 9916TIP3    H251164   5.695   1.354   5.918 -2.0749  0.7490 -1.3712
 9917TIP3   OH251165   1.355   0.775   1.872  0.4264  0.2480  0.3154
 9917TIP3    H151166   1.422   0.794   1.806  0.2766  0.3831  0.1981
 9917TIP3    H251167   1.283   0.737   1.821  0.0979  0.8547  0.3224
 9918TIP3   OH251168   5.628   2.063  13.109 -0.4085  0.2499  0.1993
 9918TIP3    H151169   5.714   2.023  13.105  1.3823  3.8128 -0.5405
 9918TIP3    H251170   5.632   2.122  13.185 -1.9936  0.8936 -0.1626
 9919TIP3   OH251171   5.084   4.190   4.265  0.6167  0.0300 -0.2902
 9919TIP3    H151172   4.996   4.223   4.280  0.6744 -0.1431  0.4468
 9919TIP3    H251173   5.078   4.096   4.283  0.6283 -0.2560 -1.6311
 9920TIP3   OH251174   5.627   6.364  16.516  0.1942  0.6464 -0.5579
 9920TIP3    H151175   5.561   6.404  16.573  0.7857  1.6048 -0.5215
 9920TIP3    H251176   5.688   6.322  16.577 -0.7131 -0.8184 -0.6143
 9921TIP3   OH251177   5.987   0.199  12.978 -0.0296 -0.4857 -0.1142
 9921TIP3    H151178   5.905   0.153  12.997 -1.3278  1.2144 -1.2900
 9921TIP3    H251179   5.980   0.282  13.024  2.3823 -1.3733  2.1603
 9922TIP3   OH251180   0.928   1.426   3.433  0.6862  0.2466  0.0406
 9922TIP3    H151181   0.867   1.377   3.489  1.0855 -0.2647  0.0326
 9922TIP3    H251182   0.963   1.361   3.373  1.0631  0.5851 -0.1116
 9923TIP3   OH251183   3.931   2.725   3.971  0.1840 -0.1534  0.3021
 9923TIP3    H151184   3.862   2.693   3.913  0.6820 -1.4000  0.3901
 9923TIP3    H251185   3.885   2.743   4.054 -0.4689  1.3541 -0.3366
 9924TIP3   OH251186   6.113   0.764  14.374  0.1460  0.1444 -0.1083
 9924TIP3    H151187   6.204   0.754  14.346  0.5666  1.1938  0.7935
 9924TIP3    H251188   6.096   0.690  14.432  0.7639  0.5027  0.5357
 9925TIP3   OH251189   5.844   0.074  12.712  0.1745 -0.0177 -0.1223
 9925TIP3    H151190   5.817   0.099  12.624 -0.8350  1.1579  0.5019
 9925TIP3    H251191   5.934   0.107  12.719 -0.7720  2.6364  0.3199
 9926TIP3   OH251192   0.781   1.577   2.964 -0.2470 -0.5055 -0.6007
 9926TIP3    H151193   0.768   1.629   2.885  1.0972  0.3051 -0.3137
 9926TIP3    H251194   0.771   1.639   3.036  0.2307 -0.8850 -0.2025
 9927TIP3   OH251195   1.026   5.790   1.608  0.0814 -0.4191 -0.7548
 9927TIP3    H151196   0.983   5.772   1.524  1.1557 -1.6978 -1.0714
 9927TIP3    H251197   0.964   5.845   1.655 -2.6296 -3.2994 -0.5855
 9928TIP3   OH251198   2.572   6.028   0.675 -0.1848  0.0212 -0.4832
 9928TIP3    H151199   2.566   6.082   0.596 -0.7218  0.4487 -0.1607
 9928TIP3    H251200   2.587   5.939   0.642 -1.0386  0.0905 -1.0958
 9929TIP3   OH251201   2.495   6.488   2.275  0.4409 -0.1994 -0.0360
 9929TIP3    H151202   2.509   6.395   2.258  1.9214 -0.0810  0.4294
 9929TIP3    H251203   2.402   6.494   2.300 -0.1890 -1.2376 -1.9446
 9930TIP3   OH251204   4.998   4.897  15.861 -0.3673 -0.8288 -1.1734
 9930TIP3    H151205   4.984   4.992  15.869  1.4232 -0.6162 -0.0837
 9930TIP3    H251206   5.089   4.888  15.834 -0.2561 -2.2445 -0.4271
 9931TIP3   OH251207   0.616   6.598   5.878 -0.2642 -0.4569 -0.2464
 9931TIP3    H151208   0.708   6.623   5.881  0.2455 -2.2540  1.1031
 9931TIP3    H251209   0.575   6.644   5.951  0.0371 -1.2124  0.4168
 9932TIP3   OH251210   1.903   2.105  14.540  0.4624 -0.3601 -0.2636
 9932TIP3    H151211   1.861   2.020  14.531  1.1063 -0.6122 -0.9306
 9932TIP3    H251212   1.856   2.163  14.480  0.2018 -0.3026 -0.0096
 9933TIP3   OH251213   6.138   3.921   4.790 -0.0990 -0.1707  0.4243
 9933TIP3    H151214   6.143   3.856   4.720 -1.4318  1.1462 -0.9588
 9933TIP3    H251215   6.049   3.956   4.785  0.8827  2.5580  0.3444
 9934TIP3   OH251216   3.759   0.509   3.490 -0.0813 -0.0905  0.3508
 9934TIP3    H151217   3.707   0.430   3.506 -0.6259 -0.2774 -1.9898
 9934TIP3    H251218   3.820   0.513   3.564 -1.0508 -1.8354  1.3152
 9935TIP3   OH251219   6.598   1.246  11.750  0.2920 -0.0773 -0.5723
 9935TIP3    H151220   6.527   1.199  11.705  0.6558 -1.3112  0.0970
 9935TIP3    H251221   6.556   1.324  11.786 -1.0191 -1.3359  0.7740
 9936TIP3   OH251222   3.625   5.870   4.071  0.4425  0.0761 -0.1732
 9936TIP3    H151223   3.630   5.780   4.104 -1.1323  0.1362  0.3056
 9936TIP3    H251224   3.651   5.864   3.979  0.9917 -0.7570  0.0308
 9937TIP3   OH251225   6.154   6.119  16.406  0.1856  0.3575 -0.4075
 9937TIP3    H151226   6.062   6.128  16.432  0.6229  5.0963  0.4272
 9937TIP3    H251227   6.150   6.083  16.317 -2.2950 -1.2405  0.2443
 9938TIP3   OH251228   6.551   0.788  15.695  0.6200 -0.2745  0.0654
 9938TIP3    H151229   6.616   0.776  15.625  0.6883  0.6847 -0.0517
 9938TIP3    H251230   6.598   0.835  15.763 -0.5124  2.5368 -0.9649
 9939TIP3   OH251231   3.157   3.522  14.972 -0.0289 -0.3535  0.0831
 9939TIP3    H151232   3.168   3.467  14.894 -1.9379  1.1121 -1.3189
 9939TIP3    H251233   3.245   3.528  15.009  0.7712 -1.8498 -1.4379
 9940TIP3   OH251234   1.088   1.736   2.838 -0.3577 -0.2189 -0.0963
 9940TIP3    H151235   1.007   1.780   2.865  0.4610  1.2001  0.1967
 9940TIP3    H251236   1.155   1.774   2.896  0.7689 -0.1337 -1.4150
 9941TIP3   OH251237   0.473   6.545  13.218  0.4024  0.2042 -0.4329
 9941TIP3    H151238   0.539   6.487  13.180  0.9099  1.2627 -1.2193
 9941TIP3    H251239   0.390   6.516  13.178  0.5522 -0.3713 -0.3393
 9942TIP3   OH251240   0.828   3.174  15.697  0.1701 -0.1981  0.4033
 9942TIP3    H151241   0.887   3.248  15.682  0.8835 -1.0972 -1.5911
 9942TIP3    H251242   0.807   3.179  15.790  0.0410  2.5885  0.3156
 9943TIP3   OH251243   2.720   4.456  14.829 -0.3166  0.3654  0.0526
 9943TIP3    H151244   2.732   4.377  14.883 -0.9513  0.1779 -0.0672
 9943TIP3    H251245   2.757   4.527  14.882 -1.6882  0.3196  1.1451
 9944TIP3   OH251246   2.074   1.909  10.990 -0.1241 -0.1903 -0.0459
 9944TIP3    H151247   2.024   1.835  10.954 -2.0410  0.3412  1.3514
 9944TIP3    H251248   2.072   1.975  10.921  1.7495 -1.4419 -1.3750
 9945TIP3   OH251249   3.717   2.951   2.989  0.3994 -0.4739  0.1105
 9945TIP3    H151250   3.764   3.031   3.010  0.2574 -0.4028  0.1613
 9945TIP3    H251251   3.767   2.911   2.918 -0.2575  0.3358 -0.8348
 9946TIP3   OH251252   2.124   3.043   6.042  0.0651  0.3169 -0.3469
 9946TIP3    H151253   2.049   3.027   6.098 -0.3389  0.3919 -0.8556
 9946TIP3    H251254   2.188   3.087   6.098  1.3515 -3.1634  1.2456
 9947TIP3   OH251255   2.080   2.184   2.700  0.4658  0.5783 -0.1580
 9947TIP3    H151256   2.085   2.280   2.699 -1.5799  0.7808  1.4400
 9947TIP3    H251257   2.029   2.162   2.623  1.8145  0.6589 -1.1020
 9948TIP3   OH251258   1.332   2.129  15.545  0.0604  0.3502 -0.0977
 9948TIP3    H151259   1.333   2.210  15.597  1.6811  0.3083 -0.0353
 9948TIP3    H251260   1.300   2.062  15.606 -0.4354  0.7575  0.1050
 9949TIP3   OH251261   2.500   0.699  16.232 -0.0280 -0.5516 -0.2087
 9949TIP3    H151262   2.420   0.682  16.282 -0.0486  1.3881  0.5032
 9949TIP3    H251263   2.482   0.780  16.184  2.0497  0.9322  1.3368
 9950TIP3   OH251264   1.391   0.185   5.710 -0.2997 -0.5871  0.2509
 9950TIP3    H151265   1.296   0.191   5.720 -0.5511  0.3348 -2.0312
 9950TIP3    H251266   1.421   0.276   5.717  0.0864 -0.5620 -1.2464
 9951TIP3   OH251267   5.015   5.072   3.713  0.6515  0.0888  0.1146
 9951TIP3    H151268   5.017   5.162   3.681 -0.8857 -0.0003 -0.3091
 9951TIP3    H251269   4.958   5.026   3.652  2.0211 -1.3728 -0.1196
 9952TIP3   OH251270   1.528   5.865  13.643 -0.5322  0.1418 -0.4507
 9952TIP3    H151271   1.440   5.832  13.627 -0.2138 -1.5794  1.0007
 9952TIP3    H251272   1.584   5.788  13.639  0.9942  1.2292 -1.5726
 9953TIP3   OH251273   1.124   5.747  10.992 -0.3346  0.4126 -0.1907
 9953TIP3    H151274   1.036   5.717  10.969  0.1736 -0.0676 -1.6295
 9953TIP3    H251275   1.167   5.669  11.029  0.1622  0.0117 -1.5414
 9954TIP3   OH251276   4.868   1.606  12.183  0.0184 -0.2264  0.2269
 9954TIP3    H151277   4.803   1.582  12.249  1.5095  1.9645  2.7135
 9954TIP3    H251278   4.829   1.681  12.138  0.9184  1.5088  2.1596
 9955TIP3   OH251279   3.146   3.951  11.877  0.2323 -0.0754  0.7709
 9955TIP3    H151280   3.130   4.021  11.940  1.0667 -0.9363  1.9947
 9955TIP3    H251281   3.233   3.971  11.840 -0.2971  0.4833 -0.2208
 9956TIP3   OH251282   2.514   1.671   3.941  0.4069  0.0924  0.0576
 9956TIP3    H151283   2.516   1.577   3.961 -2.2813  0.2098  1.3130
 9956TIP3    H251284   2.437   1.682   3.886 -1.1365  1.8966  2.3958
 9957TIP3   OH251285   0.629   4.946   4.543 -0.2922 -0.2255  0.6437
 9957TIP3    H151286   0.641   4.904   4.628  2.0111  0.3267  0.6641
 9957TIP3    H251287   0.594   4.877   4.486 -2.0444 -0.5525  2.0345
 9958TIP3   OH251288   3.373   5.037  17.176 -0.7141 -0.1344  0.2008
 9958TIP3    H151289   3.346   5.086  17.253 -0.5784 -0.3607  0.3933
 9958TIP3    H251290   3.326   4.954  17.183 -0.7665 -0.1223 -0.0047
 9959TIP3   OH251291   2.894   5.319   0.273 -0.1043 -0.1884 -0.0775
 9959TIP3    H151292   2.851   5.359   0.349  1.4948 -0.0829  0.8199
 9959TIP3    H251293   2.933   5.392   0.225  0.1042 -0.3852 -0.2087
 9960TIP3   OH251294   5.519   1.738  12.278 -0.2870 -0.8793  0.0012
 9960TIP3    H151295   5.451   1.805  12.267  0.4898  0.1847  1.3717
 9960TIP3    H251296   5.556   1.727  12.190 -1.4717 -0.6823 -0.5485
 9961TIP3   OH251297   1.669   4.648  17.118 -0.3112 -0.7229 -0.2659
 9961TIP3    H151298   1.692   4.618  17.206  3.4643  1.9586 -0.1107
 9961TIP3    H251299   1.750   4.637  17.067 -1.0888  1.6681 -2.2164
 9962TIP3   OH251300   1.746   4.632  16.574 -0.0673  0.1368  0.2764
 9962TIP3    H151301   1.718   4.548  16.608 -1.4026  1.0743  1.6125
 9962TIP3    H251302   1.819   4.658  16.630  0.6817 -0.3255 -0.4536
 9963TIP3   OH251303   1.882   6.409  14.982 -0.0225  0.3735  0.5517
 9963TIP3    H151304   1.894   6.355  14.904  0.2180  1.0022  0.1475
 9963TIP3    H251305   1.969   6.416  15.021 -0.0582  0.4396  0.6203
 9964TIP3   OH251306   5.238   6.758   1.616 -0.6080  0.5990  0.4389
 9964TIP3    H151307   5.180   6.698   1.663  0.6621 -0.6352  0.4968
 9964TIP3    H251308   5.196   6.844   1.625 -2.3474 -0.2190  0.5645
 9965TIP3   OH251309   4.860   0.392  17.168  0.1189 -0.1001  0.4233
 9965TIP3    H151310   4.948   0.354  17.162  0.3937 -0.0025  2.9512
 9965TIP3    H251311   4.808   0.338  17.108  2.0470  0.5787 -2.0836
 9966TIP3   OH251312   4.905   0.134  15.996  0.3725 -0.3887 -0.2280
 9966TIP3    H151313   4.818   0.132  15.956  0.8267  1.7155 -1.4919
 9966TIP3    H251314   4.889   0.152  16.089 -0.5616 -1.7527 -0.0900
 9967TIP3   OH251315   5.915   1.720  16.005  0.1721 -0.0137 -0.5959
 9967TIP3    H151316   5.995   1.729  15.953  0.5864  0.6361  0.1134
 9967TIP3    H251317   5.873   1.805  16.000  0.2731  0.0918  0.1998
 9968TIP3   OH251318   3.536   2.742  12.723 -0.0318  0.2893 -0.4096
 9968TIP3    H151319   3.514   2.683  12.794  1.1017  0.9240  0.5056
 9968TIP3    H251320   3.632   2.737  12.717  0.0567  1.7489 -0.5516
 9969TIP3   OH251321   5.588   6.419  16.147  0.3803 -0.7945  0.3107
 9969TIP3    H151322   5.630   6.489  16.198  0.9916  0.2775 -1.5685
 9969TIP3    H251323   5.496   6.443  16.145  0.3627 -0.8010  0.8169
 9970TIP3   OH251324   5.519   3.499   3.025 -0.1412  0.3005  0.1339
 9970TIP3    H151325   5.442   3.481   3.079 -0.7076  0.3814 -0.6298
 9970TIP3    H251326   5.584   3.535   3.085 -1.0974  1.3092  0.5815
 9971TIP3   OH251327   6.672   3.307   4.377  0.0111 -0.0265 -0.2583
 9971TIP3    H151328   6.596   3.339   4.425  0.3314  0.9889 -0.4106
 9971TIP3    H251329   6.640   3.294   4.288  0.2724  1.4881 -0.5950
 9972TIP3   OH251330   1.662   4.156   2.690  0.6382  0.0610 -0.5638
 9972TIP3    H151331   1.682   4.065   2.667 -0.3398 -0.6906  1.3263
 9972TIP3    H251332   1.703   4.168   2.776  0.0965  1.1619 -0.4541
 9973TIP3   OH251333   2.661   3.783  11.961  0.2509 -0.3572 -0.3852
 9973TIP3    H151334   2.708   3.740  11.890 -1.4737 -0.7074 -1.3693
 9973TIP3    H251335   2.700   3.748  12.041  1.2584 -1.0409 -1.1604
 9974TIP3   OH251336   2.422   3.329  13.055 -0.2880 -0.5346  0.0688
 9974TIP3    H151337   2.482   3.399  13.030 -0.3200 -0.7567 -0.6316
 9974TIP3    H251338   2.337   3.373  13.063 -0.4871 -0.6462 -1.2643
 9975TIP3   OH251339   2.129   4.877   1.935  0.2524  0.3700 -0.0913
 9975TIP3    H151340   2.145   4.786   1.961 -0.9127 -0.0855 -0.8870
 9975TIP3    H251341   2.071   4.911   2.002  1.2100  0.7560  0.5681
 9976TIP3   OH251342   5.847   3.523  10.750  0.0390  0.1561 -0.2682
 9976TIP3    H151343   5.892   3.454  10.701 -0.1587  0.4287 -0.8484
 9976TIP3    H251344   5.776   3.550  10.692  2.6231  3.9185 -2.0980
 9977TIP3   OH251345   0.418   3.308  14.236  0.4240 -0.0931 -0.2844
 9977TIP3    H151346   0.432   3.330  14.328  1.4603  0.3015 -0.5304
 9977TIP3    H251347   0.491   3.349  14.190 -1.0449  1.2238 -1.5131
 9978TIP3   OH251348   0.622   5.313  14.183 -0.3334 -0.0767 -0.3828
 9978TIP3    H151349   0.708   5.337  14.218 -0.1375 -0.6679 -0.4454
 9978TIP3    H251350   0.603   5.381  14.118  0.2855 -0.1710 -0.6758
 9979TIP3   OH251351   1.875   5.263   5.810 -0.2814 -0.0549 -0.0080
 9979TIP3    H151352   1.926   5.338   5.778  3.1843 -2.3270 -0.4210
 9979TIP3    H251353   1.842   5.221   5.730 -0.8091  0.1359  0.1106
 9980TIP3   OH251354   3.722   4.345  15.096  0.3926  0.4106 -0.4702
 9980TIP3    H151355   3.816   4.338  15.082  0.6284  2.4527 -0.1992
 9980TIP3    H251356   3.709   4.433  15.130 -1.6643  0.2816 -0.7721
 9981TIP3   OH251357   4.214   4.096  12.061  0.0742 -0.8099 -0.0557
 9981TIP3    H151358   4.304   4.092  12.094 -0.6775 -0.9463  2.1214
 9981TIP3    H251359   4.189   4.188  12.068 -0.3188 -0.9477  0.4356
 9982TIP3   OH251360   2.352   3.461   5.398 -0.5558 -0.3945 -0.0990
 9982TIP3    H151361   2.340   3.492   5.487 -0.0760  0.2021 -0.2368
 9982TIP3    H251362   2.293   3.386   5.390 -0.9400 -0.1664  0.5722
 9983TIP3   OH251363   2.232   5.708   1.769  0.0423  0.1670  0.3401
 9983TIP3    H151364   2.245   5.613   1.776 -0.5468  0.2180  2.6922
 9983TIP3    H251365   2.304   5.738   1.714  0.5027 -1.5767 -0.0603
 9984TIP3   OH251366   2.817   0.624  14.976  0.2683 -0.2114  0.2846
 9984TIP3    H151367   2.805   0.542  15.025 -1.4297 -0.3678 -0.3536
 9984TIP3    H251368   2.769   0.689  15.027  1.0488  0.2705  0.4237
 9985TIP3   OH251369   5.155   0.575   5.952 -0.0352  0.0381  0.0865
 9985TIP3    H151370   5.152   0.523   5.871 -1.0481  1.3966 -0.8123
 9985TIP3    H251371   5.180   0.513   6.020 -1.0169 -1.5848 -0.9569
 9986TIP3   OH251372   2.856   0.500   4.597 -0.1910  0.6366 -0.2775
 9986TIP3    H151373   2.875   0.445   4.520  1.2863  0.4665  0.1718
 9986TIP3    H251374   2.828   0.584   4.560  0.7516  0.6434 -1.0210
 9987TIP3   OH251375   0.212   2.763  17.069 -0.2201  0.3513  0.3266
 9987TIP3    H151376   0.148   2.827  17.100 -0.4550 -0.4196  1.5134
 9987TIP3    H251377   0.259   2.736  17.148 -0.4362 -1.2571 -0.0571
 9988TIP3   OH251378   2.478   6.434  14.566 -0.4443 -0.0414 -0.2660
 9988TIP3    H151379   2.406   6.468  14.619 -0.4257  1.6907 -1.2713
 9988TIP3    H251380   2.557   6.473  14.604 -0.2975  0.0928 -0.7042
 9989TIP3   OH251381   6.443   6.687  16.381  0.2108 -0.2750  0.0998
 9989TIP3    H151382   6.351   6.693  16.357 -0.1375 -2.3478  0.7427
 9989TIP3    H251383   6.444   6.681  16.476  1.1134  0.9159  0.1916
 9990TIP3   OH251384   0.758   5.570  15.197  0.2372 -0.4324  0.4090
 9990TIP3    H151385   0.820   5.514  15.243  1.2784 -0.4029 -0.8700
 9990TIP3    H251386   0.710   5.616  15.266  0.1096 -2.0900  1.4593
 9991TIP3   OH251387   2.392   4.076  11.351 -0.1202 -0.2802  0.1218
 9991TIP3    H151388   2.420   4.020  11.278  0.5882  1.8768 -1.3424
 9991TIP3    H251389   2.298   4.060  11.359 -0.0209 -1.2889 -0.5716
 9992TIP3   OH251390   4.858   2.661  13.113  0.6055 -0.1340  0.2225
 9992TIP3    H151391   4.867   2.585  13.170  0.8781  0.3358  0.8210
 9992TIP3    H251392   4.934   2.715  13.134  0.4077  0.3064 -0.1885
 9993TIP3   OH251393   4.952   3.629   4.366 -0.4824 -0.0821 -0.5942
 9993TIP3    H151394   5.039   3.608   4.333 -1.4791 -0.7824 -3.0332
 9993TIP3    H251395   4.932   3.715   4.329 -0.9277 -0.0198 -0.2251
 9994TIP3   OH251396   5.159   4.512  14.738 -0.0349 -0.2642 -0.6663
 9994TIP3    H151397   5.149   4.434  14.793  1.1226  0.6206  0.8922
 9994TIP3    H251398   5.072   4.553  14.738 -0.3963 -1.0223 -0.6741
 9995TIP3   OH251399   4.307   6.746  16.342 -0.2485  0.2978  0.2894
 9995TIP3    H151400   4.398   6.771  16.333  0.2909 -0.9765  1.7755
 9995TIP3    H251401   4.262   6.826  16.368  0.7510  0.5861  1.1988
 9996TIP3   OH251402   0.470   5.853  17.176 -0.1423  0.5583 -0.1585
 9996TIP3    H151403   0.560   5.880  17.198  0.1701  0.1196 -0.8655
 9996TIP3    H251404   0.459   5.881  17.085 -0.3719 -0.2691 -0.3920
 9997TIP3   OH251405   4.157   4.444  15.631 -0.0963  0.2039 -0.0020
 9997TIP3    H151406   4.105   4.418  15.707 -0.1302  1.0809  0.2737
 9997TIP3    H251407   4.221   4.373  15.621  0.0842  0.2056  1.0034
 9998TIP3   OH251408   6.225   0.695   2.977  0.5207  0.1170 -0.5854
 9998TIP3    H151409   6.308   0.661   3.010  1.9229  0.3129 -3.5722
 9998TIP3    H251410   6.170   0.618   2.966  0.5781 -0.1162  0.6654
 9999TIP3   OH251411   2.877   5.039  16.192 -0.0709 -0.1179  0.1018
 9999TIP3    H151412   2.946   5.070  16.133 -0.8042  0.9767 -0.2107
 9999TIP3    H251413   2.908   5.061  16.280  0.9738 -1.6502  0.1439
10000TIP3   OH251414   1.120   6.760  15.742 -0.4665  0.6455 -0.6855
10000TIP3    H151415   1.062   6.832  15.717 -0.9640  0.5767  0.2263
10000TIP3    H251416   1.089   6.686  15.691  0.0677  1.0804 -1.6535
10001TIP3   OH251417   6.337   3.285  11.675  0.3868  0.4611  0.2017
10001TIP3    H151418   6.390   3.263  11.752 -0.4649  0.9929  0.9555
10001TIP3    H251419   6.401   3.310  11.609  1.2160 -1.2841  0.2813
10002TIP3   OH251420   0.022   0.628  13.921 -0.0780 -0.4178 -0.2739
10002TIP3    H151421   0.045   0.536  13.922  0.7615 -0.2121  0.9301
10002TIP3    H251422  -0.010   0.646  14.010 -0.3725  0.4186 -0.5360
10003TIP3   OH251423   5.506   3.324   0.841  0.0217 -0.4044  0.2557
10003TIP3    H151424   5.453   3.356   0.914 -0.2046  1.1880 -0.5543
10003TIP3    H251425   5.455   3.252   0.804 -1.8134  1.3190 -0.7261
10004TIP3   OH251426   1.454   5.601  11.133 -0.2817 -0.0709  0.4515
10004TIP3    H151427   1.378   5.544  11.137 -0.4306 -0.5741 -4.2226
10004TIP3    H251428   1.417   5.689  11.126 -0.3436 -0.1185  0.1863
10005TIP3   OH251429   3.468   0.795  15.652 -0.4477  0.2623 -0.6267
10005TIP3    H151430   3.562   0.803  15.638 -0.5512  0.5807 -1.1769
10005TIP3    H251431   3.447   0.707  15.620  0.2836 -1.4753  3.1401
10006TIP3   OH251432   0.515   1.731  14.006  0.2782  0.0633 -0.2530
10006TIP3    H151433   0.582   1.666  13.983  0.4161  0.1344 -0.0517
10006TIP3    H251434   0.442   1.712  13.946 -0.1065 -0.9701  0.5202
10007TIP3   OH251435   5.618   2.257   2.451 -0.1608  0.2873 -0.3819
10007TIP3    H151436   5.686   2.301   2.503 -1.1433  0.1283  1.1133
10007TIP3    H251437   5.588   2.324   2.390 -0.3674  1.1388  0.6219
10008TIP3   OH251438   3.999   3.272   2.862  0.0527  0.0789 -0.0704
10008TIP3    H151439   4.012   3.182   2.892 -0.6430 -0.2588 -0.7372
10008TIP3    H251440   3.908   3.292   2.886 -0.0354  0.3256 -0.5960
10009TIP3   OH251441   2.857   2.165  16.486  0.1697 -0.0198  0.6207
10009TIP3    H151442   2.767   2.137  16.468 -1.1246  1.4144  4.0495
10009TIP3    H251443   2.910   2.085  16.475 -1.8901 -1.4810  0.8162
10010TIP3   OH251444   4.293   1.585  12.003  0.4357 -0.0004  0.4639
10010TIP3    H151445   4.322   1.624  12.086 -0.4869  0.5872  0.5187
10010TIP3    H251446   4.202   1.613  11.994  0.0073 -1.4690  0.0882
10011TIP3   OH251447   2.017   3.205  11.726  0.2444 -0.3653  0.2225
10011TIP3    H151448   1.986   3.117  11.704  2.3959 -1.2965  0.6820
10011TIP3    H251449   2.040   3.200  11.818 -0.1602  0.8773  0.4080
10012TIP3   OH251450   3.151   0.371   0.406 -0.2904  0.4413  0.2090
10012TIP3    H151451   3.139   0.462   0.433 -1.1768  0.4774 -0.2748
10012TIP3    H251452   3.089   0.358   0.334 -0.1929 -0.5549  0.2821
10013TIP3   OH251453   6.607   0.377   1.000 -0.2715 -0.5491 -0.6829
10013TIP3    H151454   6.560   0.435   1.061 -0.3964 -2.5772  1.2607
10013TIP3    H251455   6.689   0.423   0.983 -0.0533 -0.0517  1.3593
10014TIP3   OH251456   4.524   3.744   5.687  0.0573  0.5878  0.3855
10014TIP3    H151457   4.591   3.811   5.673  1.5234 -0.3745  2.3200
10014TIP3    H251458   4.567   3.662   5.665  0.2286 -0.2482  3.4304
10015TIP3   OH251459   1.441   3.965   2.279 -0.6705  0.0552  0.3306
10015TIP3    H151460   1.402   4.005   2.357 -2.4730 -0.2654 -0.3482
10015TIP3    H251461   1.444   3.872   2.299  1.2211  0.2241  0.9587
10016TIP3   OH251462   2.499   5.882   4.373  0.0834 -0.1058 -0.4303
10016TIP3    H151463   2.453   5.929   4.442 -1.1348 -1.5374 -0.2044
10016TIP3    H251464   2.506   5.944   4.301 -1.6502  0.3777 -0.2165
10017TIP3   OH251465   0.939   4.840   3.870 -0.0241 -0.0519  0.7642
10017TIP3    H151466   0.977   4.925   3.892  1.3313 -0.1243 -1.1045
10017TIP3    H251467   0.990   4.777   3.921  0.9775  0.0358 -0.0964
10018TIP3   OH251468   4.851   5.965  16.571  0.4721  0.0256  0.4826
10018TIP3    H151469   4.860   5.953  16.476 -1.8146 -0.6848  0.3030
10018TIP3    H251470   4.839   5.876  16.605 -2.2825  0.4842  0.9338
10019TIP3   OH251471   2.066   1.545   5.438  0.1019  0.2639  0.5076
10019TIP3    H151472   2.153   1.508   5.449 -0.3526 -0.7407  0.8155
10019TIP3    H251473   2.035   1.561   5.527 -1.3920 -2.7017  0.6517
10020TIP3   OH251474   1.904   3.294  12.090 -0.0602  0.0079 -0.1368
10020TIP3    H151475   1.847   3.255  12.155  0.9158  0.9906  1.3945
10020TIP3    H251476   1.911   3.386  12.116  1.5426  0.1044 -0.7325
10021TIP3   OH251477   1.814   6.189  12.390  0.3811 -0.4694 -0.1283
10021TIP3    H151478   1.745   6.140  12.344 -1.0739  2.4245 -1.3832
10021TIP3    H251479   1.772   6.273  12.411  2.8337  0.4819  1.3155
10022TIP3   OH251480   1.499   6.592   3.285 -0.1560  0.0956  0.4713
10022TIP3    H151481   1.438   6.645   3.234  0.8359  1.2680  0.4841
10022TIP3    H251482   1.563   6.654   3.320  2.2074 -1.2970 -1.1286
10023TIP3   OH251483   3.840   4.135  12.997 -0.0168 -0.5331 -0.1547
10023TIP3    H151484   3.890   4.138  12.915 -1.0505 -0.6302 -0.7960
10023TIP3    H251485   3.841   4.043  13.022  0.6430 -0.4471  0.1738
10024TIP3   OH251486   5.057   2.919   4.093  0.5313 -0.0876 -0.2394
10024TIP3    H151487   4.983   2.979   4.081  0.4563 -0.3697 -1.3420
10024TIP3    H251488   5.045   2.883   4.181 -0.2549  0.3877 -0.1378
10025TIP3   OH251489   0.245   6.076   3.144 -0.5505  0.2909  0.9577
10025TIP3    H151490   0.282   5.991   3.120 -0.9242  0.0294  1.3064
10025TIP3    H251491   0.234   6.072   3.239 -1.7396  0.2498  0.8278
10026TIP3   OH251492   6.318   0.420   6.034 -0.0530  0.6421 -0.6551
10026TIP3    H151493   6.364   0.370   5.967  0.1941 -1.2380  0.8275
10026TIP3    H251494   6.234   0.375   6.044 -0.1738  1.0269  0.1352
10027TIP3   OH251495   2.455   5.285  15.869 -0.0168  0.4024 -0.0548
10027TIP3    H151496   2.496   5.206  15.904 -1.0083 -0.6427 -1.1479
10027TIP3    H251497   2.488   5.292  15.780 -2.0570 -0.4751 -0.9732
10028TIP3   OH251498   5.308   1.644   4.452  0.6650 -0.1098 -0.5671
10028TIP3    H151499   5.228   1.692   4.431  0.3118 -0.3267  0.2438
10028TIP3    H251500   5.280   1.552   4.458  0.5460  0.0018  1.5974
10029TIP3   OH251501   2.207   0.645   6.860  0.6346  0.5161 -0.6314
10029TIP3    H151502   2.133   0.618   6.915  0.3126  1.9856 -0.3164
10029TIP3    H251503   2.215   0.574   6.795 -0.1213 -0.3629  0.1978
10030TIP3   OH251504   0.301   3.412  16.259 -0.1722 -0.1079  0.2772
10030TIP3    H151505   0.272   3.470  16.328 -1.2921 -0.7996  0.4098
10030TIP3    H251506   0.262   3.327  16.280  2.2348 -1.2158  0.6508
10031TIP3   OH251507   0.200   2.889  13.278  0.5067 -0.2038  0.0899
10031TIP3    H151508   0.117   2.881  13.325  0.4290 -2.1873 -0.2962
10031TIP3    H251509   0.186   2.960  13.216 -1.0298 -0.6991 -0.1763
10032TIP3   OH251510   4.856   6.282  14.177  0.2413  0.7635  0.1060
10032TIP3    H151511   4.914   6.217  14.216 -1.3843 -0.7738  0.0765
10032TIP3    H251512   4.860   6.356  14.237  3.0359  1.1932 -0.4632
10033TIP3   OH251513   4.214   3.856  15.289 -0.1944  0.2574 -0.0380
10033TIP3    H151514   4.224   3.941  15.331  0.3443  0.0848  0.1912
10033TIP3    H251515   4.150   3.871  15.219  1.6993  1.4424 -1.6276
10034TIP3   OH251516   3.596   5.059  15.702 -0.5387 -0.1502  0.7786
10034TIP3    H151517   3.669   5.091  15.756  1.0185 -2.4453  0.2072
10034TIP3    H251518   3.595   4.965  15.718 -1.5488 -0.5705 -1.4363
10035TIP3   OH251519   1.033   1.020  11.580  0.3337  0.0017  0.2530
10035TIP3    H151520   1.030   1.061  11.666  1.5251 -1.0427  0.8234
10035TIP3    H251521   1.109   1.059  11.537 -1.2058  1.7487 -1.0167
10036TIP3   OH251522   1.843   3.864   2.282 -0.3055 -0.0964  0.6036
10036TIP3    H151523   1.768   3.919   2.307  0.7186  1.1965  0.9312
10036TIP3    H251524   1.851   3.875   2.187  1.1931  2.0901  0.9272
10037TIP3   OH251525   6.763   1.488   6.322  0.1247  0.5811 -0.2721
10037TIP3    H151526   6.769   1.411   6.266 -0.8428  0.0606  0.3007
10037TIP3    H251527   6.833   1.546   6.292 -0.2881  0.2684 -1.9069
10038TIP3   OH251528   6.789   1.189   1.170  0.1698  0.5056 -0.1049
10038TIP3    H151529   6.850   1.240   1.116 -0.9004  0.9455 -0.9435
10038TIP3    H251530   6.786   1.103   1.128 -1.4093  1.1379 -1.4149
10039TIP3   OH251531   1.532   1.234   4.947 -0.0244  0.0626  0.4979
10039TIP3    H151532   1.581   1.268   5.022  0.7130  1.2474 -0.4842
10039TIP3    H251533   1.446   1.274   4.954  0.7313  1.9773 -0.4575
10040TIP3   OH251534   2.989   1.878   4.134 -0.6355 -0.0716  0.0516
10040TIP3    H151535   2.952   1.888   4.222 -0.3201  0.4549  0.1272
10040TIP3    H251536   2.944   1.944   4.082 -1.0037 -0.5527 -0.2441
10041TIP3   OH251537   5.689   6.675   0.501 -0.0062 -0.0497 -0.2134
10041TIP3    H151538   5.748   6.751   0.505  0.1237 -0.0634 -1.4955
10041TIP3    H251539   5.617   6.703   0.445  0.1835 -0.9439 -0.9358
10042TIP3   OH251540   3.949   1.167  12.533  0.1478  0.1881 -0.4114
10042TIP3    H151541   3.856   1.148  12.539  0.3250 -0.7981 -0.6120
10042TIP3    H251542   3.970   1.216  12.613 -0.2951 -0.6451  0.2226
10043TIP3   OH251543   0.156   1.392   0.965  0.2118  0.5151 -0.2518
10043TIP3    H151544   0.221   1.339   1.012  0.3177 -0.3718 -1.3586
10043TIP3    H251545   0.121   1.333   0.898  0.8963  2.0563 -2.0441
10044TIP3   OH251546   6.294   5.309   0.637  0.1729 -0.1230  0.4671
10044TIP3    H151547   6.356   5.358   0.691 -0.1637  1.2649 -0.3578
10044TIP3    H251548   6.342   5.290   0.557 -0.1254  0.0134  0.2548
10045TIP3   OH251549   3.928   2.488   1.705  0.1068 -0.5184 -0.4502
10045TIP3    H151550   3.873   2.517   1.632  0.9169 -1.9015 -1.6618
10045TIP3    H251551   3.878   2.418   1.746  0.2417 -0.6369 -0.4908
10046TIP3   OH251552   1.859   6.057  14.277  0.1774 -0.4855 -0.0844
10046TIP3    H151553   1.931   6.091  14.330  0.3096 -1.1845  0.1941
10046TIP3    H251554   1.806   6.005  14.338  0.1351 -1.0076 -0.5569
10047TIP3   OH251555   2.203   5.156  15.757 -0.1091 -0.6177 -0.1310
10047TIP3    H151556   2.128   5.169  15.814 -0.0294  0.1227 -0.1854
10047TIP3    H251557   2.277   5.147  15.817  0.0091  0.3864 -0.1066
10048TIP3   OH251558   3.035   4.052   2.253  0.3756  0.2496  0.7228
10048TIP3    H151559   3.007   3.970   2.214 -0.5525 -0.5886  2.9900
10048TIP3    H251560   2.955   4.092   2.287  0.6613  2.6009 -1.1078
10049TIP3   OH251561   2.814   5.096   4.485 -0.3026  0.4800  0.3579
10049TIP3    H151562   2.723   5.068   4.480  0.4460 -2.2192  0.5437
10049TIP3    H251563   2.809   5.192   4.484 -3.1933  0.4567  1.8686
10050TIP3   OH251564   5.349   1.012   2.273 -0.2623 -0.3019  1.1183
10050TIP3    H151565   5.416   0.946   2.284 -1.1002 -1.2374  0.7754
10050TIP3    H251566   5.270   0.973   2.310 -1.4246 -0.6540 -1.5165
10051TIP3   OH251567   1.957   1.091   5.331 -0.1977  0.4092  0.2954
10051TIP3    H151568   1.957   1.003   5.368 -2.8645  0.2408  0.0636
10051TIP3    H251569   1.929   1.148   5.403 -0.4776  0.7788 -0.0982
10052TIP3   OH251570   4.762   2.625   5.248  0.0905  0.1936  0.5215
10052TIP3    H151571   4.747   2.655   5.158  0.0228 -0.3622  0.3398
10052TIP3    H251572   4.782   2.704   5.297 -0.1406  0.5388  0.0705
10053TIP3   OH251573   0.612   4.372  14.776 -0.3556  0.4252  0.2900
10053TIP3    H151574   0.656   4.417  14.847 -0.0422 -0.6595  0.8106
10053TIP3    H251575   0.564   4.301  14.818 -1.5567  0.7978 -0.4086
10054TIP3   OH251576   0.073   4.596  16.376 -0.4469  0.8015 -0.0924
10054TIP3    H151577   0.044   4.555  16.295  2.6277 -0.5304 -0.6874
10054TIP3    H251578   0.121   4.674  16.347  2.3526 -0.7125  0.1462
10055TIP3   OH251579   6.307   6.211  12.102 -0.5479  0.0027  0.2309
10055TIP3    H151580   6.250   6.281  12.070  2.7074  1.8579 -2.1953
10055TIP3    H251581   6.309   6.222  12.197 -3.9257 -0.0890  0.4317
10056TIP3   OH251582   2.972   1.302  14.905  0.7077  0.4079 -0.1068
10056TIP3    H151583   2.922   1.377  14.873 -1.4371 -0.4824  0.9369
10056TIP3    H251584   3.061   1.336  14.918 -0.1398  2.7152  0.1668
10057TIP3   OH251585   3.302   4.488   4.230  0.0457 -0.0033 -0.4615
10057TIP3    H151586   3.226   4.532   4.193 -0.6325 -0.6856  0.0803
10057TIP3    H251587   3.331   4.545   4.302  0.5924  0.6878 -1.2145
10058TIP3   OH251588   0.970   3.383   3.119  0.4390  0.3938  0.4967
10058TIP3    H151589   0.996   3.422   3.202 -2.3994  0.6825  1.3785
10058TIP3    H251590   0.939   3.295   3.142  1.1880 -0.1726 -0.5544
10059TIP3   OH251591   2.657   3.033   3.756  0.0404  0.1559 -0.2870
10059TIP3    H151592   2.691   2.944   3.759  3.5230  1.3584  0.3581
10059TIP3    H251593   2.635   3.047   3.664 -0.3438 -1.2359 -0.4378
10060TIP3   OH251594   4.120   0.453   3.964  0.5981 -0.2259  0.4935
10060TIP3    H151595   4.062   0.506   4.020  1.2258 -1.1267  2.0845
10060TIP3    H251596   4.163   0.516   3.908 -3.3570  0.3688 -2.3074
10061TIP3   OH251597   5.331   2.773  15.082  0.4313  0.2600 -0.4097
10061TIP3    H151598   5.324   2.834  15.155 -0.0078  0.7254 -0.8408
10061TIP3    H251599   5.243   2.737  15.072  0.6588 -0.3797 -0.2277
10062TIP3   OH251600   4.795   4.300   2.961  0.1995 -0.2609  0.2327
10062TIP3    H151601   4.852   4.229   2.933 -2.0896 -1.2206 -2.4491
10062TIP3    H251602   4.764   4.273   3.047  1.1472 -1.3431  0.2569
10063TIP3   OH251603   4.242   2.887   0.951  0.3749  0.2168  0.0279
10063TIP3    H151604   4.301   2.904   1.024  0.8712 -2.1528  0.2499
10063TIP3    H251605   4.154   2.901   0.987  0.5894 -1.3478  1.2356
10064TIP3   OH251606   0.227   6.190   0.254 -0.1516  0.2657 -0.3683
10064TIP3    H151607   0.314   6.192   0.294  0.4447 -0.6445 -1.5586
10064TIP3    H251608   0.167   6.196   0.328  0.9132 -0.3277  0.5852
10065TIP3   OH251609   1.560   0.541   3.033 -0.0971 -0.6946  0.0789
10065TIP3    H151610   1.543   0.578   2.946 -0.7079  0.8309  0.8061
10065TIP3    H251611   1.653   0.559   3.049  0.2628 -1.8376 -0.6261
10066TIP3   OH251612   6.232   4.379   0.372 -0.2797  0.5662  0.2255
10066TIP3    H151613   6.167   4.446   0.395 -0.9606 -0.0619  0.1906
10066TIP3    H251614   6.216   4.309   0.435  1.1264  0.8549  0.9434
10067TIP3   OH251615   6.510   2.620  13.291 -0.4668  0.1962 -0.3412
10067TIP3    H151616   6.465   2.695  13.330 -1.8432 -0.3444 -0.8427
10067TIP3    H251617   6.539   2.568  13.366  0.3582  1.1249  0.0097
10068TIP3   OH251618   2.739   4.418  13.397  0.5065  0.3577  0.2387
10068TIP3    H151619   2.686   4.480  13.447  0.4600  0.8014 -0.3600
10068TIP3    H251620   2.815   4.402  13.453  0.2821  0.5693  0.6134
10069TIP3   OH251621   3.991   6.692  16.484  0.2574  0.2866 -0.0149
10069TIP3    H151622   4.021   6.723  16.570 -1.3354  1.8953  0.0088
10069TIP3    H251623   3.919   6.632  16.504  0.7446 -0.3787 -0.2108
10070TIP3   OH251624   2.874   6.013  14.232 -0.1035 -0.3681 -0.0570
10070TIP3    H151625   2.915   6.100  14.228 -2.3496  0.8920  2.0128
10070TIP3    H251626   2.893   5.974  14.147  1.1467  2.0549 -0.9915
10071TIP3   OH251627   6.199   0.106  14.576  0.1269 -0.1455 -0.6526
10071TIP3    H151628   6.237   0.080  14.492  0.2669 -0.7099 -0.4206
10071TIP3    H251629   6.222   0.035  14.636 -2.4649 -1.2245 -0.8143
10072TIP3   OH251630   6.354   6.049  15.018  0.0269 -0.1341 -0.5289
10072TIP3    H151631   6.293   5.986  15.057 -0.4944  0.1978 -0.8123
10072TIP3    H251632   6.362   6.022  14.927 -0.5057  0.4485 -0.7499
10073TIP3   OH251633   3.403   3.545  16.195  0.2066  0.2017  0.5397
10073TIP3    H151634   3.483   3.587  16.228  0.3356  3.1825 -2.9024
10073TIP3    H251635   3.338   3.615  16.198 -0.9351 -0.7409 -1.1467
10074TIP3   OH251636   1.847   5.272  15.021 -0.7174  0.5835 -0.0933
10074TIP3    H151637   1.803   5.292  15.103 -0.5716 -0.6708  0.3117
10074TIP3    H251638   1.940   5.273  15.042 -0.6969 -0.3779 -0.0607
10075TIP3   OH251639   2.123   2.491   0.494 -0.7145 -0.0702 -0.1146
10075TIP3    H151640   2.159   2.511   0.581 -2.4803 -0.4829  0.7686
10075TIP3    H251641   2.172   2.547   0.434  1.0447 -0.2899  1.0450
10076TIP3   OH251642   2.877   0.598   3.744 -0.8655  0.6234  0.6606
10076TIP3    H151643   2.936   0.572   3.815 -0.6130 -0.6760 -0.0107
10076TIP3    H251644   2.894   0.692   3.734  1.3793  0.2342  0.2406
10077TIP3   OH251645   1.685   0.715  15.798 -0.2870  0.4738  0.2714
10077TIP3    H151646   1.726   0.637  15.834  1.1395  0.2039 -1.7868
10077TIP3    H251647   1.722   0.787  15.848  1.2525  0.0775 -0.2671
10078TIP3   OH251648   2.623   0.514   3.789  0.1932  0.2610 -0.1601
10078TIP3    H151649   2.699   0.559   3.752  0.7377 -0.1685  0.3905
10078TIP3    H251650   2.652   0.423   3.798 -0.2746  0.1537  0.3438
10079TIP3   OH251651   1.888   1.650  14.671 -0.0612  0.2617  0.2219
10079TIP3    H151652   1.938   1.681  14.747 -0.7076 -1.4748  1.4002
10079TIP3    H251653   1.938   1.682  14.596  0.3840  2.3769  1.3376
10080TIP3   OH251654   6.052   2.495  16.394  0.6710 -0.1312 -0.1472
10080TIP3    H151655   6.136   2.450  16.404  0.8635 -0.1883 -1.7717
10080TIP3    H251656   6.056   2.533  16.307 -0.7009  0.5211  0.0550
10081TIP3   OH251657   6.332   6.435   5.505 -0.3312  0.5099 -0.1589
10081TIP3    H151658   6.345   6.522   5.540  0.9733 -0.2686  1.4127
10081TIP3    H251659   6.366   6.440   5.415 -0.3401  1.6200 -0.1131
10082TIP3   OH251660   6.119   2.718  16.129  0.0954  0.1743 -0.5076
10082TIP3    H151661   6.176   2.750  16.059  1.1005  0.1553  0.2828
10082TIP3    H251662   6.128   2.623  16.125  0.7195  0.2022  0.0981
10083TIP3   OH251663   0.319   6.290  10.555 -0.1356  0.1265 -0.2960
10083TIP3    H151664   0.324   6.201  10.591 -0.0942  0.2002 -0.1174
10083TIP3    H251665   0.410   6.317  10.546 -0.1468  0.1262 -0.4156
10084TIP3   OH251666   0.536   1.291   4.397  0.0028  0.0718  0.0985
10084TIP3    H151667   0.552   1.312   4.306 -0.7826  0.6633  0.0889
10084TIP3    H251668   0.519   1.375   4.439  0.3390 -0.1962  0.7890
10085TIP3   OH251669   4.374   0.887   6.263 -0.1894 -0.7550 -0.2146
10085TIP3    H151670   4.328   0.888   6.347 -0.5944 -1.4781 -0.4183
10085TIP3    H251671   4.466   0.896   6.286 -0.3119 -0.7792  0.2985
10086TIP3   OH251672   2.568   5.218  10.981  0.8731  0.3724  0.3675
10086TIP3    H151673   2.628   5.189  11.050 -0.2979 -0.4012  1.0960
10086TIP3    H251674   2.548   5.138  10.932  1.5344  0.8805 -0.7592
10087TIP3   OH251675   4.453   1.158  13.059  0.0569 -0.3851 -0.8638
10087TIP3    H151676   4.368   1.198  13.077  0.5357  0.2290  0.0985
10087TIP3    H251677   4.511   1.231  13.038  0.4407 -0.7605 -1.1340
10088TIP3   OH251678   4.500   3.760  12.387 -0.8756 -0.6231 -0.0400
10088TIP3    H151679   4.478   3.668  12.379 -2.5072 -0.1440 -1.5927
10088TIP3    H251680   4.418   3.803  12.410 -0.0652  0.4214  1.0376
10089TIP3   OH251681   6.620   4.115   4.891 -0.2126  0.8274 -0.6404
10089TIP3    H151682   6.577   4.183   4.943  0.8987  1.1189 -0.0579
10089TIP3    H251683   6.552   4.051   4.874 -0.9897  1.5033 -0.1619
10090TIP3   OH251684   3.084   2.112  15.381  0.1173 -0.2644  0.0076
10090TIP3    H151685   3.037   2.096  15.462  0.4922 -0.0895  0.2619
10090TIP3    H251686   3.034   2.181  15.337  0.1450 -0.0704  0.2806
10091TIP3   OH251687   5.714   1.890  13.510 -0.3635 -0.4082  0.0504
10091TIP3    H151688   5.758   1.934  13.583  0.9873 -0.2919 -0.8095
10091TIP3    H251689   5.623   1.881  13.540  0.0859 -0.1134  1.6274
10092TIP3   OH251690   1.307   5.663   5.614  0.1437  0.1738  0.1871
10092TIP3    H151691   1.225   5.711   5.604 -0.0917 -0.4899 -1.3031
10092TIP3    H251692   1.375   5.730   5.602 -0.1648  0.6713  1.1317
10093TIP3   OH251693   2.166   5.916  10.195 -0.5108  0.1327 -0.1609
10093TIP3    H151694   2.080   5.954  10.211 -0.1939  0.7068  0.1980
10093TIP3    H251695   2.227   5.989  10.206  0.0520 -0.3495 -0.0523
10094TIP3   OH251696   6.719   0.623   5.579  0.1874  0.1377  0.5238
10094TIP3    H151697   6.660   0.549   5.582  1.5598 -1.0385 -0.3153
10094TIP3    H251698   6.662   0.700   5.572 -1.2151 -0.9354 -0.1914
10095TIP3   OH251699   4.055   5.475  12.493  0.0968  0.3317  0.9544
10095TIP3    H151700   4.026   5.513  12.575 -3.1544  1.0923 -0.4040
10095TIP3    H251701   4.076   5.550  12.437 -2.1000  0.0805 -0.3040
10096TIP3   OH251702   2.247   2.522  15.810  0.3199 -0.4687  0.2513
10096TIP3    H151703   2.287   2.443  15.846 -0.4077 -1.3842 -0.8532
10096TIP3    H251704   2.181   2.489  15.749 -0.2982  1.0013  0.0815
10097TIP3   OH251705   2.876   5.017  14.967  0.2014  0.1021  0.0410
10097TIP3    H151706   2.953   5.008  14.911  0.3292 -1.1142  0.3830
10097TIP3    H251707   2.825   5.087  14.927 -0.3979 -1.5888 -2.4213
10098TIP3   OH251708   6.559   1.570  12.709 -0.2885 -0.1149  0.2906
10098TIP3    H151709   6.544   1.522  12.628  1.2406 -0.0529 -0.0608
10098TIP3    H251710   6.544   1.662  12.687  0.8809 -0.0152 -0.1473
10099TIP3   OH251711   5.364   5.975  10.959  0.2110 -0.3336  0.3417
10099TIP3    H151712   5.290   5.999  10.904  0.6901  1.3548  0.3945
10099TIP3    H251713   5.327   5.965  11.046  0.2419  2.0684  0.6859
10100TIP3   OH251714   4.173   2.541  16.112  0.0070  0.2429 -0.4425
10100TIP3    H151715   4.133   2.627  16.096  0.3660  0.7234  1.1070
10100TIP3    H251716   4.101   2.486  16.142  0.0522  0.4149 -0.0197
10101TIP3   OH251717   1.338   4.333   0.790 -0.0033  0.0347  0.1155
10101TIP3    H151718   1.267   4.311   0.849  0.7447 -0.8337  0.7251
10101TIP3    H251719   1.376   4.249   0.764  1.4372  0.4945  0.6155
10102TIP3   OH251720   2.692   1.598   2.883  0.4665 -0.0751 -0.3234
10102TIP3    H151721   2.746   1.576   2.960 -0.0170  2.7984  0.9562
10102TIP3    H251722   2.602   1.591   2.914  0.2145 -0.2090 -1.0609
10103TIP3   OH251723   2.065   4.645   4.987 -0.1758  0.3569 -0.0024
10103TIP3    H151724   1.989   4.657   4.930 -0.3035 -1.7178 -0.3530
10103TIP3    H251725   2.058   4.716   5.051 -1.3041  1.3708 -1.1870
10104TIP3   OH251726   3.206   3.474  11.332 -0.1959 -0.3730 -0.8002
10104TIP3    H151727   3.126   3.442  11.374 -0.5383  0.8668 -0.4573
10104TIP3    H251728   3.270   3.480  11.404 -0.7205  1.5475 -0.4433
10105TIP3   OH251729   5.919   3.764  13.543 -0.2472  0.3083  0.4716
10105TIP3    H151730   5.903   3.856  13.563 -0.4774 -0.0466  2.0342
10105TIP3    H251731   5.837   3.734  13.503 -0.5966  0.5099  1.0210
10106TIP3   OH251732   1.903   0.047  17.107 -0.2127 -0.2204  0.0752
10106TIP3    H151733   1.956   0.051  17.187  1.0968 -1.9833 -0.6489
10106TIP3    H251734   1.923   0.129  17.061 -0.1354  0.3031  1.0146
10107TIP3   OH251735   1.961   6.676  16.161 -0.5581  0.1286 -0.8755
10107TIP3    H151736   1.874   6.639  16.175 -0.7311  0.9871  0.3722
10107TIP3    H251737   1.949   6.770  16.167  1.0955  0.3014  3.9425
10108TIP3   OH251738   4.816   0.158   1.493  0.0497  0.1079 -0.2073
10108TIP3    H151739   4.886   0.148   1.557  0.1419 -2.8468 -0.6213
10108TIP3    H251740   4.851   0.219   1.428  0.7750  1.4899  1.3894
10109TIP3   OH251741   3.015   6.483  14.989  0.2642  0.0330 -0.0102
10109TIP3    H151742   2.919   6.490  14.982  0.3101 -0.0042 -0.7849
10109TIP3    H251743   3.038   6.408  14.934  0.7498  0.1232  0.0654
10110TIP3   OH251744   2.681   1.714   5.231  0.1228  0.2341 -0.1419
10110TIP3    H151745   2.730   1.633   5.217 -0.6717  0.0306 -1.9667
10110TIP3    H251746   2.743   1.772   5.275  0.4740 -1.5872  1.9350
10111TIP3   OH251747   0.731   0.361  15.376  0.0263 -0.5266  0.0898
10111TIP3    H151748   0.752   0.442  15.329  0.5196 -0.7383 -0.0619
10111TIP3    H251749   0.696   0.302  15.308  2.0582 -1.3328 -0.3306
10112TIP3   OH251750   0.291   0.615  11.278 -0.4608 -0.3419  0.0077
10112TIP3    H151751   0.266   0.524  11.263 -0.5637 -0.3764  0.3719
10112TIP3    H251752   0.275   0.629  11.371 -1.4979  0.3784 -0.2641
10113TIP3   OH251753   1.390   1.173   5.238  0.6782 -0.0653  0.6641
10113TIP3    H151754   1.377   1.258   5.196 -3.3121 -1.0409 -0.5167
10113TIP3    H251755   1.346   1.180   5.322 -0.0739 -1.0576  0.3730
10114TIP3   OH251756   5.860   0.065   5.984  0.1203  0.3918 -0.1989
10114TIP3    H151757   5.796   0.071   5.913 -0.3896 -0.9928  0.1060
10114TIP3    H251758   5.811   0.091   6.062  0.7560  2.1893 -0.3541
10115TIP3   OH251759   4.245   5.061  13.813  0.4152 -0.5539  0.6457
10115TIP3    H151760   4.308   5.123  13.848  0.2601 -0.0404  0.0334
10115TIP3    H251761   4.167   5.072  13.868 -0.8760  2.3256 -1.5234
10116TIP3   OH251762   3.822   1.547   6.772 -0.0272 -0.4473  0.0222
10116TIP3    H151763   3.790   1.578   6.687  0.3517 -2.8867 -1.1115
10116TIP3    H251764   3.755   1.484   6.801  0.5784 -0.7483  0.7930
10117TIP3   OH251765   1.264   2.054  12.650 -0.1861  0.1678  0.4767
10117TIP3    H151766   1.241   1.962  12.656  1.6195 -0.4023 -0.5657
10117TIP3    H251767   1.182   2.098  12.626 -0.9213 -1.2577  0.2796
10118TIP3   OH251768   0.176   2.903  16.800 -0.5770 -0.4639  0.1738
10118TIP3    H151769   0.123   2.973  16.839 -2.3928 -0.2129 -2.4817
10118TIP3    H251770   0.201   2.848  16.874  1.1250  3.0076  2.4636
10119TIP3   OH251771   3.858   1.323   3.207 -0.4320  0.4935 -0.1630
10119TIP3    H151772   3.857   1.379   3.284  0.4465  0.0725  0.1636
10119TIP3    H251773   3.945   1.282   3.207 -0.8691 -0.4840 -0.6711
10120TIP3   OH251774   5.847   2.731   3.103  0.2529 -0.8012  0.4392
10120TIP3    H151775   5.792   2.800   3.141  0.6364  1.1985 -2.2942
10120TIP3    H251776   5.792   2.653   3.102 -1.8003  0.5689 -0.1769
10121TIP3   OH251777   5.632   0.780   1.406  0.2705  0.0109  0.4941
10121TIP3    H151778   5.636   0.842   1.479  1.0692  1.0656 -0.4203
10121TIP3    H251779   5.716   0.790   1.362 -0.7030  0.3296 -1.3461
10122TIP3   OH251780   0.186   6.019   1.801  0.5450 -0.3455 -0.4245
10122TIP3    H151781   0.152   6.106   1.777  1.3009  0.2290  0.5153
10122TIP3    H251782   0.247   5.998   1.730 -0.6998 -0.7849 -1.4162
10123TIP3   OH251783   5.726   6.415  14.759  0.3570 -0.3697  0.1619
10123TIP3    H151784   5.677   6.355  14.815 -1.3671  1.7709  1.1224
10123TIP3    H251785   5.658   6.468  14.716  1.7285 -0.1785 -1.9347
10124TIP3   OH251786   5.350   0.477  10.934 -0.2847  0.4421  0.0557
10124TIP3    H151787   5.366   0.474  10.839  0.3660 -0.1817  0.1749
10124TIP3    H251788   5.323   0.389  10.957  1.7563 -0.0602  0.7964
10125TIP3   OH251789   2.931   1.740   3.488 -0.2611 -0.8740  0.4205
10125TIP3    H151790   2.931   1.754   3.393  2.8530 -1.6828  0.1861
10125TIP3    H251791   2.867   1.670   3.502 -0.3868 -1.1071 -1.1568
10126TIP3   OH251792   0.497   1.019   5.585  0.3528  0.3545  0.0703
10126TIP3    H151793   0.452   0.941   5.618  0.0428  0.2484 -0.5776
10126TIP3    H251794   0.428   1.083   5.571  0.7007  1.0526  1.3893
10127TIP3   OH251795   4.733   0.346  16.228 -0.4439  0.3478  0.1772
10127TIP3    H151796   4.789   0.423  16.217 -0.9677  0.5443 -1.3140
10127TIP3    H251797   4.720   0.339  16.323 -0.6812  2.3090  0.3255
10128TIP3   OH251798   0.115   3.643  10.810  0.6344 -0.1646  0.2378
10128TIP3    H151799   0.191   3.691  10.844  0.1626 -1.1928  2.9976
10128TIP3    H251800   0.138   3.551  10.821  0.0652 -0.5663 -1.5661
10129TIP3   OH251801   1.922   6.296  13.246  0.1062 -0.5551  0.1112
10129TIP3    H151802   1.856   6.327  13.307  0.0238 -2.0273  0.8106
10129TIP3    H251803   1.872   6.256  13.175  0.2304  0.1035 -0.3635
10130TIP3   OH251804   5.882   3.021  13.158 -0.8662  0.5464 -0.8272
10130TIP3    H151805   5.872   3.007  13.252 -0.1000  0.0318 -0.8058
10130TIP3    H251806   5.816   2.965  13.118 -0.0163 -0.6448 -0.6300
10131TIP3   OH251807   4.730   4.436  13.304  0.5167 -0.0447  0.2508
10131TIP3    H151808   4.670   4.467  13.372 -1.0677 -3.1248  0.4284
10131TIP3    H251809   4.802   4.394  13.352  0.4898 -0.3370  0.0400
10132TIP3   OH251810   4.380   3.346   2.824  0.0730 -0.0122  0.1905
10132TIP3    H151811   4.333   3.425   2.853  2.3621  1.8731 -0.8802
10132TIP3    H251812   4.440   3.326   2.896  1.1239  0.6954 -0.4515
10133TIP3   OH251813   5.070   1.535   0.432  0.0677  0.5686  0.2348
10133TIP3    H151814   5.032   1.479   0.500 -0.1056  0.7302  0.2705
10133TIP3    H251815   5.094   1.474   0.362 -1.0093  0.5484 -0.1411
10134TIP3   OH251816   1.677   2.379   2.930  0.1841 -0.7233 -0.1590
10134TIP3    H151817   1.645   2.305   2.878  2.1593 -1.5930 -0.2141
10134TIP3    H251818   1.673   2.349   3.020 -1.4320  0.0928  0.0845
10135TIP3   OH251819   0.470   6.220  10.932  0.5291 -0.0867  1.2401
10135TIP3    H151820   0.503   6.307  10.912 -0.5765  0.0416 -0.2158
10135TIP3    H251821   0.463   6.177  10.847 -3.3174  0.0482  1.2861
10136TIP3   OH251822   3.835   4.234   5.402  0.0265 -0.1887 -0.0147
10136TIP3    H151823   3.832   4.191   5.487  0.2735  1.6929  1.0080
10136TIP3    H251824   3.909   4.195   5.356  0.4955 -0.5419  1.0374
10137TIP3   OH251825   1.631   1.382   0.440 -0.3223 -0.0790 -0.0108
10137TIP3    H151826   1.584   1.415   0.516 -1.5846 -2.1369  0.1688
10137TIP3    H251827   1.706   1.441   0.431 -0.3602  0.4795  2.5456
10138TIP3   OH251828   4.307   5.117   4.003  0.0164 -0.0053 -0.1198
10138TIP3    H151829   4.289   5.055   3.933 -1.4863  0.3661 -0.1008
10138TIP3    H251830   4.311   5.063   4.082  0.6946 -0.3027 -0.3519
10139TIP3   OH251831   5.961   5.389  12.370  0.3320 -0.1304  0.3891
10139TIP3    H151832   5.974   5.426  12.283 -0.4740 -0.5237  0.0884
10139TIP3    H251833   5.984   5.296  12.360  2.0148  0.1849  1.0498
10140TIP3   OH251834   0.238   5.715   4.514  0.8557  0.1321 -0.8434
10140TIP3    H151835   0.169   5.781   4.518 -4.1155 -4.4167  1.6550
10140TIP3    H251836   0.292   5.732   4.592 -0.8661  0.8337  0.2588
10141TIP3   OH251837   0.573   5.720   6.080  0.2804  0.1666  0.0443
10141TIP3    H151838   0.620   5.759   6.154  0.3540  0.0217  0.0742
10141TIP3    H251839   0.482   5.718   6.108  0.2455  0.5118 -0.0413
10142TIP3   OH251840   0.161   3.818   3.718  0.1096  0.1820 -0.0744
10142TIP3    H151841   0.186   3.911   3.722  0.9923 -0.0752  0.8818
10142TIP3    H251842   0.243   3.772   3.702 -0.6259 -0.3292 -2.7995
10143TIP3   OH251843   1.217   0.063  15.984  0.0192 -0.0144  0.0605
10143TIP3    H151844   1.274   0.130  15.947 -0.2401  0.5269  0.6220
10143TIP3    H251845   1.191   0.009  15.910  2.1908 -0.9861 -0.0507
10144TIP3   OH251846   3.825   4.873   0.561 -0.2326 -0.6032 -0.2814
10144TIP3    H151847   3.781   4.905   0.482  0.8240 -1.7697 -1.3934
10144TIP3    H251848   3.768   4.900   0.633 -1.3705  0.2505 -1.4548
10145TIP3   OH251849   0.881   0.080   3.046  0.1745  0.8049 -1.1648
10145TIP3    H151850   0.849   0.122   3.126 -0.1235 -1.0014 -0.2941
10145TIP3    H251851   0.836   0.127   2.975 -2.5634 -0.0178 -0.1090
10146TIP3   OH251852   1.634   3.091  12.991  0.2495  0.4002 -0.6664
10146TIP3    H151853   1.541   3.081  13.010  0.3030 -1.4410 -1.2061
10146TIP3    H251854   1.638   3.158  12.923 -0.6392  0.7127 -0.4221
10147TIP3   OH251855   0.627   0.078   3.898 -0.0473  0.6135 -0.1899
10147TIP3    H151856   0.543   0.120   3.916 -0.0257  1.1103 -1.2157
10147TIP3    H251857   0.665   0.064   3.985 -1.5050 -0.3081  0.3471
10148TIP3   OH251858   2.395   1.633   5.853  0.6640  0.3182  0.4172
10148TIP3    H151859   2.308   1.595   5.865  0.3175  0.8867 -0.1519
10148TIP3    H251860   2.433   1.636   5.940 -0.9516  2.5038  1.1564
10149TIP3   OH251861   3.411   1.115   4.966 -0.3601  0.0872  0.0511
10149TIP3    H151862   3.418   1.171   5.043  0.9741 -0.1738  0.1438
10149TIP3    H251863   3.380   1.172   4.896 -0.6097  0.5528  0.5398
10150TIP3   OH251864   3.919   2.672   1.198  0.1064  0.1823 -0.4057
10150TIP3    H151865   3.942   2.632   1.113 -0.3056 -0.1011 -0.3848
10150TIP3    H251866   3.924   2.600   1.260  0.0200  0.3063 -0.2560
10151TIP3   OH251867   4.195   0.309  13.551  0.2266  0.3437 -0.2242
10151TIP3    H151868   4.236   0.388  13.518 -1.0797  0.9010 -0.5909
10151TIP3    H251869   4.244   0.287  13.630  1.2274  0.9472 -0.6649
10152TIP3   OH251870   1.248   1.854   3.029  0.0950 -0.0231  0.5849
10152TIP3    H151871   1.237   1.929   2.971  0.5611 -0.5448 -0.1944
10152TIP3    H251872   1.234   1.890   3.117  2.7728  1.5236  0.4718
10153TIP3   OH251873   3.708   3.641  12.135 -0.4359 -0.0972  0.6238
10153TIP3    H151874   3.661   3.596  12.206 -2.0884  0.6711  0.0718
10153TIP3    H251875   3.638   3.677  12.080  0.7832  2.5453  0.6724
10154TIP3   OH251876   5.895   6.406  10.933  0.3752  0.1581  0.1532
10154TIP3    H151877   5.880   6.348  10.858 -0.1731  1.3024 -0.6493
10154TIP3    H251878   5.990   6.418  10.934  0.3919  0.1150 -0.3524
10155TIP3   OH251879   3.442   4.304   2.493 -0.2587 -0.5763 -0.7787
10155TIP3    H151880   3.505   4.269   2.431 -0.6526  0.6186 -1.9047
10155TIP3    H251881   3.377   4.349   2.438 -0.7810  0.2606  0.4732
10156TIP3   OH251882   3.715   4.292   4.816  0.1599 -0.3025 -0.4120
10156TIP3    H151883   3.787   4.230   4.827 -0.7300 -1.0914  1.3587
10156TIP3    H251884   3.715   4.343   4.897  1.0086  2.2648 -1.8977
10157TIP3   OH251885   6.006   0.579  11.569  0.2861  0.1584 -0.1053
10157TIP3    H151886   6.056   0.525  11.630  0.5536  0.5283  0.0104
10157TIP3    H251887   5.921   0.591  11.612  1.1497  2.1293  1.2181
10158TIP3   OH251888   3.310   5.020   3.177 -0.2792  0.1341  0.5743
10158TIP3    H151889   3.339   5.082   3.245 -1.5201 -0.0377  1.2953
10158TIP3    H251890   3.353   5.050   3.097  0.6397  0.7839  1.2977
10159TIP3   OH251891   1.461   5.828   1.128 -0.1125 -0.1106 -0.8893
10159TIP3    H151892   1.391   5.894   1.120 -2.2296 -2.1960 -0.8662
10159TIP3    H251893   1.417   5.752   1.169  1.6710 -2.2255 -2.6583
10160TIP3   OH251894   3.414   4.479  17.118 -0.2164  0.0984  0.3194
10160TIP3    H151895   3.331   4.470  17.072  0.3715 -3.0984 -0.3628
10160TIP3    H251896   3.444   4.567  17.095 -1.5951 -0.0540 -2.6291
10161TIP3   OH251897   2.244   4.186  14.035 -0.2553 -0.0698  0.0874
10161TIP3    H151898   2.205   4.151  13.955  1.7212  0.0251 -0.9926
10161TIP3    H251899   2.255   4.279  14.017  0.7697 -0.1575  0.2005
10162TIP3   OH251900   1.622   4.131  11.292  0.1114 -0.1618 -0.8171
10162TIP3    H151901   1.640   4.129  11.198  1.8280  0.1455 -0.5346
10162TIP3    H251902   1.669   4.056  11.328  1.4948  1.0641  0.0678
10163TIP3   OH251903   1.508   3.146   3.169  0.4352 -0.0553  0.6728
10163TIP3    H151904   1.414   3.130   3.158  0.0934  1.5815  0.8735
10163TIP3    H251905   1.547   3.119   3.087 -0.2942 -0.1983  0.3639
10164TIP3   OH251906   3.342   1.144  13.232 -0.7435 -0.2269 -0.7105
10164TIP3    H151907   3.275   1.146  13.300  0.7914  1.6420  0.8678
10164TIP3    H251908   3.333   1.228  13.187  0.5569  0.0750 -0.4344
10165TIP3   OH251909   5.913   2.583   0.417  0.0186  1.0040  0.1198
10165TIP3    H151910   5.915   2.566   0.323 -0.3672  1.7488 -0.0280
10165TIP3    H251911   5.973   2.518   0.454  0.1867  0.7154 -0.6399
10166TIP3   OH251912   6.732   1.114   3.335 -0.1253 -0.3111 -0.6552
10166TIP3    H151913   6.726   1.070   3.250 -2.1035  0.6836 -1.1116
10166TIP3    H251914   6.781   1.054   3.390  1.4933 -0.8566 -2.5600
10167TIP3   OH251915   5.236   4.991  12.260 -0.6357 -0.3320  0.2249
10167TIP3    H151916   5.287   5.069  12.238  0.5708 -1.6605 -2.1278
10167TIP3    H251917   5.293   4.941  12.318 -0.7078 -0.2151  0.3954
10168TIP3   OH251918   2.657   0.483   6.294  0.0888 -0.3847  0.2982
10168TIP3    H151919   2.667   0.480   6.389 -0.0522 -0.5083  0.3108
10168TIP3    H251920   2.577   0.535   6.281  0.7326  0.6178  0.2032
10169TIP3   OH251921   1.487   1.902   5.352 -0.0910  0.7805  0.2444
10169TIP3    H151922   1.553   1.891   5.283  0.8727  0.9006  1.1225
10169TIP3    H251923   1.461   1.812   5.375  1.8430  0.5522  1.8125
10170TIP3   OH251924   4.668   3.892   3.796 -0.5019  0.3202 -0.4904
10170TIP3    H151925   4.690   3.800   3.814  0.6786  0.4810 -1.0489
10170TIP3    H251926   4.594   3.910   3.854 -0.2513 -0.7514  0.1998
10171TIP3   OH251927   5.330   1.789  13.278 -0.0071 -0.3037  0.3425
10171TIP3    H151928   5.282   1.788  13.361 -0.1961  1.9032  0.3264
10171TIP3    H251929   5.269   1.751  13.214 -1.1555  0.9742  0.6299
10172TIP3   OH251930   2.479   3.580   2.813 -0.1206 -0.2025 -0.2969
10172TIP3    H151931   2.552   3.541   2.861 -0.1834  0.8168  0.6898
10172TIP3    H251932   2.489   3.549   2.723  1.3353 -0.3457 -0.1049
10173TIP3   OH251933   2.182   2.433  15.458  0.2576  0.1372 -0.1338
10173TIP3    H151934   2.218   2.347  15.483  1.2013  0.2460 -1.0390
10173TIP3    H251935   2.104   2.443  15.512 -0.0461 -1.4340 -0.2310
10174TIP3   OH251936   2.197   3.096  14.398  0.0918  0.1008  0.2657
10174TIP3    H151937   2.146   3.150  14.338  0.5139  1.6425  1.2295
10174TIP3    H251938   2.233   3.026  14.344 -0.0376  1.0920 -1.1457
10175TIP3   OH251939   0.147   0.735  15.001 -0.6470  0.2054  0.1390
10175TIP3    H151940   0.121   0.827  14.996  0.6261  0.7597  2.5800
10175TIP3    H251941   0.064   0.687  14.991 -1.7021  1.6923  1.2019
10176TIP3   OH251942   0.425   1.983  10.930  0.1658 -0.4210  0.6326
10176TIP3    H151943   0.406   2.010  10.840  0.8359  0.9957  0.8829
10176TIP3    H251944   0.426   1.887  10.927 -1.2217 -0.4310 -0.5563
10177TIP3   OH251945   6.128   1.084   0.577 -0.0482 -0.7277 -0.3769
10177TIP3    H151946   6.051   1.033   0.553 -1.8141  2.3732 -1.8936
10177TIP3    H251947   6.106   1.174   0.554  3.0392  0.7387  1.6395
10178TIP3   OH251948   2.653   1.411  12.128  0.1013  0.4097 -0.2368
10178TIP3    H151949   2.583   1.419  12.062 -0.8797 -2.1645  0.3587
10178TIP3    H251950   2.722   1.363  12.083  0.5482  0.9473 -0.1333
10179TIP3   OH251951   2.416   6.664   1.878 -0.9019 -0.2640  0.6080
10179TIP3    H151952   2.480   6.727   1.913  0.3867 -0.7664 -0.7131
10179TIP3    H251953   2.467   6.609   1.819 -2.6767 -0.3180 -0.9874
10180TIP3   OH251954   5.133   4.008  11.654  0.2625 -0.3208 -0.5394
10180TIP3    H151955   5.144   3.958  11.735  1.3394 -1.5932 -1.4041
10180TIP3    H251956   5.094   4.091  11.681  2.9069  0.3760  1.6569
10181TIP3   OH251957   5.478   5.435  11.063  0.1989  0.0170 -0.0827
10181TIP3    H151958   5.458   5.431  10.970  0.2982  1.1773 -0.1673
10181TIP3    H251959   5.563   5.479  11.068 -0.1151  0.5795  0.5666
10182TIP3   OH251960   3.321   0.588  13.643 -0.3310 -0.0682 -0.4500
10182TIP3    H151961   3.271   0.527  13.698 -0.2174 -1.1031 -1.4633
10182TIP3    H251962   3.360   0.649  13.706  1.1823 -2.1994  0.8319
10183TIP3   OH251963   1.517   6.678  13.390  0.3375 -0.4631  0.2150
10183TIP3    H151964   1.558   6.607  13.340  1.8902  0.5558 -0.0436
10183TIP3    H251965   1.531   6.654  13.481  1.1303 -0.3689  0.1283
10184TIP3   OH251966   1.689   4.431  16.357  0.1088  0.0059  0.3139
10184TIP3    H151967   1.648   4.451  16.441 -1.5353  0.7035 -0.6184
10184TIP3    H251968   1.759   4.495  16.348 -0.0836  0.3004  0.8823
10185TIP3   OH251969   4.855   3.365  15.934 -0.0262 -0.3468  0.2764
10185TIP3    H151970   4.830   3.407  15.851 -0.9374 -0.1752  0.6267
10185TIP3    H251971   4.861   3.272  15.913  0.2527 -0.2487 -0.0971
10186TIP3   OH251972   0.160   4.391  10.599 -0.2848 -0.1804  0.2324
10186TIP3    H151973   0.199   4.426  10.520  0.4825  0.6124  0.9472
10186TIP3    H251974   0.093   4.455  10.624 -0.6394 -0.5089  0.1445
10187TIP3   OH251975   5.810   2.739  16.878 -0.0591  0.2699  0.1918
10187TIP3    H151976   5.763   2.666  16.839  0.2745 -0.1879  0.6341
10187TIP3    H251977   5.874   2.765  16.811  1.4926 -1.4385  0.9182
10188TIP3   OH251978   3.079   2.880   2.420 -0.0011  0.0069 -0.1446
10188TIP3    H151979   3.155   2.834   2.456 -0.5922  0.0771  1.2632
10188TIP3    H251980   3.110   2.968   2.403  0.6150 -0.3636 -0.9765
10189TIP3   OH251981   2.299   4.607  15.558 -0.1692 -0.1847 -0.0059
10189TIP3    H151982   2.363   4.542  15.589  0.3856  0.2756 -0.1632
10189TIP3    H251983   2.344   4.691  15.567 -1.6225  0.4413  2.1977
10190TIP3   OH251984   6.675   2.404  16.298 -0.0986  0.1952 -0.1641
10190TIP3    H151985   6.611   2.348  16.254  0.2938 -0.2638 -0.1524
10190TIP3    H251986   6.711   2.350  16.367  0.4326  0.3958 -0.2827
10191TIP3   OH251987   3.662   0.734  15.310  0.3291 -0.2116  0.3830
10191TIP3    H151988   3.647   0.829  15.311  0.1834 -0.2266 -0.3762
10191TIP3    H251989   3.736   0.722  15.251 -0.4489 -0.6857 -0.5114
10192TIP3   OH251990   0.205   0.204   2.489 -0.0338 -0.2114  0.0838
10192TIP3    H151991   0.126   0.176   2.534 -0.5894 -0.3375 -0.9406
10192TIP3    H251992   0.207   0.299   2.501 -0.2023 -0.2386  0.3327
10193TIP3   OH251993   5.112   5.058  13.988  0.3017  0.1597 -0.0655
10193TIP3    H151994   5.122   5.119  14.061 -0.9408  1.0002 -0.5649
10193TIP3    H251995   5.119   5.112  13.910 -1.4371 -0.1963 -0.5127
10194TIP3   OH251996   2.463   3.069  15.997  0.5535 -0.0911 -0.0054
10194TIP3    H151997   2.373   3.101  16.008  0.4651 -0.3983  0.1759
10194TIP3    H251998   2.458   2.976  16.021  0.7622 -0.2901 -0.7084
10195TIP3   OH251999   5.274   4.350   4.403  0.0856  0.6287 -0.0289
10195TIP3    H152000   5.316   4.265   4.415  0.3576  0.3211 -2.6619
10195TIP3    H252001   5.185   4.330   4.374 -0.5658  1.2928  1.3845
10196TIP3   OH252002   4.816   6.281   2.564  0.1004 -0.0432  0.1795
10196TIP3    H152003   4.865   6.295   2.645  0.2434 -0.4865  0.1722
10196TIP3    H252004   4.735   6.330   2.576 -0.1242 -0.5595  0.8215
10197TIP3   OH252005   6.099   1.316   0.128 -0.0247  0.0913 -0.1895
10197TIP3    H152006   6.004   1.328   0.123 -0.1433 -0.4554  0.6825
10197TIP3    H252007   6.132   1.362   0.050 -0.8403  1.9112  0.4697
10198TIP3   OH252008   3.668   1.773   4.245 -0.8040  0.0026 -0.1757
10198TIP3    H152009   3.647   1.702   4.184 -0.2748 -1.1387  0.9184
10198TIP3    H252010   3.709   1.729   4.319  2.6058  1.7393 -0.8471
10199TIP3   OH252011   5.168   6.623  15.829 -0.1129 -0.1987 -0.1296
10199TIP3    H152012   5.111   6.564  15.879 -1.2312  1.3158  0.4798
10199TIP3    H252013   5.250   6.576  15.820 -1.0704 -1.9822  0.0243
10200TIP3   OH252014   5.198   2.024  15.315 -0.4324 -0.1811 -0.5099
10200TIP3    H152015   5.135   2.005  15.384  0.1503 -0.8097 -0.1458
10200TIP3    H252016   5.148   2.010  15.234 -0.7188 -0.8599 -0.2291
10201TIP3   OH252017   1.051   3.079  10.893  0.3490 -0.2842 -0.0723
10201TIP3    H152018   1.003   3.109  10.971 -1.8845 -1.7210 -0.7756
10201TIP3    H252019   1.122   3.025  10.929 -0.0583 -0.1491  0.9898
10202TIP3   OH252020   1.775   3.416  12.964 -0.0969 -0.2557 -0.1808
10202TIP3    H152021   1.745   3.339  12.916 -1.7028  0.8673 -1.0703
10202TIP3    H252022   1.825   3.466  12.901 -0.1386  0.0440  0.0195
10203TIP3   OH252023   4.942   0.968   3.107  0.0834  0.0385 -0.2353
10203TIP3    H152024   4.999   0.909   3.059 -0.7235 -0.2873 -0.8154
10203TIP3    H252025   4.918   0.920   3.187 -0.9837 -0.6402 -0.9480
10204TIP3   OH252026   3.179   4.553  16.958 -0.0903  0.0699 -0.1422
10204TIP3    H152027   3.127   4.539  16.879  0.2555  0.5073 -0.4528
10204TIP3    H252028   3.116   4.578  17.025 -0.0942  2.7344 -1.0296
10205TIP3   OH252029   3.916   1.920  12.443  0.2231 -0.3520  0.1428
10205TIP3    H152030   3.841   1.930  12.384 -1.3281 -1.3320  1.8580
10205TIP3    H252031   3.989   1.959  12.395 -1.3255  0.4972 -1.6670
10206TIP3   OH252032   6.695   5.403   4.724 -0.3363  0.6822 -0.6095
10206TIP3    H152033   6.753   5.327   4.730 -1.0730  0.1718  0.4273
10206TIP3    H252034   6.640   5.385   4.647  0.2675  0.7476 -1.0671
10207TIP3   OH252035   6.781   3.929  11.154 -0.4371  0.0430  0.5579
10207TIP3    H152036   6.734   3.862  11.104  3.8965 -3.8033  0.9555
10207TIP3    H252037   6.810   3.992  11.088 -0.1914 -1.4788 -0.8722
10208TIP3   OH252038   4.871   1.390   6.132  0.1194 -0.0615  0.1289
10208TIP3    H152039   4.859   1.298   6.156 -1.9378 -0.2697 -1.3779
10208TIP3    H252040   4.835   1.439   6.205 -0.0624 -0.4876  0.3274
10209TIP3   OH252041   1.083   2.215  12.010  0.3722 -0.2024  0.0831
10209TIP3    H152042   1.010   2.268  11.977  0.9326  0.2016 -0.5464
10209TIP3    H252043   1.161   2.261  11.980  0.9323  0.1718  2.0001
10210TIP3   OH252044   1.297   4.501   3.543 -0.0800 -0.3437  0.0300
10210TIP3    H152045   1.333   4.419   3.578  2.3163  1.1158  1.2642
10210TIP3    H252046   1.358   4.568   3.572 -2.2590  2.0066 -0.4253
10211TIP3   OH252047   6.270   1.197   5.299 -0.5795 -0.0534 -0.1487
10211TIP3    H152048   6.331   1.260   5.261 -2.1506  2.4716  1.2224
10211TIP3    H252049   6.183   1.231   5.278 -1.4928 -1.0705  1.6661
10212TIP3   OH252050   1.102   4.807  15.290  0.6845 -0.1917 -0.0245
10212TIP3    H152051   1.046   4.850  15.354  0.8350 -0.0862  0.0369
10212TIP3    H252052   1.114   4.873  15.221 -0.1446 -0.5824 -0.5638
10213TIP3   OH252053   5.574   1.145   1.290 -0.6907 -0.6290  0.3161
10213TIP3    H152054   5.669   1.146   1.277 -0.8352  1.8475 -1.2072
10213TIP3    H252055   5.559   1.202   1.365 -0.9622 -1.8388  1.2188
10214TIP3   OH252056   0.529   1.195   6.051  0.4160 -0.5288  0.3218
10214TIP3    H152057   0.485   1.280   6.059  1.4994  0.1745 -0.8161
10214TIP3    H252058   0.573   1.184   6.135  0.1097 -0.0615  0.5542
10215TIP3   OH252059   2.930   1.296   4.491 -0.2376 -0.1245 -0.2076
10215TIP3    H152060   2.839   1.319   4.507 -0.0317  0.4428  0.1984
10215TIP3    H252061   2.943   1.313   4.398 -0.9343 -1.6143 -0.5922
10216TIP3   OH252062   0.521   5.476  12.357  0.4303  0.2867  0.1223
10216TIP3    H152063   0.510   5.390  12.319 -0.4260  0.0266  0.9191
10216TIP3    H252064   0.614   5.496  12.346  0.5738 -0.6061 -0.3272
10217TIP3   OH252065   6.092   2.372   0.464  0.0763  0.1640 -0.0615
10217TIP3    H152066   6.136   2.288   0.477  1.7827  0.6061 -2.3715
10217TIP3    H252067   6.163   2.435   0.451 -1.1677  1.3576 -1.5535
10218TIP3   OH252068   2.183   4.983  11.491 -0.1541  0.2095  0.5441
10218TIP3    H152069   2.198   4.919  11.421  0.3482  0.5130  0.3751
10218TIP3    H252070   2.211   5.066  11.454 -1.9079  0.7591  0.3319
10219TIP3   OH252071   1.445   0.867  15.717  0.2060  0.3787 -0.1663
10219TIP3    H152072   1.520   0.808  15.708 -0.3971 -0.4496  0.1324
10219TIP3    H252073   1.461   0.935  15.653  0.5483 -0.5177 -1.0616
10220TIP3   OH252074   3.884   0.631   6.391 -0.3880  0.3135 -0.0050
10220TIP3    H152075   3.799   0.647   6.433 -0.2469  1.7746 -0.2361
10220TIP3    H252076   3.909   0.544   6.421 -0.3726  1.2092  2.8555
10221TIP3   OH252077   3.732   6.771  16.673 -0.1239 -0.1697 -0.8359
10221TIP3    H152078   3.703   6.854  16.712 -0.0675 -0.7580  0.5495
10221TIP3    H252079   3.819   6.758  16.709  0.5634 -0.0152 -2.3990
10222TIP3   OH252080   4.318   6.332   1.294 -0.1551 -0.7232  0.1290
10222TIP3    H152081   4.283   6.304   1.379 -0.3150  0.4833  0.4816
10222TIP3    H252082   4.373   6.258   1.266 -1.6517 -1.9561  0.3320
10223TIP3   OH252083   6.256   4.602  15.532 -0.1844  0.1727 -0.1265
10223TIP3    H152084   6.179   4.589  15.586  1.1125 -3.9116  1.1461
10223TIP3    H252085   6.330   4.596  15.593  1.2303  0.6256 -1.7030
10224TIP3   OH252086   5.083   3.916   4.361 -0.1396  0.1383 -0.0152
10224TIP3    H152087   4.995   3.900   4.327  0.4138 -0.4463 -1.2035
10224TIP3    H252088   5.110   3.832   4.399  0.5198 -0.1538 -1.0962
10225TIP3   OH252089   2.367   4.898   1.347  0.5274 -0.6338  0.0320
10225TIP3    H152090   2.412   4.961   1.403 -0.3476  0.8544 -0.8673
10225TIP3    H252091   2.282   4.884   1.390 -0.0764  0.3784 -0.7822
10226TIP3   OH252092   6.102   2.954  14.237 -0.0185  0.8037  0.0132
10226TIP3    H152093   6.170   2.889  14.251 -0.1198  0.8885  0.9477
10226TIP3    H252094   6.115   2.985  14.147 -0.7331 -1.3904 -0.9023
10227TIP3   OH252095   4.754   6.520   0.695  0.1544 -0.2361 -0.2691
10227TIP3    H152096   4.761   6.447   0.634  1.1293  0.4193 -0.9732
10227TIP3    H252097   4.845   6.544   0.713 -0.1466  0.4510  0.3844
10228TIP3   OH252098   5.611   4.828   3.046  0.3938  0.3168 -0.7415
10228TIP3    H152099   5.522   4.862   3.034 -0.3329 -1.1105  0.3705
10228TIP3    H252100   5.661   4.903   3.079 -1.0095  0.5315  1.0262
10229TIP3   OH252101   3.432   0.261  13.770  0.1100  0.3375 -0.3320
10229TIP3    H152102   3.508   0.210  13.800 -1.3837 -1.1668  1.0795
10229TIP3    H252103   3.383   0.201  13.713 -1.2769  0.4265  0.7249
10230TIP3   OH252104   4.948   0.956   1.331  0.1747 -0.9327 -0.4047
10230TIP3    H152105   4.905   0.946   1.416 -0.0074 -0.5604 -0.4488
10230TIP3    H252106   4.878   0.981   1.272  0.3474 -0.9372 -0.6108
10231TIP3   OH252107   3.301   3.190   5.992 -0.1234 -0.2218  0.1561
10231TIP3    H152108   3.371   3.164   6.052 -1.5289  1.1298  2.5532
10231TIP3    H252109   3.341   3.253   5.933  0.7818  0.2879  1.2811
10232TIP3   OH252110   6.155   1.318  16.928  0.2674  0.1180 -0.1509
10232TIP3    H152111   6.103   1.392  16.960  0.1978  0.3433 -0.7839
10232TIP3    H252112   6.119   1.298  16.842 -0.5709 -1.5004  0.5335
10233TIP3   OH252113   5.971   2.391   5.965 -0.6674  0.3808  0.0817
10233TIP3    H152114   5.999   2.319   6.022 -1.1822  0.8136  0.9110
10233TIP3    H252115   5.876   2.394   5.975 -0.5276  2.2740  1.4834
10234TIP3   OH252116   5.143   1.742  12.188 -0.2690  0.1672  0.0823
10234TIP3    H152117   5.177   1.698  12.266  0.5460 -2.3316 -1.5434
10234TIP3    H252118   5.049   1.750  12.204 -0.0262  0.2484  1.5579
10235TIP3   OH252119   1.188   2.666  16.260  0.4797  0.1501 -0.7011
10235TIP3    H152120   1.211   2.613  16.337 -0.8367 -0.1587 -0.4980
10235TIP3    H252121   1.271   2.705  16.232  1.5148 -2.0625 -0.8915
10236TIP3   OH252122   5.119   0.185   1.677  0.0201 -0.8340  0.1805
10236TIP3    H152123   5.119   0.268   1.629 -0.9609 -0.7637  0.2990
10236TIP3    H252124   5.171   0.203   1.755  0.2094 -0.4707 -0.0259
10237TIP3   OH252125   1.839   3.468   1.215  0.2913  0.0859 -0.2060
10237TIP3    H152126   1.911   3.428   1.265  0.3664 -1.7471 -1.6873
10237TIP3    H252127   1.882   3.533   1.159  0.6249 -0.1167 -0.1872
10238TIP3   OH252128   5.771   4.090   1.263  0.8368 -0.4012 -0.3811
10238TIP3    H152129   5.834   4.114   1.331  0.0274 -1.5159  0.8157
10238TIP3    H252130   5.773   4.164   1.202  0.9411  1.0797  1.3251
10239TIP3   OH252131   0.385   4.880   5.876 -0.1610  0.2736  0.4047
10239TIP3    H152132   0.295   4.865   5.846  0.3833 -0.3465 -1.0017
10239TIP3    H252133   0.419   4.792   5.893  1.0223  0.2568 -1.7277
10240TIP3   OH252134   2.592   5.619   5.320  0.6645 -0.1570 -0.2249
10240TIP3    H152135   2.638   5.536   5.310  1.2785 -0.3327  2.9443
10240TIP3    H252136   2.531   5.604   5.392  1.1843  2.2689  0.8140
10241TIP3   OH252137   2.066   2.096   3.385  0.0257  0.6549 -0.4740
10241TIP3    H152138   2.133   2.030   3.406  0.9496  0.1728 -4.2580
10241TIP3    H252139   2.117   2.175   3.367 -0.6699  1.0253 -0.8146
10242TIP3   OH252140   3.196   0.316  16.482 -0.3928 -0.2830 -0.3515
10242TIP3    H152141   3.128   0.338  16.419 -0.5828 -0.6161 -0.2626
10242TIP3    H252142   3.169   0.232  16.518 -0.6170  0.2106  0.6527
10243TIP3   OH252143   1.603   0.989  11.462 -0.0785  0.2304 -0.0135
10243TIP3    H152144   1.675   1.051  11.446 -0.0063  0.0008 -0.5886
10243TIP3    H252145   1.600   0.935  11.384 -0.1750 -0.4732  0.4664
10244TIP3   OH252146   5.473   4.662   4.778  0.4254  0.0371 -0.0210
10244TIP3    H152147   5.441   4.637   4.691  1.7035  1.1891 -0.8542
10244TIP3    H252148   5.554   4.611   4.789 -0.3709 -1.0422  1.0450
10245TIP3   OH252149   3.448   1.159  15.487  0.0757  0.3325 -0.3915
10245TIP3    H152150   3.515   1.170  15.555  0.8470 -0.4156 -0.9969
10245TIP3    H252151   3.474   1.079  15.441 -1.5930 -0.3194 -0.2633
10246TIP3   OH252152   4.032   3.247   1.633  0.3629  0.3124 -0.1171
10246TIP3    H152153   4.093   3.307   1.590  1.0237  0.7531  1.3769
10246TIP3    H252154   3.948   3.293   1.632  0.3790  0.3459 -0.8333
10247TIP3   OH252155   0.629   3.937   1.273 -0.0599 -0.5319  0.0274
10247TIP3    H152156   0.538   3.960   1.253 -0.1184  0.3399  1.1669
10247TIP3    H252157   0.669   3.919   1.188 -0.5182  2.0443 -0.8218
10248TIP3   OH252158   0.261   4.728   3.430 -0.0661  0.1864 -0.2497
10248TIP3    H152159   0.169   4.738   3.456 -0.1411 -0.3213 -0.3117
10248TIP3    H252160   0.304   4.695   3.509  0.3072  1.5850  0.1556
10249TIP3   OH252161   3.622   4.793   4.699 -0.1545 -0.0252  0.0203
10249TIP3    H152162   3.714   4.785   4.674 -0.0423 -4.1169  0.9352
10249TIP3    H252163   3.623   4.841   4.782  1.3071 -0.8465  0.5194
10250TIP3   OH252164   6.613   2.322  17.171  0.0318  0.0967 -0.9421
10250TIP3    H152165   6.707   2.310  17.162 -0.0905 -1.0580 -0.8748
10250TIP3    H252166   6.586   2.366  17.091  0.6115  0.3179 -1.0170
10251TIP3   OH252167   0.774   6.162   0.508  0.0253  0.1404  0.5367
10251TIP3    H152168   0.720   6.090   0.541 -1.9283  0.6576 -1.2878
10251TIP3    H252169   0.860   6.122   0.493 -1.0856 -1.9787 -0.7443
10252TIP3   OH252170   5.151   3.200  13.353 -0.8725  0.5811  0.0671
10252TIP3    H152171   5.217   3.245  13.405 -0.4155 -0.7612  0.7037
10252TIP3    H252172   5.099   3.270  13.314 -0.3336  1.6441  1.1837
10253TIP3   OH252173   3.156   6.422   3.324  0.1190 -0.1982  0.0133
10253TIP3    H152174   3.112   6.380   3.398 -1.5743 -0.4479 -1.0709
10253TIP3    H252175   3.097   6.407   3.250  0.9341  1.5154 -1.0402
10254TIP3   OH252176   0.054   6.351  12.869  0.1660 -0.1697 -0.3469
10254TIP3    H152177   0.106   6.425  12.838  0.8824 -0.5350 -0.0433
10254TIP3    H252178   0.086   6.276  12.819  1.2558 -0.7485  1.1445
10255TIP3   OH252179   0.490   3.624  14.612 -0.1416  0.1065  0.1111
10255TIP3    H152180   0.439   3.593  14.686  0.2220  0.3070  0.4507
10255TIP3    H252181   0.537   3.700  14.645  0.3832 -0.0786 -0.1897
10256TIP3   OH252182   1.539   1.128  16.439  0.5584 -0.0823 -0.1153
10256TIP3    H152183   1.510   1.127  16.530 -0.8058  1.6396 -0.4853
10256TIP3    H252184   1.474   1.076  16.392 -0.1704  1.0904 -0.4503
10257TIP3   OH252185   3.676   0.134  13.824  0.2520  0.5119 -0.1564
10257TIP3    H152186   3.704   0.129  13.916 -0.2971  0.1543  0.0001
10257TIP3    H252187   3.719   0.060  13.782 -0.7257 -0.2649  0.1663
10258TIP3   OH252188   3.468   5.075  13.421  0.3937 -0.1342  0.5631
10258TIP3    H152189   3.406   5.143  13.445 -2.9019 -3.2296  1.8101
10258TIP3    H252190   3.455   5.063  13.326 -0.5042 -0.3068  0.6964
10259TIP3   OH252191   0.910   0.958  15.306  0.4401  0.0814 -0.2560
10259TIP3    H152192   0.983   0.896  15.311  1.1936  0.8468 -1.2600
10259TIP3    H252193   0.835   0.905  15.281  1.0888 -0.4397 -1.1897
10260TIP3   OH252194   5.743   2.489  17.135 -0.2802  0.0748 -0.4001
10260TIP3    H152195   5.750   2.550  17.062 -1.8531  0.6999 -0.0724
10260TIP3    H252196   5.649   2.483  17.152 -0.0314 -1.0987  0.7087
10261TIP3   OH252197   6.161   4.972  16.143 -0.0201  0.2153 -0.0308
10261TIP3    H152198   6.123   5.052  16.181  0.2969 -0.0570  0.8943
10261TIP3    H252199   6.225   4.944  16.208 -0.4332 -1.0351 -0.1432
10262TIP3   OH252200   5.636   1.084   4.052 -0.2695  0.5485  0.0327
10262TIP3    H152201   5.590   1.119   3.975 -0.5008  0.3087  0.0624
10262TIP3    H252202   5.574   1.093   4.124 -0.5343 -0.4118 -0.0638
10263TIP3   OH252203   4.325   0.687  11.995  0.0363 -0.3664  0.5593
10263TIP3    H152204   4.273   0.607  12.001  0.2028 -0.4468  0.9693
10263TIP3    H252205   4.264   0.757  12.019 -0.2133 -0.3252 -0.1825
10264TIP3   OH252206   5.255   0.759   6.677 -0.7792  0.7058  0.1965
10264TIP3    H152207   5.223   0.685   6.728 -1.9830  1.1154  0.0663
10264TIP3    H252208   5.251   0.833   6.737 -1.5633  1.0621 -0.2824
10265TIP3   OH252209   1.306   6.122   4.809  0.6881 -0.4002  0.1888
10265TIP3    H152210   1.210   6.123   4.808  0.6273  2.4143 -0.2627
10265TIP3    H252211   1.331   6.089   4.723 -0.0430  2.2574 -1.1660
10266TIP3   OH252212   1.165   5.960  15.728  0.6195 -0.5853  0.4223
10266TIP3    H152213   1.088   5.991  15.776  1.1730 -0.0517  0.9776
10266TIP3    H252214   1.217   5.914  15.794  0.5813 -1.3267 -0.0470
10267TIP3   OH252215   3.635   3.085  13.323  0.2710  0.0541 -0.2161
10267TIP3    H152216   3.576   3.159  13.308  0.9706  0.6680  0.0085
10267TIP3    H252217   3.586   3.027  13.383  0.0621  0.7627  0.3092
10268TIP3   OH252218   0.546   1.131  16.645  0.3159 -0.4675  0.1920
10268TIP3    H152219   0.488   1.174  16.582  0.1078 -1.3328 -0.2184
10268TIP3    H252220   0.614   1.196  16.663  0.1144 -0.0385 -0.5569
10269TIP3   OH252221   6.099   4.751   6.556  0.3138  0.2110  0.6225
10269TIP3    H152222   6.049   4.675   6.524 -0.8933  1.3445 -0.3285
10269TIP3    H252223   6.188   4.735   6.526 -0.0936 -0.4494 -0.3132
10270TIP3   OH252224   4.133   6.657  16.974 -0.1436  0.1701 -0.3771
10270TIP3    H152225   4.197   6.671  17.043  0.3079 -0.3388 -0.6810
10270TIP3    H252226   4.142   6.564  16.952 -0.7890  0.1611 -0.6166
10271TIP3   OH252227   4.675   4.776   2.607 -0.6095  0.1758 -0.2020
10271TIP3    H152228   4.654   4.857   2.559  0.8827  0.9454  0.3756
10271TIP3    H252229   4.624   4.782   2.688 -1.7341 -0.2550 -0.8543
10272TIP3   OH252230   1.935   5.278   3.118 -0.6164 -0.1351 -0.6429
10272TIP3    H152231   1.865   5.336   3.087 -1.5120 -0.8844 -0.0721
10272TIP3    H252232   1.938   5.208   3.053  0.4734  0.5165 -1.3383
10273TIP3   OH252233   4.242   3.843  13.211 -0.5029 -0.4230  0.4426
10273TIP3    H152234   4.191   3.801  13.142  0.3445  0.3359 -0.6825
10273TIP3    H252235   4.177   3.881  13.270 -1.2561  0.4852 -0.9258
10274TIP3   OH252236   4.699   4.268  14.409  0.3250  0.1080  0.1521
10274TIP3    H152237   4.761   4.195  14.409 -0.0595 -0.2598  1.7802
10274TIP3    H252238   4.742   4.336  14.460  0.4325  0.8252 -0.8662
10275TIP3   OH252239   1.407   2.821   0.558 -0.3457 -0.0064  0.5334
10275TIP3    H152240   1.500   2.809   0.580 -0.2079 -0.3756 -0.2313
10275TIP3    H252241   1.407   2.854   0.469 -0.9602 -0.2980  0.4204
10276TIP3   OH252242   3.074   3.448  17.165 -0.4932 -0.2377 -0.8899
10276TIP3    H152243   3.060   3.540  17.141 -0.1491 -0.2551 -1.1674
10276TIP3    H252244   3.156   3.449  17.215 -2.0604  0.0598  1.8666
10277TIP3   OH252245   5.882   1.726  11.741 -0.1497  0.4076 -0.1004
10277TIP3    H152246   5.793   1.702  11.767  0.3097 -0.6718  0.5502
10277TIP3    H252247   5.879   1.821  11.728 -1.1926  0.4980  0.7138
10278TIP3   OH252248   3.768   4.947  13.182  0.4450  0.5063  0.1811
10278TIP3    H152249   3.760   4.992  13.266 -2.3078 -0.5288  0.5844
10278TIP3    H252250   3.753   4.855  13.203 -0.0198  0.1914 -1.4077
10279TIP3   OH252251   3.757   1.364   2.193 -0.1214  0.1040 -0.7160
10279TIP3    H152252   3.848   1.380   2.217  0.1542 -0.3858 -1.4086
10279TIP3    H252253   3.725   1.450   2.163 -0.5496  0.7947  1.5262
10280TIP3   OH252254   1.557   2.792  13.112 -0.3969  0.0906  0.0597
10280TIP3    H152255   1.464   2.774  13.102  0.0352 -1.5105 -1.6533
10280TIP3    H252256   1.593   2.784  13.023  1.5961 -0.8691  0.8918
10281TIP3   OH252257   4.822   5.894  14.938 -0.2594 -0.4397 -0.7321
10281TIP3    H152258   4.785   5.870  15.023 -1.8027 -1.2671 -1.6141
10281TIP3    H252259   4.872   5.817  14.911 -0.8813 -0.6881 -1.1807
10282TIP3   OH252260   6.195   2.903  17.116  0.0127  0.2101 -0.6263
10282TIP3    H152261   6.117   2.957  17.130 -0.9546 -0.6679 -2.4236
10282TIP3    H252262   6.162   2.820  17.083  1.6692 -0.5369 -0.5120
10283TIP3   OH252263   1.805   0.103   4.150 -0.2847  0.6260  0.0636
10283TIP3    H152264   1.779   0.184   4.195  0.6670  2.3219 -2.2594
10283TIP3    H252265   1.870   0.131   4.085 -1.6964 -1.5851 -2.5059
10284TIP3   OH252266   5.858   5.312   1.788  0.3654 -0.2830 -0.1986
10284TIP3    H152267   5.953   5.324   1.780  0.1207  0.8041 -2.0199
10284TIP3    H252268   5.826   5.312   1.698 -1.4306 -0.2131  0.3942
10285TIP3   OH252269   6.399   6.716  17.197  0.4439  0.1670 -0.2127
10285TIP3    H152270   6.418   6.798  17.151  1.2460  0.3269  0.3742
10285TIP3    H252271   6.485   6.676  17.211  0.1271 -0.3589  0.2541
10286TIP3   OH252272   1.276   3.152  14.262  0.1299  0.2587  0.9420
10286TIP3    H152273   1.351   3.100  14.290 -0.0428 -2.4624 -2.9365
10286TIP3    H252274   1.291   3.167  14.168 -2.7610  2.1958  0.6695
10287TIP3   OH252275   3.151   1.671   5.754  0.1986  0.0086  0.0921
10287TIP3    H152276   3.188   1.636   5.835  0.0194  1.6218  0.9048
10287TIP3    H252277   3.066   1.707   5.781 -0.1709 -0.0413 -0.9619
10288TIP3   OH252278   3.647   0.189   4.278 -0.2007  0.5754  0.4117
10288TIP3    H152279   3.732   0.211   4.315  0.3636  2.5146 -1.7684
10288TIP3    H252280   3.655   0.097   4.252  0.4680  0.1345  2.0282
10289TIP3   OH252281   2.378   5.103   2.534 -0.5829  0.6672  0.3280
10289TIP3    H152282   2.410   5.124   2.622 -0.9689 -2.4201  1.3404
10289TIP3    H252283   2.455   5.109   2.478 -0.0242  1.2798  1.1363
10290TIP3   OH252284   3.421   3.723  14.846  0.2085 -0.1693 -0.2123
10290TIP3    H152285   3.465   3.699  14.927  1.7406 -0.7414 -1.1577
10290TIP3    H252286   3.492   3.752  14.788 -0.9481  1.1610 -1.0392
10291TIP3   OH252287   3.797   0.428   3.108  0.3297  0.0126  0.4538
10291TIP3    H152288   3.793   0.402   3.016 -2.0167 -0.7768  0.7019
10291TIP3    H252289   3.773   0.349   3.156 -0.4141  0.9087  1.6067
10292TIP3   OH252290   5.917   5.682   5.438  0.5230  0.1594  0.1179
10292TIP3    H152291   5.842   5.711   5.490 -0.5380 -0.8878 -0.7575
10292TIP3    H252292   5.877   5.636   5.363  1.9911  1.2939 -1.4332
10293TIP3   OH252293   0.593   6.502  14.622 -0.4529 -0.1547  0.2341
10293TIP3    H152294   0.537   6.577  14.643 -1.9689 -1.1006 -0.2751
10293TIP3    H252295   0.667   6.510  14.682 -0.6295  1.6674  0.2770
10294TIP3   OH252296   0.205   0.483  13.243 -0.3900 -0.1341  0.2806
10294TIP3    H152297   0.111   0.496  13.232 -0.1676 -0.3199 -2.2027
10294TIP3    H252298   0.213   0.393  13.273 -0.9778 -0.1953  0.2642
10295TIP3   OH252299   4.129   1.316  17.061 -0.2396 -0.2067 -0.2157
10295TIP3    H152300   4.212   1.352  17.030  0.1546 -1.0843 -0.1936
10295TIP3    H252301   4.064   1.381  17.034  0.4115  0.3253 -0.5352
10296TIP3   OH252302   0.729   1.356   2.035  0.4424  0.0893 -0.1947
10296TIP3    H152303   0.719   1.315   1.949  2.8380 -0.8721 -0.0880
10296TIP3    H252304   0.704   1.287   2.097 -0.8807  0.6490 -0.0746
10297TIP3   OH252305   1.451   6.746   6.572 -0.0527 -0.4019 -0.0851
10297TIP3    H152306   1.532   6.789   6.544  0.0075  0.3585  1.1842
10297TIP3    H252307   1.389   6.818   6.586  0.1144 -0.6456  2.2988
10298TIP3   OH252308   5.749   0.628  12.465 -0.2982 -0.1645 -0.7906
10298TIP3    H152309   5.767   0.703  12.409  1.3785  0.2509  0.2400
10298TIP3    H252310   5.692   0.661  12.533 -0.0448  0.0445 -0.6764
10299TIP3   OH252311   5.055   4.675   0.680  0.0172 -0.0706 -0.6591
10299TIP3    H152312   4.974   4.726   0.681 -0.7796 -1.2813  0.7215
10299TIP3    H252313   5.060   4.638   0.592  0.4154  1.9980 -1.5665
10300TIP3   OH252314   3.152   4.973   2.445 -0.3713  0.6754 -0.4119
10300TIP3    H152315   3.200   4.951   2.365 -1.0511 -0.3596 -0.5592
10300TIP3    H252316   3.114   5.059   2.428 -1.2915  0.0709 -1.5936
10301TIP3   OH252317   6.010   1.352   5.234 -0.5471  0.0829 -0.9102
10301TIP3    H152318   5.974   1.349   5.323  0.7147  1.3470 -0.3228
10301TIP3    H252319   5.938   1.384   5.180 -1.1336 -0.0844 -0.2429
10302TIP3   OH252320   0.586   5.401  11.834 -0.3228  0.2815 -0.4921
10302TIP3    H152321   0.521   5.343  11.795 -0.6472  0.7577 -0.6746
10302TIP3    H252322   0.667   5.383  11.787 -0.1297 -0.8423  0.2266
10303TIP3   OH252323   6.525   2.421  15.162  0.8929  0.1914 -0.1700
10303TIP3    H152324   6.595   2.395  15.222  0.5876 -0.4882 -0.1011
10303TIP3    H252325   6.501   2.510  15.191  1.1374  0.0900  0.3583
10304TIP3   OH252326   3.316   0.894   4.117  0.2092 -0.5199 -0.1266
10304TIP3    H152327   3.378   0.899   4.044 -1.7448 -0.4621 -1.8860
10304TIP3    H252328   3.346   0.960   4.179  1.7049 -0.2718 -1.0687
10305TIP3   OH252329   6.687   3.762   5.335  1.0074  0.2153  0.3023
10305TIP3    H152330   6.713   3.853   5.344  0.8079  0.4540 -1.1993
10305TIP3    H252331   6.628   3.746   5.408  1.5580  1.0875  0.9510
10306TIP3   OH252332   1.811   2.542  16.390  0.4374 -0.8782  0.6403
10306TIP3    H152333   1.852   2.628  16.405 -1.2810  0.1299 -0.0935
10306TIP3    H252334   1.855   2.508  16.312  0.2276 -0.0119  0.1175
10307TIP3   OH252335   0.365   5.135  11.382 -0.1115 -0.0316  0.1122
10307TIP3    H152336   0.448   5.160  11.340 -0.6483 -0.3996 -1.1984
10307TIP3    H252337   0.323   5.219  11.403  1.0939  0.1829  1.8845
10308TIP3   OH252338   0.354   0.655   1.853 -0.2510 -0.0681  0.0999
10308TIP3    H152339   0.384   0.690   1.937  1.3285 -1.2668  0.0914
10308TIP3    H252340   0.280   0.711   1.828  1.6979  2.8566  0.3504
10309TIP3   OH252341   5.269   3.899  12.455 -0.1405 -0.2623  0.1381
10309TIP3    H152342   5.304   3.955  12.523  2.1137 -0.2165 -0.9665
10309TIP3    H252343   5.186   3.939  12.431 -1.4408 -0.7580  3.3588
10310TIP3   OH252344   6.739   0.542  11.553 -0.4125  0.0778 -0.0135
10310TIP3    H152345   6.722   0.452  11.527 -0.3243  0.0272  0.1032
10310TIP3    H252346   6.766   0.536  11.645  2.2475 -0.0712 -0.7272
10311TIP3   OH252347   4.489   0.574   1.853  0.1430  0.0110  0.5260
10311TIP3    H152348   4.468   0.485   1.881 -0.2374 -0.1923 -0.3669
10311TIP3    H252349   4.538   0.611   1.926 -0.5308 -0.6043  1.3222
10312TIP3   OH252350   5.192   2.086   5.699  0.1215  0.0075 -0.0261
10312TIP3    H152351   5.139   2.159   5.666  0.4993 -0.7451 -2.4993
10312TIP3    H252352   5.238   2.122   5.774 -1.6653  1.5345  0.4316
10313TIP3   OH252353   1.530   3.831  12.519  0.4998 -0.0671  0.0316
10313TIP3    H152354   1.466   3.767  12.548  0.8016  0.0199  0.9161
10313TIP3    H252355   1.514   3.840  12.425  0.1502 -1.0889 -0.0189
10314TIP3   OH252356   3.683   5.424   0.748  0.2443  0.8197 -0.3267
10314TIP3    H152357   3.778   5.432   0.750  0.0851  3.4173  1.8061
10314TIP3    H252358   3.651   5.509   0.719 -1.4628  0.5143  0.4935
10315TIP3   OH252359   1.418   3.909  11.893 -0.4557 -0.0594 -0.0972
10315TIP3    H152360   1.446   3.999  11.878 -1.0153  0.4076  1.5180
10315TIP3    H252361   1.496   3.866  11.929 -0.8609  0.4315  1.4296
10316TIP3   OH252362   0.669   5.972  16.499 -0.3360 -0.3587 -0.2087
10316TIP3    H152363   0.719   5.960  16.580  0.2028  0.4026 -0.4202
10316TIP3    H252364   0.732   6.006  16.436 -0.5344 -1.8225 -1.2417
10317TIP3   OH252365   2.054   5.633   1.992 -0.5250 -0.0197  0.5500
10317TIP3    H152366   2.076   5.707   2.049  1.0657 -0.9151  1.1481
10317TIP3    H252367   2.057   5.670   1.904 -2.1178  1.1674  0.9352
10318TIP3   OH252368   1.244   0.023  11.616  0.7102  0.0906 -0.7110
10318TIP3    H152369   1.288   0.069  11.688 -1.4350  0.6522  0.3094
10318TIP3    H252370   1.213   0.093  11.559 -0.4976 -0.1552 -0.3926
10319TIP3   OH252371   0.776   2.667   1.754 -0.7826 -0.1666  0.1010
10319TIP3    H152372   0.729   2.611   1.816 -1.9874 -0.5310 -1.1074
10319TIP3    H252373   0.715   2.681   1.682  1.2076 -1.3395 -1.9680
10320TIP3   OH252374   6.488   1.466   3.765  0.0486 -0.7331  0.1567
10320TIP3    H152375   6.480   1.512   3.849 -0.7370 -0.2987 -0.1443
10320TIP3    H252376   6.548   1.394   3.783  0.2223 -0.3960  0.9864
10321TIP3   OH252377   0.721   0.031  16.917  0.4161  0.2000 -0.2063
10321TIP3    H152378   0.807   0.032  16.876  1.4231  1.6946  1.7311
10321TIP3    H252379   0.730   0.088  16.993 -1.9026 -0.7302  0.8886
10322TIP3   OH252380   6.782   6.601  12.693  0.4787  0.4818  0.0313
10322TIP3    H152381   6.709   6.646  12.651  0.3952  0.3379  0.0197
10322TIP3    H252382   6.854   6.608  12.630 -0.2499 -1.6046 -1.1329
10323TIP3   OH252383   2.886   0.373  15.731 -0.0579  0.6059  0.3916
10323TIP3    H152384   2.791   0.373  15.720 -0.0897 -1.4048  0.3930
10323TIP3    H252385   2.901   0.429  15.807 -1.2531  0.7857  0.5214
10324TIP3   OH252386   3.715   0.218   1.302  0.7477  0.0507  0.0722
10324TIP3    H152387   3.708   0.206   1.207 -0.1003 -0.1982  0.1537
10324TIP3    H252388   3.809   0.226   1.318  0.8128  2.5224 -1.0785
10325TIP3   OH252389   1.671   0.976   1.351  0.0230  0.1483 -0.5145
10325TIP3    H152390   1.719   1.058   1.338 -0.7975  0.4099 -2.2320
10325TIP3    H252391   1.588   1.002   1.391 -0.0539  0.1078 -0.6454
10326TIP3   OH252392   3.668   1.008  15.570 -0.4967  0.6678  0.3420
10326TIP3    H152393   3.755   1.014  15.610 -0.1713  0.7637 -0.3744
10326TIP3    H252394   3.680   1.040  15.481 -1.2031  0.3820  0.1383
10327TIP3   OH252395   3.553   3.193  13.070  0.1688  0.6981  0.2058
10327TIP3    H152396   3.478   3.246  13.042 -0.4814  0.1198  0.8177
10327TIP3    H252397   3.530   3.104  13.044  0.5352  0.4811  0.6189
10328TIP3   OH252398   2.644   2.555   2.826 -0.1168  0.2360  0.3098
10328TIP3    H152399   2.728   2.596   2.847 -0.4522  1.3033 -0.3237
10328TIP3    H252400   2.644   2.472   2.875  2.4109 -1.0734 -1.6911
10329TIP3   OH252401   0.649   5.089   2.319 -0.7411  0.5113  0.3319
10329TIP3    H152402   0.730   5.141   2.315 -0.2296 -0.3021 -0.0997
10329TIP3    H252403   0.631   5.081   2.413 -0.4887  0.9471  0.4223
10330TIP3   OH252404   1.943   2.452  11.362  0.1895 -0.5903  0.0709
10330TIP3    H152405   1.926   2.378  11.420  1.7739 -0.8267  0.2786
10330TIP3    H252406   1.880   2.442  11.291 -3.1188  0.7163  2.5436
10331TIP3   OH252407   2.739   6.466  12.223 -0.1201  0.2223 -0.2331
10331TIP3    H152408   2.828   6.500  12.229 -0.3784  1.8842 -3.4991
10331TIP3    H252409   2.685   6.544  12.208 -2.0156 -0.8543  0.6498
10332TIP3   OH252410   4.299   6.423   6.581 -0.5161 -0.9891  0.0498
10332TIP3    H152411   4.220   6.441   6.530  0.0324 -0.2702 -0.5740
10332TIP3    H252412   4.342   6.508   6.588  0.3925 -1.4415  0.0524
10333TIP3   OH252413   3.933   5.304   5.004 -0.0134 -0.4156 -0.1256
10333TIP3    H152414   3.919   5.300   5.098 -1.4084 -0.3674 -0.3034
10333TIP3    H252415   4.027   5.290   4.992  0.1686 -0.4528  1.2582
10334TIP3   OH252416   3.727   1.307   0.945 -0.3347 -0.0917 -0.5226
10334TIP3    H152417   3.810   1.269   0.978 -1.1257 -1.2700  0.2106
10334TIP3    H252418   3.677   1.231   0.914 -1.1477  0.6085 -0.9592
10335TIP3   OH252419   6.263   3.667  16.822 -0.4892  0.2141 -0.4096
10335TIP3    H152420   6.218   3.729  16.879 -0.2250 -0.3499  0.4307
10335TIP3    H252421   6.200   3.595  16.810 -0.1465 -0.1725  0.0652
10336TIP3   OH252422   1.236   0.260   1.888  0.9270  0.1031 -0.5958
10336TIP3    H152423   1.241   0.268   1.793 -1.1097  0.7928 -0.6809
10336TIP3    H252424   1.146   0.233   1.906  1.1744  0.3325  1.1516
10337TIP3   OH252425   5.345   2.349   1.579  0.2043  0.3231  0.2243
10337TIP3    H152426   5.293   2.286   1.529  2.0831  1.0317 -2.9058
10337TIP3    H252427   5.297   2.431   1.573  0.8093  0.6084 -1.3218
10338TIP3   OH252428   1.991   2.224   4.997 -0.0740 -0.3050 -0.0387
10338TIP3    H152429   1.982   2.165   4.922  1.7404  0.0327 -0.5610
10338TIP3    H252430   2.080   2.211   5.028 -0.7803 -0.4668  2.1258
10339TIP3   OH252431   1.173   3.494  15.439 -0.3930 -0.3245  0.2160
10339TIP3    H152432   1.169   3.492  15.343 -2.1014  1.2838  0.2086
10339TIP3    H252433   1.255   3.539  15.458 -0.3491 -0.0780 -0.5128
10340TIP3   OH252434   6.788   1.430   2.544  0.0884  0.5353  0.6009
10340TIP3    H152435   6.855   1.363   2.559  0.1630  0.3307 -0.5154
10340TIP3    H252436   6.705   1.386   2.561  0.2221  0.7906  1.9949
10341TIP3   OH252437   4.256   1.477   5.260  0.5902 -0.2696  0.7208
10341TIP3    H152438   4.193   1.421   5.215 -1.2604  1.0380  1.5313
10341TIP3    H252439   4.286   1.426   5.334  1.2455 -1.2591 -0.1968
10342TIP3   OH252440   0.213   1.999  14.579  0.1745  0.0207  0.0936
10342TIP3    H152441   0.121   1.991  14.555 -0.8636  2.0495  2.8728
10342TIP3    H252442   0.236   2.089  14.555  0.9691 -0.0076  0.7052
10343TIP3   OH252443   5.586   1.041   4.383 -0.7926  0.0507 -0.1074
10343TIP3    H152444   5.595   1.135   4.396 -0.8708  0.0159  0.2060
10343TIP3    H252445   5.550   1.009   4.465  0.2402 -0.4060  0.1886
10344TIP3   OH252446   0.748   0.473   1.440 -0.0101  0.6103  0.4454
10344TIP3    H152447   0.790   0.502   1.359 -2.0363  0.6981 -0.6250
10344TIP3    H252448   0.789   0.526   1.509 -0.4224  2.7787 -0.8932
10345TIP3   OH252449   0.561   6.704   3.658 -0.3016 -0.3462  0.1702
10345TIP3    H152450   0.474   6.673   3.681 -0.0242 -1.1758  0.1523
10345TIP3    H252451   0.586   6.762   3.730 -1.2979  0.7901 -0.3741
10346TIP3   OH252452   5.823   0.664   2.881  0.1087  0.4374 -0.0832
10346TIP3    H152453   5.861   0.676   2.968 -0.0260  1.6627 -0.1768
10346TIP3    H252454   5.893   0.626   2.829  0.8231  1.5099  0.0679
10347TIP3   OH252455   6.333   5.372   1.914  0.3143 -0.7286  0.4260
10347TIP3    H152456   6.362   5.366   2.005 -0.1530 -1.2288  0.5459
10347TIP3    H252457   6.296   5.286   1.895 -1.0122 -0.1361  0.2494
10348TIP3   OH252458   3.112   0.573  14.632 -0.1206  0.2388  0.6898
10348TIP3    H152459   3.099   0.537  14.720  2.0586  0.6716  1.2638
10348TIP3    H252460   3.121   0.667  14.646 -1.3140  0.5097 -0.2255
10349TIP3   OH252461   4.026   1.471  14.562  0.0517 -0.0908 -0.8432
10349TIP3    H152462   3.950   1.518  14.529  0.0872  0.4317 -0.1836
10349TIP3    H252463   4.011   1.462  14.656 -0.5137 -2.4553 -1.1155
10350TIP3   OH252464   3.669   2.648  11.184 -0.3850 -0.0623 -0.5313
10350TIP3    H152465   3.608   2.597  11.237  0.3964 -0.4721 -0.0085
10350TIP3    H252466   3.676   2.599  11.102 -1.6211  0.5904 -1.0473
10351TIP3   OH252467   6.243   1.446  13.235 -0.1399  0.1561  0.2746
10351TIP3    H152468   6.330   1.486  13.230  0.4808 -0.9217  1.7923
10351TIP3    H252469   6.258   1.362  13.280 -1.5512 -1.2818 -1.7597
10352TIP3   OH252470   0.417   1.806   5.280 -0.1417 -0.3928 -0.7284
10352TIP3    H152471   0.373   1.764   5.354 -0.1491  1.2895  0.2787
10352TIP3    H252472   0.437   1.734   5.220  0.6598 -1.9443  1.2835
10353TIP3   OH252473   6.402   0.532  14.996 -0.2983 -0.3324  0.3586
10353TIP3    H152474   6.354   0.474  14.937  1.6275 -0.2185 -1.4105
10353TIP3    H252475   6.369   0.510  15.083 -3.3862 -0.3888 -0.7062
10354TIP3   OH252476   1.765   3.711   3.856  0.4823  0.2884  0.0765
10354TIP3    H152477   1.743   3.786   3.801  2.6661  1.1260  0.2630
10354TIP3    H252478   1.814   3.652   3.798  0.9090  0.1691  0.5456
10355TIP3   OH252479   5.977   4.651  13.737 -0.5544  0.2930  0.5094
10355TIP3    H152480   5.962   4.665  13.643 -0.2557  1.4694  0.6196
10355TIP3    H252481   5.916   4.710  13.780  0.2349  0.7393  1.0351
10356TIP3   OH252482   3.465   3.289   4.770  0.2244 -0.2551  0.2410
10356TIP3    H152483   3.518   3.333   4.703 -0.0205 -0.2795  0.0274
10356TIP3    H252484   3.505   3.313   4.853  0.8690 -0.6715  0.0569
10357TIP3   OH252485   4.761   1.567  15.106 -0.5607  0.4740  0.3674
10357TIP3    H152486   4.816   1.502  15.150  0.5208  0.7985 -0.4691
10357TIP3    H252487   4.798   1.575  15.018 -1.5682  1.1674 -0.0187
10358TIP3   OH252488   6.077   4.581   0.499  0.2147  0.1247 -0.1168
10358TIP3    H152489   5.981   4.577   0.494  0.2149  0.9009 -1.8305
10358TIP3    H252490   6.095   4.656   0.556 -0.2211  0.4022 -0.3359
10359TIP3   OH252491   3.399   5.026  11.833  0.0181  0.0894 -0.2292
10359TIP3    H152492   3.305   5.014  11.842 -0.0349  0.8129  0.2775
10359TIP3    H252493   3.422   4.977  11.754 -0.6787 -0.5999 -0.0184
10360TIP3   OH252494   6.638   3.374  11.725 -0.0612 -0.2355 -0.2543
10360TIP3    H152495   6.699   3.365  11.651  1.8060  0.7455  1.0984
10360TIP3    H252496   6.669   3.311  11.789  0.5675  1.3792  1.0951
10361TIP3   OH252497   2.521   2.830   4.098 -0.3193  0.4136  0.0383
10361TIP3    H152498   2.448   2.885   4.069  0.1835  1.3275  0.4755
10361TIP3    H252499   2.496   2.801   4.185 -0.4920  0.1107 -0.1104
10362TIP3   OH252500   6.642   2.733  14.009  0.3815  0.1597 -0.2118
10362TIP3    H152501   6.727   2.770  13.984  1.0577 -0.3640  1.2164
10362TIP3    H252502   6.630   2.658  13.951  0.0972  1.2106 -1.5426
10363TIP3   OH252503   5.909   5.478  16.368 -0.3723 -0.8042  0.3440
10363TIP3    H152504   5.915   5.528  16.450 -1.3053  0.6199 -0.4352
10363TIP3    H252505   5.837   5.416  16.383 -0.7439 -0.3389  0.4876
10364TIP3   OH252506   3.675   6.661   1.157 -0.5833  0.3092  0.4408
10364TIP3    H152507   3.722   6.591   1.202 -0.4332 -1.1415 -1.7853
10364TIP3    H252508   3.588   6.662   1.198 -0.0922 -0.1032  1.5297
10365TIP3   OH252509   1.914   4.650   1.196  0.0658  0.1385 -0.0452
10365TIP3    H152510   1.863   4.591   1.142  0.5783 -0.0153 -0.3673
10365TIP3    H252511   1.851   4.717   1.224 -1.2111 -1.9958  2.5988
10366TIP3   OH252512   5.417   5.737   2.159  0.0270 -0.2349  0.0024
10366TIP3    H152513   5.413   5.828   2.129  2.8058  0.7639  2.2086
10366TIP3    H252514   5.376   5.739   2.245 -1.4294 -1.5065 -0.6156
10367TIP3   OH252515   5.054   2.353   5.741 -0.4368  0.7074 -0.1022
10367TIP3    H152516   5.036   2.310   5.825 -0.2414 -0.3930 -0.6055
10367TIP3    H252517   5.134   2.403   5.756 -0.4047  0.5218  0.3587
10368TIP3   OH252518   1.873   6.416   1.826 -0.6430 -1.0266  0.2522
10368TIP3    H152519   1.822   6.351   1.778 -1.5647 -0.0494 -0.1374
10368TIP3    H252520   1.871   6.386   1.917  0.6355 -2.5833 -0.1949
10369TIP3   OH252521   1.301   2.249  14.029  0.6678 -0.6291  0.3255
10369TIP3    H152522   1.393   2.275  14.042  0.6102 -0.3583  0.2009
10369TIP3    H252523   1.269   2.310  13.963  0.1641 -0.1991  0.9565
10370TIP3   OH252524   4.159   3.837   1.939  0.5067 -0.2309 -0.6537
10370TIP3    H152525   4.243   3.821   1.897  0.1015 -0.4125 -1.4207
10370TIP3    H252526   4.124   3.914   1.894 -0.0602 -0.5965 -0.8443
10371TIP3   OH252527   0.927   4.296   4.265  0.5945  0.5125  0.2907
10371TIP3    H152528   0.904   4.369   4.207 -0.4065 -0.2726 -0.3367
10371TIP3    H252529   0.924   4.219   4.208  1.7494 -0.0232  0.9150
10372TIP3   OH252530   5.460   0.902  15.300 -0.0370  0.3765 -0.0868
10372TIP3    H152531   5.493   0.967  15.362 -0.4830 -0.8303  1.4592
10372TIP3    H252532   5.539   0.859  15.267  0.1329 -0.2465  1.0827
10373TIP3   OH252533   6.506   5.582   0.561  0.6957 -0.4696  0.1210
10373TIP3    H152534   6.505   5.675   0.539 -4.5050 -0.2887  0.1119
10373TIP3    H252535   6.511   5.580   0.657  0.1932 -0.1494  0.1543
10374TIP3   OH252536   2.064   0.518   6.476 -0.1236 -0.2337 -0.0699
10374TIP3    H152537   1.991   0.485   6.529  0.6302 -0.2033  1.0349
10374TIP3    H252538   2.094   0.442   6.427 -1.6161  0.0192 -1.4258
10375TIP3   OH252539   0.721   4.997  15.295  0.0921 -0.1277 -0.1912
10375TIP3    H152540   0.649   5.049  15.332  0.7478  0.9935 -0.4429
10375TIP3    H252541   0.800   5.033  15.336  0.5330 -1.2931  0.0221
10376TIP3   OH252542   0.471   2.861   5.123  0.2160  0.8661  0.0740
10376TIP3    H152543   0.418   2.862   5.202  1.2233  0.4133  0.7752
10376TIP3    H252544   0.482   2.953   5.100 -1.3890  0.9539 -0.4650
10377TIP3   OH252545   2.100   1.384  15.362  0.1039 -0.0209 -0.3541
10377TIP3    H152546   2.081   1.358  15.273  0.9515 -0.0347 -0.5437
10377TIP3    H252547   2.195   1.401  15.363 -0.1407  1.5711  0.1181
10378TIP3   OH252548   5.731   5.192  16.146 -0.3180  0.2007 -0.3993
10378TIP3    H152549   5.650   5.192  16.094 -1.5081  0.2330  1.3494
10378TIP3    H252550   5.701   5.187  16.237  1.7048 -2.2181  0.2456
10379TIP3   OH252551   0.204   6.533  14.787  0.1896  0.9186  0.1885
10379TIP3    H152552   0.255   6.594  14.840  0.4055 -1.4746  3.0067
10379TIP3    H252553   0.113   6.552  14.810  0.0862  1.6901 -0.7828
10380TIP3   OH252554   5.452   6.349   2.965  0.1243 -0.0636  0.0806
10380TIP3    H152555   5.437   6.271   3.018 -0.0822  1.2335  2.0437
10380TIP3    H252556   5.540   6.378   2.988 -0.4592  1.2631  0.7798
10381TIP3   OH252557   3.108   6.507   1.101 -0.3046 -0.4569  0.2163
10381TIP3    H152558   3.097   6.602   1.112  0.2149 -0.4503  0.7071
10381TIP3    H252559   3.092   6.471   1.188  0.0038 -0.7734  0.1419
10382TIP3   OH252560   5.090   1.752   2.204 -0.1492 -1.0379  0.0732
10382TIP3    H152561   5.070   1.777   2.114 -1.7164  1.4748  1.0085
10382TIP3    H252562   5.182   1.776   2.216 -0.7722  1.7487 -0.0092
10383TIP3   OH252563   2.026   5.797   5.204  0.3732  0.0522  0.0813
10383TIP3    H152564   2.094   5.734   5.225  0.9402  0.5241 -0.2932
10383TIP3    H252565   1.988   5.766   5.122  2.3986  1.5074 -1.5474
10384TIP3   OH252566   4.393   5.572   1.127 -0.8183 -0.4234 -0.4614
10384TIP3    H152567   4.440   5.654   1.135  1.1324 -1.5731  0.6704
10384TIP3    H252568   4.324   5.576   1.194 -0.6909  0.2463 -0.3698
10385TIP3   OH252569   6.688   5.072  15.675 -0.3049  0.3605  0.2157
10385TIP3    H152570   6.710   4.981  15.659  0.2039  0.4628  0.3023
10385TIP3    H252571   6.766   5.121  15.646 -0.4571  0.7420  0.4378
10386TIP3   OH252572   6.223   4.519   3.042  0.3431 -0.3591  0.4707
10386TIP3    H152573   6.273   4.485   2.968 -1.7581 -0.3353 -1.0379
10386TIP3    H252574   6.165   4.447   3.066 -0.4491  0.3567  0.7177
10387TIP3   OH252575   1.313   6.139   2.855 -0.3295  0.3937  0.0953
10387TIP3    H152576   1.337   6.206   2.791 -1.1174 -0.3205 -0.9847
10387TIP3    H252577   1.335   6.056   2.812 -1.9899 -0.1491  0.2307
10388TIP3   OH252578   3.481   0.630   0.436  0.2502  0.3794  0.0596
10388TIP3    H152579   3.431   0.706   0.467  1.2151  0.3835  1.7245
10388TIP3    H252580   3.526   0.597   0.514 -0.0892 -1.8904 -0.6395
10389TIP3   OH252581   5.333   5.107  10.977  0.0273  0.3834  0.3040
10389TIP3    H152582   5.307   5.087  10.887  0.7513 -2.3301  0.6255
10389TIP3    H252583   5.305   5.198  10.990 -1.9012  0.2134 -1.9828
10390TIP3   OH252584   6.352   2.434  11.385  0.5873 -0.6674  0.1912
10390TIP3    H152585   6.269   2.480  11.393  0.5908  0.4230 -3.7846
10390TIP3    H252586   6.419   2.499  11.404  0.5251 -0.2971 -0.7885
10391TIP3   OH252587   0.392   6.631   2.487 -0.6100  0.1020  0.7714
10391TIP3    H152588   0.450   6.579   2.431  1.2884  2.1807  0.6759
10391TIP3    H252589   0.442   6.710   2.507 -2.5481  0.9527  2.6555
10392TIP3   OH252590   0.977   1.557  12.274  0.4670 -0.5008 -0.1397
10392TIP3    H152591   0.893   1.512  12.266  0.2330  0.1308 -1.4699
10392TIP3    H252592   1.043   1.488  12.267  0.0784 -0.8587 -0.2607
10393TIP3   OH252593   1.452   3.038  15.096 -0.3587  0.1489 -0.3080
10393TIP3    H152594   1.515   3.102  15.129  0.4417 -1.4466  1.5102
10393TIP3    H252595   1.381   3.040  15.160  0.0834 -1.3245  0.2799
10394TIP3   OH252596   0.728   5.184  11.989 -0.4412  0.1916  0.1911
10394TIP3    H152597   0.633   5.195  11.985 -0.4333  0.0923 -0.5629
10394TIP3    H252598   0.761   5.238  11.917 -0.1893 -2.3728 -1.7953
10395TIP3   OH252599   5.352   5.955  13.855 -0.0410  0.1082  0.3384
10395TIP3    H152600   5.278   6.015  13.843  0.4292  1.0653  1.8759
10395TIP3    H252601   5.370   5.959  13.949  0.9694 -1.3148  0.2296
10396TIP3   OH252602   1.828   1.789  13.319 -0.3704 -0.4916 -0.5918
10396TIP3    H152603   1.779   1.773  13.238  0.6940 -2.3683 -0.9121
10396TIP3    H252604   1.878   1.709  13.333  1.2006  0.6555  0.7233
10397TIP3   OH252605   1.630   4.665   2.865  1.1564  0.0161  0.0643
10397TIP3    H152606   1.719   4.644   2.837  1.2962  1.5048 -0.6663
10397TIP3    H252607   1.610   4.598   2.931  1.6781 -2.2282 -1.8935
10398TIP3   OH252608   4.621   3.192   0.606 -0.0098  0.2726 -0.3571
10398TIP3    H152609   4.545   3.136   0.592  0.7486 -0.6059 -1.0963
10398TIP3    H252610   4.658   3.205   0.518  0.6001  0.8111 -0.0318
10399TIP3   OH252611   0.933   1.706  13.690  0.4012 -0.3164  0.2981
10399TIP3    H152612   0.847   1.745  13.704  0.3216 -0.1899 -0.5158
10399TIP3    H252613   0.994   1.770  13.728  0.3385  1.1255 -1.8838
10400TIP3   OH252614   1.175   3.208   0.268 -0.1179  0.7663 -0.5808
10400TIP3    H152615   1.195   3.126   0.223 -0.4553  0.8837 -0.9548
10400TIP3    H252616   1.081   3.204   0.284 -0.2529  1.3363 -1.1460
10401TIP3   OH252617   3.893   5.365  16.659  0.3944  0.2434  0.6603
10401TIP3    H152618   3.894   5.425  16.733 -0.6748 -1.4408  2.1107
10401TIP3    H252619   3.878   5.279  16.698  0.2284 -0.7569 -1.4794
10402TIP3   OH252620   5.752   2.744  15.795 -0.5246  0.2762 -0.1795
10402TIP3    H152621   5.727   2.818  15.741  0.4296  0.5366 -0.2706
10402TIP3    H252622   5.695   2.672  15.766 -1.4500  0.9545 -0.0896
10403TIP3   OH252623   2.516   5.281   1.380  0.1661  0.6382  0.1510
10403TIP3    H152624   2.567   5.326   1.447  0.6526 -0.3862  0.4911
10403TIP3    H252625   2.493   5.349   1.317  1.8367  1.1670  0.0640
10404TIP3   OH252626   3.942   5.351  15.527  0.2900 -0.1053 -0.0130
10404TIP3    H152627   3.982   5.264  15.518 -0.3623 -0.7963  2.8138
10404TIP3    H252628   3.850   5.333  15.548  0.2716  1.2192  1.1614
10405TIP3   OH252629   4.558   1.047   5.653  0.0172  0.2356 -0.1428
10405TIP3    H152630   4.560   0.999   5.736  1.7208  0.8628  0.2365
10405TIP3    H252631   4.519   1.132   5.675 -0.0074  0.2105 -0.0905
10406TIP3   OH252632   2.046   0.710  15.595  0.4706 -0.3199  0.2028
10406TIP3    H152633   2.082   0.794  15.623  1.7183 -0.3454 -1.1757
10406TIP3    H252634   2.072   0.648  15.663  0.7142  0.1652  0.5560
10407TIP3   OH252635   1.380   0.084  16.205 -0.2539  0.1740  0.3734
10407TIP3    H152636   1.314   0.042  16.150  0.1810 -0.1181  0.0808
10407TIP3    H252637   1.341   0.169  16.227 -0.1818  0.5534 -0.8815
10408TIP3   OH252638   0.103   6.649  14.187  0.0582 -0.5980 -0.0406
10408TIP3    H152639   0.149   6.720  14.232 -0.3441 -0.3182 -0.0690
10408TIP3    H252640   0.011   6.677  14.186  0.2121 -0.0129 -2.1426
10409TIP3   OH252641   1.446   0.413   2.779 -0.0415  0.0312  0.4635
10409TIP3    H152642   1.369   0.449   2.823 -0.2535 -0.0966  0.1960
10409TIP3    H252643   1.489   0.360   2.846 -0.8157 -0.8424  0.2856
10410TIP3   OH252644   3.976   1.279   1.494  0.3625 -0.1890 -0.4244
10410TIP3    H152645   3.917   1.354   1.508  1.5247  0.4210  1.7063
10410TIP3    H252646   4.050   1.296   1.553  1.5317 -2.1237 -1.2530
10411TIP3   OH252647   2.165   3.027  16.801 -0.4149 -0.1197 -0.1472
10411TIP3    H152648   2.217   3.090  16.851 -0.0717 -0.3439 -0.2203
10411TIP3    H252649   2.098   3.081  16.758 -0.9571  0.0367  0.8490
10412TIP3   OH252650   1.797   1.570   4.576  0.0373  0.1524 -0.6697
10412TIP3    H152651   1.723   1.576   4.636  0.6357 -0.9930  0.2287
10412TIP3    H252652   1.761   1.531   4.496 -0.5892  0.8900 -0.7562
10413TIP3   OH252653   6.093   2.553  15.403 -0.0050 -0.4402 -0.2065
10413TIP3    H152654   6.083   2.537  15.497 -0.5464 -1.3527 -0.4044
10413TIP3    H252655   6.009   2.527  15.365  0.3038 -0.3449 -0.9708
10414TIP3   OH252656   5.818   4.991  12.744 -0.3946  0.2743  0.7280
10414TIP3    H152657   5.881   5.059  12.719 -1.4207  0.8328 -0.4104
10414TIP3    H252658   5.847   4.964  12.831  0.8067  1.2489  0.6694
10415TIP3   OH252659   5.709   0.334  11.411 -0.2249  0.2972  0.3358
10415TIP3    H152660   5.630   0.286  11.384  0.2580 -0.4130  0.1508
10415TIP3    H252661   5.759   0.345  11.331  0.5321 -0.5311  0.6710
10416TIP3   OH252662   4.223   5.857  16.771  0.1184  0.0838  0.0632
10416TIP3    H152663   4.263   5.882  16.688 -0.1284 -2.2473 -0.8362
10416TIP3    H252664   4.297   5.837  16.828  0.3213 -1.2073 -0.6015
10417TIP3   OH252665   5.653   2.556   4.128  0.7902  0.3563  0.5068
10417TIP3    H152666   5.593   2.609   4.182  1.0689  0.7918  0.3963
10417TIP3    H252667   5.624   2.466   4.142  0.6010  0.4966  1.0683
10418TIP3   OH252668   2.165   5.643  13.161  0.4467  0.3232 -0.0166
10418TIP3    H152669   2.208   5.612  13.241  0.3884 -2.0613 -0.8324
10418TIP3    H252670   2.112   5.717  13.190  1.4116  0.3356  1.9081
10419TIP3   OH252671   5.142   0.537   1.265  0.6829 -0.2595  0.2218
10419TIP3    H152672   5.195   0.458   1.275  0.2035 -0.3409  3.1528
10419TIP3    H252673   5.202   0.608   1.286  0.0325 -0.2737  2.4100
10420TIP3   OH252674   3.252   3.529  14.389 -0.7338 -0.4696  0.1177
10420TIP3    H152675   3.245   3.599  14.324 -3.1992  0.5898  1.3997
10420TIP3    H252676   3.169   3.531  14.435  0.4240 -2.0414  2.4655
10421TIP3   OH252677   5.329   0.495   2.521  0.4267  0.5920 -0.7374
10421TIP3    H152678   5.376   0.516   2.602  0.7763 -0.7685 -0.5647
10421TIP3    H252679   5.282   0.414   2.540  0.6557  0.1523 -1.9431
10422TIP3   OH252680   4.420   6.112  15.738 -0.0324 -0.8967 -0.4060
10422TIP3    H152681   4.457   6.126  15.825  0.8917 -0.1870 -0.8907
10422TIP3    H252682   4.352   6.179  15.729  0.5483 -0.3198 -0.5930
10423TIP3   OH252683   2.095   1.703  15.562  0.1234 -0.4051  0.1447
10423TIP3    H152684   2.170   1.747  15.603  0.4845  0.7145 -1.5938
10423TIP3    H252685   2.124   1.613  15.550  0.7235 -0.2807  0.6145
10424TIP3   OH252686   2.266   5.375   4.392  0.4555 -0.6173  0.4266
10424TIP3    H152687   2.223   5.326   4.462 -0.6721  2.1423  1.7984
10424TIP3    H252688   2.200   5.378   4.322  1.1513 -2.3839 -0.3537
10425TIP3   OH252689   0.324   5.694  11.855 -0.0416 -0.4570  0.4406
10425TIP3    H152690   0.382   5.663  11.925  1.4901 -1.5195 -1.2097
10425TIP3    H252691   0.269   5.618  11.835  0.2158 -0.4866 -0.1674
10426TIP3   OH252692   1.231   3.181  15.261  0.2878 -0.5705 -0.7272
10426TIP3    H152693   1.286   3.188  15.339  3.3811  0.3028 -2.7668
10426TIP3    H252694   1.152   3.135  15.290  1.0419  0.1560  2.9487
10427TIP3   OH252695   5.631   2.108   6.205 -0.3294  0.2378  0.0367
10427TIP3    H152696   5.627   2.203   6.215 -0.5506  0.0438  2.0594
10427TIP3    H252697   5.724   2.089   6.192 -0.3709  0.7626 -1.2352
10428TIP3   OH252698   2.035   3.568   4.812  0.3016 -0.6771  0.1063
10428TIP3    H152699   2.071   3.648   4.850  1.4416 -1.0729 -0.1236
10428TIP3    H252700   2.078   3.497   4.859 -0.0493 -1.1698 -0.2981
10429TIP3   OH252701   2.812   5.476  11.606  0.2056  0.1253 -0.4811
10429TIP3    H152702   2.742   5.505  11.664  1.0112  1.2900 -0.0593
10429TIP3    H252703   2.783   5.390  11.575 -0.4530 -0.3339  1.2867
10430TIP3   OH252704   2.781   5.135  14.641 -0.2976  0.5675 -0.2387
10430TIP3    H152705   2.850   5.161  14.702 -0.0526  0.9782 -0.6823
10430TIP3    H252706   2.817   5.058  14.596 -1.2418 -0.9288  1.4574
10431TIP3   OH252707   6.276   6.182   3.887  0.3142  0.0888 -0.1350
10431TIP3    H152708   6.278   6.252   3.821  0.4997 -0.4721 -0.7344
10431TIP3    H252709   6.218   6.216   3.956 -0.4503  0.4035 -0.9068
10432TIP3   OH252710   6.195   3.474  15.347  0.2128 -0.2911 -0.3553
10432TIP3    H152711   6.138   3.429  15.285 -0.7011 -0.7484  0.7688
10432TIP3    H252712   6.146   3.552  15.372  0.4349 -0.2619 -0.0039
10433TIP3   OH252713   6.720   5.243  12.637 -0.0548 -0.2927  0.3963
10433TIP3    H152714   6.728   5.182  12.710 -2.2902 -2.5169 -1.0540
10433TIP3    H252715   6.713   5.187  12.559 -1.2196  1.8183 -1.1301
10434TIP3   OH252716   2.211   3.088  15.119  0.1602  0.3436  0.0057
10434TIP3    H152717   2.169   3.147  15.182  0.3445 -0.2279  0.6770
10434TIP3    H252718   2.297   3.128  15.103  0.5702 -0.0984  1.0067
10435TIP3   OH252719   2.983   5.971  13.223  0.7632 -0.5638  0.1117
10435TIP3    H152720   3.039   6.047  13.242  1.8027 -1.1780 -0.3898
10435TIP3    H252721   3.043   5.897  13.224  0.0238 -1.1967 -0.8601
10436TIP3   OH252722   1.705   4.757  16.241 -0.2579  0.1328 -0.0070
10436TIP3    H152723   1.615   4.786  16.227 -0.1719  0.0017 -0.8764
10436TIP3    H252724   1.717   4.685  16.179 -0.8076 -2.5409  2.7549
10437TIP3   OH252725   4.465   0.835  11.255  0.3935 -0.3297  0.0368
10437TIP3    H152726   4.511   0.761  11.295 -1.9050 -2.2819 -0.6603
10437TIP3    H252727   4.504   0.843  11.168  0.7415 -0.6403  0.1603
10438TIP3   OH252728   1.120   3.177  11.983 -0.4010 -1.0941  0.0114
10438TIP3    H152729   1.180   3.209  12.051 -0.5465 -2.3483  0.7690
10438TIP3    H252730   1.158   3.094  11.954 -0.1219 -0.3895 -1.7714
10439TIP3   OH252731   5.531   4.266   4.307  1.1666  0.1725 -0.3097
10439TIP3    H152732   5.442   4.301   4.298  1.4769  0.9323 -0.6024
10439TIP3    H252733   5.562   4.303   4.390  0.7727 -1.1313  0.4384
10440TIP3   OH252734   4.459   3.469   4.759 -0.6082  0.6799  0.0005
10440TIP3    H152735   4.519   3.502   4.692  0.3164  0.2415  0.5844
10440TIP3    H252736   4.497   3.499   4.842 -1.1158  0.2666  0.3918
10441TIP3   OH252737   3.708   3.661   4.070  0.3324 -0.1412  0.5808
10441TIP3    H152738   3.692   3.572   4.101  0.3278  0.5683  2.7671
10441TIP3    H252739   3.672   3.717   4.138  0.5022  1.5483 -0.6624
10442TIP3   OH252740   6.251   6.784   5.205 -0.1963 -0.4042 -0.2966
10442TIP3    H152741   6.201   6.823   5.133  0.1176 -0.6290 -0.6390
10442TIP3    H252742   6.219   6.694   5.210 -2.6293  0.4176  2.0020
10443TIP3   OH252743   0.953   6.710  12.511  0.2182 -0.2617  0.3119
10443TIP3    H152744   1.020   6.763  12.468  0.0590 -0.3625 -0.0694
10443TIP3    H252745   0.942   6.635  12.453  0.1003 -0.4729  0.6043
10444TIP3   OH252746   0.604   1.015   3.004  0.1463  0.6810  0.2473
10444TIP3    H152747   0.634   1.076   3.071  1.4977 -0.7146  0.9843
10444TIP3    H252748   0.550   1.068   2.945  3.7936  3.4216 -0.9946
10445TIP3   OH252749   4.990   2.594   5.596  0.4666  0.8200 -0.5341
10445TIP3    H152750   5.038   2.585   5.678 -1.0845 -2.0655  0.1924
10445TIP3    H252751   4.911   2.643   5.620 -0.3128 -0.5959 -0.0629
10446TIP3   OH252752   5.297   4.894  13.444  0.2629 -0.2968  0.4800
10446TIP3    H152753   5.362   4.945  13.492  0.2284 -0.6319  0.8830
10446TIP3    H252754   5.345   4.860  13.367 -0.0374  1.3899 -0.4900
10447TIP3   OH252755   6.772   3.067   4.492 -0.1835 -0.2329 -0.1441
10447TIP3    H152756   6.858   3.052   4.452 -0.3099  0.3772 -0.6724
10447TIP3    H252757   6.736   3.141   4.443 -0.7668 -0.1094  0.4562
10448TIP3   OH252758   2.949   4.868   4.998  0.4817  0.2300 -0.1803
10448TIP3    H152759   3.036   4.831   5.014  0.5179 -0.5491 -1.9210
10448TIP3    H252760   2.948   4.885   4.904 -1.1790  0.4551 -0.1409
10449TIP3   OH252761   1.187   5.034  12.174 -0.6354  0.1723  0.1106
10449TIP3    H152762   1.094   5.045  12.154 -1.4393 -3.2841  1.3202
10449TIP3    H252763   1.189   5.001  12.263  1.7727 -0.1110  0.0317
10450TIP3   OH252764   1.563   0.838   1.708 -0.2437  0.6882 -0.0669
10450TIP3    H152765   1.551   0.785   1.629 -0.2095  1.6620 -0.7434
10450TIP3    H252766   1.656   0.861   1.708  0.0870 -0.5018  1.0624
10451TIP3   OH252767   0.535   0.267   1.989 -0.2863 -0.0772  0.4774
10451TIP3    H152768   0.606   0.203   1.988 -1.3139 -1.2995 -2.2240
10451TIP3    H252769   0.564   0.335   1.927  0.0162  1.2813  2.0193
10452TIP3   OH252770   6.402   1.250  13.019 -0.3309 -0.2339 -0.4396
10452TIP3    H152771   6.469   1.276  12.955 -0.0233 -1.3019 -0.5756
10452TIP3    H252772   6.443   1.266  13.104 -0.5557  0.7315 -0.5092
10453TIP3   OH252773   3.714   5.941   4.790  0.0019 -0.4683  0.0932
10453TIP3    H152774   3.657   5.977   4.722  0.3671  1.6941  0.8362
10453TIP3    H252775   3.691   5.989   4.869 -0.3700 -2.8774  1.5492
10454TIP3   OH252776   6.087   5.978   3.773 -0.4940 -0.1893 -0.1273
10454TIP3    H152777   6.128   6.033   3.839 -2.2468 -1.0399  1.7882
10454TIP3    H252778   6.033   5.916   3.823 -2.3892 -0.4977 -2.3696
10455TIP3   OH252779   4.008   2.809   5.284 -0.1794  0.3040 -0.4608
10455TIP3    H152780   3.939   2.872   5.302  0.2037  1.4058 -2.4631
10455TIP3    H252781   4.085   2.843   5.330 -0.4955  0.0963  0.2294
10456TIP3   OH252782   6.575   1.773   3.149 -0.0866  0.2401 -0.1381
10456TIP3    H152783   6.628   1.701   3.115 -0.0677  0.0370  0.3134
10456TIP3    H252784   6.599   1.779   3.242 -1.2557 -0.2169  0.2090
10457TIP3   OH252785   4.185   6.698  11.755  0.2752 -0.2515  0.7154
10457TIP3    H152786   4.169   6.768  11.818  1.9841 -0.3354  1.2693
10457TIP3    H252787   4.270   6.719  11.716 -0.0135 -1.0677 -0.4058
10458TIP3   OH252788   1.508   2.609  13.886  0.1252  0.0766  0.5075
10458TIP3    H152789   1.554   2.533  13.852  0.8389  1.3939 -1.6676
10458TIP3    H252790   1.417   2.596  13.858  0.2140 -0.0475  0.2726
10459TIP3   OH252791   5.799   1.282  10.906  0.0058 -0.2928 -0.6706
10459TIP3    H152792   5.755   1.267  10.822  0.1484  2.4013 -1.3196
10459TIP3    H252793   5.729   1.313  10.964  0.5304  1.7881 -1.0479
10460TIP3   OH252794   5.322   6.512  16.161  0.1593  0.0934 -0.4967
10460TIP3    H152795   5.287   6.597  16.135 -0.0982 -0.4182 -1.9259
10460TIP3    H252796   5.244   6.456  16.168  0.2682  0.0733  0.9652
10461TIP3   OH252797   3.287   4.839  15.771 -0.5573  0.1508  0.0150
10461TIP3    H152798   3.268   4.814  15.861  0.3334 -0.4463  0.0582
10461TIP3    H252799   3.369   4.793  15.750 -0.1603  1.1540 -0.7292
10462TIP3   OH252800   5.967   1.998   0.585 -0.6303  0.1551  0.1548
10462TIP3    H152801   5.948   2.016   0.677 -2.3932  1.9449 -0.4770
10462TIP3    H252802   5.900   1.936   0.558  0.7638 -1.5355  0.3673
10463TIP3   OH252803   0.531   5.004  12.148  0.2126 -0.3122 -0.0970
10463TIP3    H152804   0.541   4.930  12.207  0.7698 -0.3026 -0.1761
10463TIP3    H252805   0.511   4.965  12.063 -0.0484 -0.3464 -0.0210
10464TIP3   OH252806   2.118   6.051   3.494 -0.1653 -0.7016 -0.4200
10464TIP3    H152807   2.166   5.971   3.476 -1.3443 -1.2383 -1.3249
10464TIP3    H252808   2.032   6.037   3.455 -1.3520 -0.0915  1.8138
10465TIP3   OH252809   3.525   4.613   2.482 -0.1250 -0.0923  0.3457
10465TIP3    H152810   3.577   4.662   2.546  0.2288 -0.8604  0.6521
10465TIP3    H252811   3.562   4.525   2.483  0.7914  0.1998 -1.9160
10466TIP3   OH252812   4.781   0.614   4.993  0.1034  0.1947 -0.7301
10466TIP3    H152813   4.871   0.648   4.985  0.0430  0.3488 -0.7571
10466TIP3    H252814   4.726   0.692   4.993  0.1219  0.2768  1.5683
10467TIP3   OH252815   5.677   2.576  14.714  0.2341  0.0612  0.1973
10467TIP3    H152816   5.599   2.626  14.737 -0.2293 -0.5671  0.0398
10467TIP3    H252817   5.726   2.567  14.795 -0.9218 -1.3531  0.7711
10468TIP3   OH252818   1.680   6.385  12.494  0.2720 -0.3861 -1.0230
10468TIP3    H152819   1.603   6.328  12.494  1.0439 -1.4970  0.8684
10468TIP3    H252820   1.655   6.460  12.548  0.4795 -0.7172 -0.4605
10469TIP3   OH252821   6.305   6.366   4.937 -0.0199  0.2339 -0.2066
10469TIP3    H152822   6.310   6.459   4.917 -0.9382  0.8110  1.9632
10469TIP3    H252823   6.394   6.342   4.962  0.3506  0.3564 -1.3638
10470TIP3   OH252824   5.146   1.442   5.229 -0.0290  0.0875 -0.3275
10470TIP3    H152825   5.083   1.370   5.236 -0.1638  0.1104 -1.1723
10470TIP3    H252826   5.171   1.443   5.137  0.2078  0.9257 -0.2638
10471TIP3   OH252827   1.390   1.686  13.761 -0.5384  0.1405  0.8811
10471TIP3    H152828   1.434   1.736  13.692 -0.7725 -0.2785  0.4226
10471TIP3    H252829   1.412   1.595  13.743 -2.3535 -0.1760  0.0678
10472TIP3   OH252830   5.048   2.323   4.432 -0.2555 -0.1256  0.2983
10472TIP3    H152831   5.004   2.286   4.355 -1.0855  0.6389  0.3942
10472TIP3    H252832   5.120   2.374   4.395 -0.0583 -0.5465  0.0853
10473TIP3   OH252833   1.238   5.506  15.437 -0.6218  0.2149 -0.3557
10473TIP3    H152834   1.226   5.600  15.450  0.2324  0.3508 -0.4753
10473TIP3    H252835   1.261   5.473  15.524  2.7750  0.7484 -0.9128
10474TIP3   OH252836   6.109   5.115  15.760  0.4229  0.0930  0.2454
10474TIP3    H152837   6.168   5.116  15.685 -0.0382 -0.0859 -0.1292
10474TIP3    H252838   6.072   5.203  15.764  1.2296  0.4149  0.9074
10475TIP3   OH252839   2.594   0.450  12.082 -0.3181 -0.3218  0.5976
10475TIP3    H152840   2.513   0.467  12.130 -1.2269 -1.5999 -0.4239
10475TIP3    H252841   2.585   0.360  12.051  0.2124  0.4036 -1.9118
10476TIP3   OH252842   2.112   6.048  14.670  0.0021  0.5856  0.4451
10476TIP3    H152843   2.179   5.980  14.661  1.1127  1.7526 -0.6368
10476TIP3    H252844   2.143   6.102  14.743 -0.4631  0.3831  0.7964
10477TIP3   OH252845   5.193   3.559   0.945  0.5478 -0.4484  0.1669
10477TIP3    H152846   5.210   3.637   0.891  1.2838 -1.0815 -0.5282
10477TIP3    H252847   5.125   3.588   1.006  2.3284  1.4183  1.4010
10478TIP3   OH252848   5.327   5.964   0.676  0.1151  0.2573 -0.0290
10478TIP3    H152849   5.358   6.052   0.657 -0.2757  0.2728 -0.6194
10478TIP3    H252850   5.231   5.970   0.673  0.0605  0.0151  0.8685
10479TIP3   OH252851   2.465   3.746   0.395  0.8605 -0.3995 -0.3532
10479TIP3    H152852   2.439   3.818   0.452 -0.5237  0.0787 -1.5109
10479TIP3    H252853   2.385   3.724   0.347  1.3382 -2.4830 -0.2934
10480TIP3   OH252854   0.321   2.363   4.968 -0.0116  0.1203 -0.1978
10480TIP3    H152855   0.404   2.386   4.925 -0.2248  0.9691 -0.1746
10480TIP3    H252856   0.294   2.444   5.013 -1.4347  0.2171 -1.1668
10481TIP3   OH252857   3.333   2.693  13.750 -0.1048 -0.3005  0.6059
10481TIP3    H152858   3.409   2.635  13.763  0.6815  0.7081  0.6378
10481TIP3    H252859   3.352   2.770  13.803 -0.4204  0.6303 -0.5779
10482TIP3   OH252860   1.611   5.902   1.353 -0.1352 -0.0934  0.2177
10482TIP3    H152861   1.596   5.841   1.281 -1.3419  0.6548 -0.1799
10482TIP3    H252862   1.552   5.976   1.336  1.5662  1.3993  0.4582
10483TIP3   OH252863   2.745   4.189   5.165  0.0900  0.7416 -0.2963
10483TIP3    H152864   2.781   4.267   5.122 -1.3205  0.5940 -1.8625
10483TIP3    H252865   2.757   4.206   5.258 -1.5872  3.6195 -0.4699
10484TIP3   OH252866   5.936   3.332   5.710  0.5361  0.2389  0.7562
10484TIP3    H152867   5.905   3.288   5.789  1.8023  0.6447  1.5179
10484TIP3    H252868   6.002   3.273   5.675  1.7142  1.1398  1.3739
10485TIP3   OH252869   5.027   6.253  11.012  0.2519 -0.2505  0.0097
10485TIP3    H152870   5.040   6.175  10.958 -1.8053  0.1061 -1.0930
10485TIP3    H252871   5.055   6.325  10.956  1.6174 -0.1033  0.8238
10486TIP3   OH252872   2.001   2.416  13.312  0.3908  0.1269 -0.0355
10486TIP3    H152873   2.043   2.345  13.361  1.7432  0.5324 -0.5512
10486TIP3    H252874   2.019   2.495  13.364 -1.8746  0.0276  1.0045
10487TIP3   OH252875   4.844   6.631   2.504  0.3087  0.0346  0.1520
10487TIP3    H152876   4.910   6.573   2.542 -0.9967 -1.6796 -0.0647
10487TIP3    H252877   4.815   6.686   2.576 -0.9176 -2.0071  1.3220
10488TIP3   OH252878   1.312   5.910  10.882  0.2974 -0.0426  0.0661
10488TIP3    H152879   1.301   5.915  10.787 -0.4654 -0.3029  0.1313
10488TIP3    H252880   1.243   5.850  10.911 -1.5013  2.3671  1.1174
10489TIP3   OH252881   0.073   4.232   4.461 -0.1348  0.0079 -0.0629
10489TIP3    H152882   0.013   4.237   4.535 -1.4725 -1.9036 -0.9480
10489TIP3    H252883   0.057   4.312   4.412  0.0217  0.8005  1.1201
10490TIP3   OH252884   6.053   6.145   2.063 -0.8316 -0.6141  0.1118
10490TIP3    H152885   6.147   6.165   2.067 -0.9640 -0.0862  0.7934
10490TIP3    H252886   6.039   6.113   1.974  0.0169 -0.8119  0.0398
10491TIP3   OH252887   3.915   4.626  15.199  0.1729  0.4563  0.0603
10491TIP3    H152888   3.836   4.587  15.239 -0.1608  1.3113  0.2463
10491TIP3    H252889   3.966   4.550  15.171 -1.8969 -0.1636 -2.4480
10492TIP3   OH252890   0.411   0.676  13.207 -0.5139 -0.1166  0.0243
10492TIP3    H152891   0.363   0.613  13.261 -0.1757  0.8218  1.4857
10492TIP3    H252892   0.455   0.623  13.141  0.4433 -1.5224  1.7206
10493TIP3   OH252893   6.183   5.332   2.301  0.4033  0.6205 -0.5506
10493TIP3    H152894   6.167   5.424   2.326 -0.0758  0.9433 -1.9930
10493TIP3    H252895   6.278   5.322   2.309  0.3857  1.0309  0.2995
10494TIP3   OH252896   2.773   5.926   2.095 -0.4954 -0.8436  0.0699
10494TIP3    H152897   2.726   5.874   2.029  0.2022 -0.3416 -0.8498
10494TIP3    H252898   2.743   5.891   2.179 -0.6869 -2.1471 -0.5199
10495TIP3   OH252899   2.652   3.511   5.810 -0.0102  0.7345  0.0144
10495TIP3    H152900   2.708   3.588   5.821  0.8661  0.4323 -1.9248
10495TIP3    H252901   2.600   3.507   5.891  2.2935  1.3975  1.6156
10496TIP3   OH252902   3.362   4.820  12.578 -0.0786  0.0562 -0.2011
10496TIP3    H152903   3.396   4.799  12.665 -1.7411 -0.1471  0.4474
10496TIP3    H252904   3.406   4.901  12.553  1.3407 -0.5330  0.2662
10497TIP3   OH252905   5.781   2.575  14.443 -0.0902 -0.1863 -0.7126
10497TIP3    H152906   5.798   2.667  14.422  0.4724 -0.0219  0.4035
10497TIP3    H252907   5.755   2.575  14.535 -2.9508 -0.8368 -1.4245
10498TIP3   OH252908   0.602   0.875   1.964 -0.5620 -0.4749 -0.4711
10498TIP3    H152909   0.687   0.866   1.922 -0.3904 -0.7077 -0.0824
10498TIP3    H252910   0.562   0.951   1.922  0.2027  0.1738 -0.0531
10499TIP3   OH252911   1.365   1.423   2.644  0.1284 -0.1237 -0.4283
10499TIP3    H152912   1.362   1.330   2.618  2.0902 -0.0001 -1.3124
10499TIP3    H252913   1.440   1.458   2.595 -1.0063  2.1096 -0.6525
10500TIP3   OH252914   1.806   4.487  11.940  0.1746 -0.0690 -0.4499
10500TIP3    H152915   1.743   4.559  11.947  0.1588  0.0222 -1.3528
10500TIP3    H252916   1.891   4.531  11.935  0.1601 -0.0999 -1.0647
10501TIP3   OH252917   6.410   1.241   0.051 -0.1569 -0.3969  0.0641
10501TIP3    H152918   6.395   1.224  -0.041 -1.2454 -0.9306  0.3290
10501TIP3    H252919   6.356   1.177   0.097 -0.6285  0.6897  1.0806
10502TIP3   OH252920   0.785   4.667   3.688  0.0841 -0.0765  0.0426
10502TIP3    H152921   0.851   4.714   3.739 -0.2187  0.9610 -0.4727
10502TIP3    H252922   0.835   4.610   3.630  0.5701  0.9329 -0.5709
10503TIP3   OH252923   4.293   3.507  14.323 -0.7457  0.8447 -0.3857
10503TIP3    H152924   4.283   3.601  14.339 -0.8569  1.0018 -1.3517
10503TIP3    H252925   4.359   3.501  14.254 -0.4444  0.1911 -0.0484
10504TIP3   OH252926   6.643   2.382  11.280 -0.1619  0.1549 -0.5268
10504TIP3    H152927   6.629   2.463  11.231 -0.5763 -0.2707 -1.1237
10504TIP3    H252928   6.556   2.359  11.313  0.2512  0.9155  1.1902
10505TIP3   OH252929   3.814   1.874  16.463 -0.1327  0.2181  0.0856
10505TIP3    H152930   3.833   1.799  16.407  1.6957  0.1909  0.6777
10505TIP3    H252931   3.731   1.909  16.430  0.5619 -0.1736 -2.2043
10506TIP3   OH252932   2.113   5.802  16.196 -0.1657 -0.3950 -0.3183
10506TIP3    H152933   2.117   5.743  16.272 -1.8360 -1.1071 -0.7382
10506TIP3    H252934   2.182   5.867  16.212 -0.6668 -0.3410  1.9696
10507TIP3   OH252935   3.635   3.868  15.033  0.2067 -0.1225  0.2001
10507TIP3    H152936   3.627   3.951  15.079 -0.3782  0.9129 -1.6529
10507TIP3    H252937   3.719   3.832  15.062  0.5419  1.1922  0.9214
10508TIP3   OH252938   4.714   5.021   3.295 -0.0763  0.3780 -0.5303
10508TIP3    H152939   4.778   5.062   3.237 -1.3723 -0.0718 -2.3382
10508TIP3    H252940   4.762   4.949   3.336  1.5119  2.0975  0.8013
10509TIP3   OH252941   1.312   4.484  15.006 -0.1607  0.0581 -0.2487
10509TIP3    H152942   1.261   4.494  15.087 -0.8264 -1.2329 -0.4811
10509TIP3    H252943   1.403   4.486  15.035 -0.3257  1.5956  0.2680
10510TIP3   OH252944   1.412   2.590   2.326  0.3662 -0.6030  0.2453
10510TIP3    H152945   1.425   2.610   2.234  1.2231 -0.8258  0.3053
10510TIP3    H252946   1.500   2.594   2.364 -0.1368  0.8751  1.3407
10511TIP3   OH252947   0.878   4.881  17.168 -0.1309 -0.0692  0.4347
10511TIP3    H152948   0.847   4.876  17.078 -0.5642  1.2965  0.4839
10511TIP3    H252949   0.811   4.834  17.219  0.1854 -0.9593  0.0418
10512TIP3   OH252950   3.261   6.748  12.706 -0.4450 -0.1487  0.7178
10512TIP3    H152951   3.342   6.697  12.697 -0.2324  0.0904  1.2392
10512TIP3    H252952   3.205   6.694  12.762 -0.7077 -0.3832  0.2335
10513TIP3   OH252953   2.478   5.377   3.212 -0.2515  0.2375  0.0740
10513TIP3    H152954   2.408   5.311   3.204 -0.3342  0.2654  0.5649
10513TIP3    H252955   2.541   5.353   3.144 -0.7870  0.2738 -0.4437
10514TIP3   OH252956   2.769   2.922   1.688  0.5356 -0.0498 -0.2128
10514TIP3    H152957   2.832   2.855   1.662  0.8330 -0.2251  0.9236
10514TIP3    H252958   2.798   2.951   1.774 -1.4721 -0.8596  0.8175
10515TIP3   OH252959   1.913   0.401  14.697 -0.8008 -0.2959  0.1333
10515TIP3    H152960   1.838   0.348  14.672 -1.2479 -0.4285  1.6538
10515TIP3    H252961   1.875   0.476  14.743 -0.0066 -0.6720  1.4722
10516TIP3   OH252962   1.903   3.557  15.591  0.2492  0.4762 -0.1058
10516TIP3    H152963   1.824   3.506  15.575  0.1309  0.2638  1.0660
10516TIP3    H252964   1.902   3.625  15.522 -0.3923 -0.1510 -0.7342
10517TIP3   OH252965   5.851   6.241  15.175  0.4877  0.2999  0.6660
10517TIP3    H152966   5.941   6.212  15.161  0.0080 -1.0732  0.2841
10517TIP3    H252967   5.806   6.221  15.093 -0.1240  1.1793  0.7736
10518TIP3   OH252968   4.456   6.125  16.076 -0.3910  0.4094  0.2412
10518TIP3    H152969   4.455   6.221  16.079  0.7099  0.5613 -2.0075
10518TIP3    H252970   4.513   6.099  16.148 -0.8789  1.4193  1.0171
10519TIP3   OH252971   1.583   4.791   5.181  0.1223  0.3758  0.1620
10519TIP3    H152972   1.499   4.745   5.174  0.4328 -0.0851 -0.7058
10519TIP3    H252973   1.565   4.878   5.147 -0.0380  0.3277  0.1204
10520TIP3   OH252974   5.286   1.662  14.811 -0.2521  0.7519 -0.5713
10520TIP3    H152975   5.249   1.626  14.892  1.6832 -2.3243 -0.8922
10520TIP3    H252976   5.376   1.684  14.833 -0.4759  2.6022 -1.2624
10521TIP3   OH252977   5.790   1.434  13.424 -0.1179  0.0984 -0.4675
10521TIP3    H152978   5.799   1.406  13.515 -0.6600 -0.4743 -0.5884
10521TIP3    H252979   5.840   1.369  13.374 -2.5814 -1.6003 -0.8966
10522TIP3   OH252980   6.261   2.598   1.704  0.1637  0.6393  0.6441
10522TIP3    H152981   6.196   2.587   1.635  0.6032  1.0361  0.1462
10522TIP3    H252982   6.345   2.583   1.659  0.3646 -1.0122  1.5244
10523TIP3   OH252983   0.166   4.413  14.332  0.2217 -0.3556  0.2380
10523TIP3    H152984   0.241   4.471  14.320  1.0427 -1.1236  1.3606
10523TIP3    H252985   0.152   4.411  14.427 -1.8086  0.4440  0.0085
10524TIP3   OH252986   2.980   1.055  17.157 -0.0032  0.1700  0.0069
10524TIP3    H152987   3.000   1.105  17.236 -1.2400  0.8828 -0.0998
10524TIP3    H252988   3.018   0.969  17.172  0.5622  0.5801  0.9907
10525TIP3   OH252989   1.788   5.807   6.045  0.7641 -0.1727  0.1563
10525TIP3    H152990   1.764   5.749   6.116  2.8855  0.3109  1.3495
10525TIP3    H252991   1.804   5.892   6.087  2.5572  0.0002 -0.7513
10526TIP3   OH252992   0.477   5.319   2.385 -0.4041 -0.1150  0.1179
10526TIP3    H152993   0.459   5.226   2.394 -1.0918  0.0650  0.7709
10526TIP3    H252994   0.571   5.327   2.399 -0.1706 -0.8228 -0.9663
10527TIP3   OH252995   2.377   2.842  12.936  0.4805 -0.4740 -0.1571
10527TIP3    H152996   2.293   2.834  12.891  0.2258 -1.7233  0.4892
10527TIP3    H252997   2.360   2.903  13.008  0.6488  0.7940 -1.1560
10528TIP3   OH252998   5.054   1.498   5.942 -0.0795  0.3949  0.6800
10528TIP3    H152999   4.999   1.445   6.001  0.1426  0.8264  1.2906
10528TIP3    H253000   4.994   1.563   5.905 -0.5746 -0.8800 -0.8552
10529TIP3   OH253001   0.064   0.121   3.977  0.0540  0.4319 -0.7041
10529TIP3    H153002  -0.021   0.115   4.022  1.1409 -0.1646  1.3951
10529TIP3    H253003   0.069   0.212   3.948 -1.1119  0.5878 -0.4786
10530TIP3   OH253004   6.040   1.717   0.788  0.0502  0.4936  0.1348
10530TIP3    H153005   6.126   1.740   0.823  0.0107  0.7297  0.0737
10530TIP3    H253006   5.980   1.781   0.827  0.0313  0.8677 -0.4996
10531TIP3   OH253007   5.220   4.819   2.170 -0.1239  0.8749 -0.6637
10531TIP3    H153008   5.215   4.875   2.248  3.8211  0.1297  0.3273
10531TIP3    H253009   5.274   4.869   2.108  0.6758 -0.4443 -1.0670
10532TIP3   OH253010   5.825   6.545  14.280  0.0661 -0.0311  0.1059
10532TIP3    H153011   5.818   6.502  14.365 -0.4742  0.9623  0.5902
10532TIP3    H253012   5.798   6.479  14.216 -0.0894 -0.6007  0.7538
10533TIP3   OH253013   4.659   4.869  14.930 -0.7205 -0.0191  0.2361
10533TIP3    H153014   4.576   4.916  14.925 -0.4368  0.4215 -0.5512
10533TIP3    H253015   4.635   4.779  14.952 -1.3642  0.2255  0.5446
10534TIP3   OH253016   0.730   3.763   4.338  0.3847  0.4394 -0.0316
10534TIP3    H153017   0.715   3.847   4.295  1.1397  0.4015 -0.3891
10534TIP3    H253018   0.788   3.715   4.278  0.5891 -0.0326  0.5272
10535TIP3   OH253019   3.774   0.643  12.835  0.1300  0.4065 -0.2909
10535TIP3    H153020   3.697   0.587  12.848  0.3278  0.1925 -0.0438
10535TIP3    H253021   3.846   0.596  12.877  0.5081  0.3421 -0.9938
10536TIP3   OH253022   4.568   4.789   3.895 -0.3185 -0.3966 -0.3231
10536TIP3    H153023   4.540   4.783   3.987  1.8240 -0.2467  0.4045
10536TIP3    H253024   4.583   4.698   3.869 -0.8735 -0.4348 -0.5288
10537TIP3   OH253025   6.738   6.173   4.431  0.1932  0.5338 -0.8199
10537TIP3    H153026   6.831   6.184   4.413  0.9870 -1.6741  1.3099
10537TIP3    H253027   6.696   6.179   4.346  2.5195 -0.2512 -2.1159
10538TIP3   OH253028   2.396   2.490   0.655  0.0423  0.2093  0.0260
10538TIP3    H153029   2.387   2.507   0.561 -1.5866 -1.6140 -0.2084
10538TIP3    H253030   2.450   2.563   0.687  1.2343  0.5096 -2.4101
10539TIP3   OH253031   0.156   0.741   1.665  0.0683 -0.4445 -0.3647
10539TIP3    H153032   0.127   0.661   1.622 -0.0145 -0.6248  0.0155
10539TIP3    H253033   0.077   0.778   1.703  0.4081 -1.3379  1.3300
10540TIP3   OH253034   0.696   2.678  11.783 -0.2149  0.2676  0.2063
10540TIP3    H153035   0.726   2.644  11.699  0.2044 -1.3513  0.9671
10540TIP3    H253036   0.622   2.621  11.807  0.2709  0.0878  1.3567
10541TIP3   OH253037   2.809   1.557  11.857  0.0286 -0.1347 -0.4719
10541TIP3    H153038   2.731   1.612  11.860 -0.1398 -0.3744  1.7743
10541TIP3    H253039   2.775   1.469  11.840 -0.5438 -0.5943  2.4275
10542TIP3   OH253040   3.164   1.670   0.188 -0.4572  0.5675  0.6732
10542TIP3    H153041   3.084   1.719   0.170 -1.4024 -1.5917 -1.6746
10542TIP3    H253042   3.139   1.579   0.173  2.2377 -0.2612  0.8025
10543TIP3   OH253043   4.365   3.016  15.482 -0.0531 -0.3323  0.1340
10543TIP3    H153044   4.333   2.967  15.558  1.3066 -1.6575 -0.1028
10543TIP3    H253045   4.336   2.964  15.407 -1.1560  0.8336 -0.2822
10544TIP3   OH253046   6.681   0.315   4.343 -0.1806 -0.4293 -0.4515
10544TIP3    H153047   6.600   0.301   4.393 -0.0408 -0.0555 -0.1143
10544TIP3    H253048   6.658   0.382   4.279 -0.0643 -0.1112 -0.1656
10545TIP3   OH253049   2.406   2.835   1.315  0.6155 -0.2024  0.4635
10545TIP3    H153050   2.490   2.836   1.359  0.2985  0.7340  1.0837
10545TIP3    H253051   2.375   2.926   1.320 -0.6619 -0.6300  0.7144
10546TIP3   OH253052   0.026   0.683   4.857 -0.1330 -0.5889  0.0122
10546TIP3    H153053   0.028   0.745   4.929 -1.2024 -0.1559 -0.3142
10546TIP3    H253054   0.064   0.731   4.783  1.9215 -1.3673  0.5038
10547TIP3   OH253055   4.760   2.529  17.022 -0.1895 -0.2546 -0.2332
10547TIP3    H153056   4.677   2.555  17.060 -1.2305 -0.2732 -2.3560
10547TIP3    H253057   4.826   2.555  17.087 -1.8666 -1.0277  1.8877
10548TIP3   OH253058   1.122   2.830  15.470 -0.3720 -0.0814 -0.0622
10548TIP3    H153059   1.067   2.789  15.403 -1.0433 -0.2472  0.5735
10548TIP3    H253060   1.063   2.842  15.545  0.3147  0.2762  0.4322
10549TIP3   OH253061   2.779   2.772  15.797 -0.3406 -0.2510 -0.4588
10549TIP3    H153062   2.736   2.757  15.712  1.0530  0.3925 -1.3179
10549TIP3    H253063   2.865   2.807  15.774 -0.6813  1.9412  1.2380
10550TIP3   OH253064   0.484   1.150  12.649  0.2627 -0.8822 -0.6788
10550TIP3    H153065   0.392   1.144  12.627 -0.5238 -1.9948  2.3708
10550TIP3    H253066   0.508   1.062  12.678  1.3985  0.0251  1.3906
10551TIP3   OH253067   5.757   4.289   3.948 -0.2862 -0.1779 -0.2743
10551TIP3    H153068   5.818   4.318   3.880 -1.2964  3.1906  0.0725
10551TIP3    H253069   5.676   4.269   3.900 -0.3545  0.1135 -0.2835
10552TIP3   OH253070   6.329   1.503   5.697 -0.5605  0.8843 -0.1134
10552TIP3    H153071   6.366   1.583   5.735  2.8421 -0.7724  0.4510
10552TIP3    H253072   6.326   1.441   5.770 -1.1745 -0.1305 -0.9715
10553TIP3   OH253073   0.330   3.866   3.205 -0.0457 -0.2639  0.1463
10553TIP3    H153074   0.319   3.855   3.299 -1.5684  0.4770  0.0897
10553TIP3    H253075   0.306   3.958   3.189 -1.0503 -0.7167 -1.1084
10554TIP3   OH253076   6.270   0.152   0.602  0.0354  0.1890 -0.3025
10554TIP3    H153077   6.359   0.149   0.637  0.3029 -0.0644 -0.9963
10554TIP3    H253078   6.262   0.240   0.565 -0.5554  0.7822  1.1640
10555TIP3   OH253079   3.461   3.912  12.677  0.4014  0.1253  0.1077
10555TIP3    H153080   3.388   3.885  12.734  1.3217 -1.0589  0.7621
10555TIP3    H253081   3.539   3.894  12.728  1.2019  0.3646 -1.0035
10556TIP3   OH253082   2.504   1.216  16.081 -0.1482  0.2993  0.5283
10556TIP3    H153083   2.426   1.250  16.124 -0.8279 -1.0726  0.4468
10556TIP3    H253084   2.577   1.261  16.123 -0.9470  1.0633  1.1152
10557TIP3   OH253085   1.217   2.167   5.139  0.2967 -0.8918  0.2309
10557TIP3    H153086   1.233   2.216   5.219 -0.6225 -1.2612  0.6525
10557TIP3    H253087   1.264   2.216   5.071  1.8660 -1.0944  1.1306
10558TIP3   OH253088   1.146   6.704  17.139  0.2133 -0.1186  0.3991
10558TIP3    H153089   1.211   6.731  17.205 -0.8301 -1.6842  2.1561
10558TIP3    H253090   1.186   6.728  17.056  2.1872  0.7332  1.5094
10559TIP3   OH253091   6.366   6.283   6.323 -0.3119 -0.4141 -0.3183
10559TIP3    H153092   6.334   6.205   6.277 -0.1506 -0.2358 -0.7414
10559TIP3    H253093   6.379   6.254   6.413 -1.7893 -0.4594 -0.1062
10560TIP3   OH253094   0.116   6.751  16.681 -0.0533 -0.7450 -0.2756
10560TIP3    H153095   0.176   6.723  16.750 -0.4995 -0.9640  0.0326
10560TIP3    H253096   0.038   6.696  16.694 -1.3633  1.2964  0.9840
10561TIP3   OH253097   0.205   0.034  13.594  0.1060 -0.1303  0.7941
10561TIP3    H153098   0.110   0.024  13.586 -0.2846  1.5662  2.5246
10561TIP3    H253099   0.241  -0.020  13.523 -2.1500 -0.3343 -0.2888
10562TIP3   OH253100   0.454   2.836   1.693  0.1302  0.0165  0.3410
10562TIP3    H153101   0.469   2.744   1.674  3.1746  0.7155 -1.3936
10562TIP3    H253102   0.393   2.865   1.625 -0.1181 -0.5029  0.3360
10563TIP3   OH253103   0.305   3.147   2.690  0.3702 -0.8051  0.1833
10563TIP3    H153104   0.312   3.085   2.763 -1.9587 -1.6206 -0.1863
10563TIP3    H253105   0.288   3.091   2.614  1.9254  0.0900 -0.8876
10564TIP3   OH253106   3.835   2.894  13.476 -0.2682  0.4500 -0.2652
10564TIP3    H153107   3.743   2.885  13.502 -0.3495  0.1701 -0.6468
10564TIP3    H253108   3.834   2.960  13.407 -0.0904  0.9602  0.2049
10565TIP3   OH253109   1.062   5.058  16.992  0.2166 -0.3197  0.1416
10565TIP3    H153110   1.014   5.095  17.066  1.0689 -0.5267  0.8041
10565TIP3    H253111   1.058   5.127  16.925  0.7866  0.5161  0.9454
10566TIP3   OH253112   0.910   4.473  16.928 -0.1894  0.1620 -0.3899
10566TIP3    H153113   0.842   4.505  16.869 -0.8231 -0.0713  0.1921
10566TIP3    H253114   0.917   4.380  16.908  0.1069  0.2285 -0.5946
10567TIP3   OH253115   6.314   5.433  11.385 -0.0645  0.3278 -0.0121
10567TIP3    H153116   6.333   5.522  11.415  2.6171  0.3287 -1.4653
10567TIP3    H253117   6.347   5.376  11.455  1.1515  0.4385 -0.4814
10568TIP3   OH253118   3.959   0.501   6.054  0.0809  0.2081  0.3725
10568TIP3    H153119   4.002   0.416   6.043  0.4429  0.3104  0.9281
10568TIP3    H253120   4.016   0.563   6.008  1.3397  0.5636  2.2930
10569TIP3   OH253121   2.972   3.027   3.603  0.0267 -0.6077  0.0849
10569TIP3    H153122   2.953   2.946   3.650  0.6447  0.0015  1.4496
10569TIP3    H253123   2.995   3.089   3.672 -0.8834  0.8703 -0.8958
10570TIP3   OH253124   1.799   3.291  16.192  0.2664  0.0181  0.0283
10570TIP3    H153125   1.893   3.278  16.180  0.6735  1.3131  1.4583
10570TIP3    H253126   1.780   3.370  16.141 -0.0346 -0.2221 -0.2278
10571TIP3   OH253127   0.911   6.618   3.166 -0.4456  0.0934 -0.4887
10571TIP3    H153128   0.897   6.694   3.109  1.6607  0.6696 -0.2988
10571TIP3    H253129   0.934   6.655   3.251 -1.3607 -0.7751  0.1597
10572TIP3   OH253130   6.336   5.636  12.583  0.2538 -0.3872 -0.2362
10572TIP3    H153131   6.412   5.651  12.527  1.0660 -1.3963  0.5403
10572TIP3    H253132   6.312   5.545  12.567 -2.5517  0.5660 -2.4837
10573TIP3   OH253133   2.622   1.649  13.719 -0.1160  0.2159  0.5141
10573TIP3    H153134   2.581   1.735  13.709 -0.9860 -0.1839  0.5837
10573TIP3    H253135   2.549   1.588  13.722  0.4790 -0.4853  0.9255
10574TIP3   OH253136   2.309   4.848   3.308  0.3249  0.0268 -0.3022
10574TIP3    H153137   2.319   4.753   3.300 -0.0552 -0.0625  0.1856
10574TIP3    H253138   2.389   4.884   3.272  0.4053 -0.4765 -0.6360
10575TIP3   OH253139   6.592   1.850  13.532 -0.1804 -0.0472  0.5926
10575TIP3    H153140   6.567   1.771  13.579 -2.1980 -0.8829 -1.6799
10575TIP3    H253141   6.680   1.870  13.563  0.1291 -2.7821  1.7267
10576TIP3   OH253142   0.948   0.778  11.514  0.0663 -0.2523  0.4497
10576TIP3    H153143   0.859   0.789  11.545  0.0291  1.2208 -0.0957
10576TIP3    H253144   0.995   0.855  11.547  1.0897 -0.9023  0.5579
10577TIP3   OH253145   1.910   0.964  12.476 -0.1025 -0.8093  0.1921
10577TIP3    H153146   1.986   1.020  12.491  0.9674 -2.3149  0.6574
10577TIP3    H253147   1.902   0.958  12.381 -1.1617  1.3000  0.1075
10578TIP3   OH253148   1.493   4.698  15.319 -0.1931  0.0115 -0.3635
10578TIP3    H153149   1.480   4.792  15.332 -0.1904  0.1712 -1.4308
10578TIP3    H253150   1.563   4.675  15.381 -0.4334  0.6304  0.1510
10579TIP3   OH253151   3.863   6.706  13.309  0.0183 -0.4521  0.7513
10579TIP3    H153152   3.768   6.704  13.320 -0.2313  0.0121 -0.9810
10579TIP3    H253153   3.883   6.625  13.261  0.0305  0.8653 -1.6337
10580TIP3   OH253154   4.825   1.804   4.741  0.2272 -0.3230 -0.0728
10580TIP3    H153155   4.831   1.826   4.648 -0.0723 -1.5320 -0.3982
10580TIP3    H253156   4.915   1.807   4.772  0.1675  1.6902  0.0083
10581TIP3   OH253157   0.729   2.318  15.421  0.6343 -0.1281  0.2681
10581TIP3    H153158   0.802   2.379  15.427  0.8300 -0.4462  1.7497
10581TIP3    H253159   0.652   2.369  15.447  0.1096  0.4765 -2.2759
10582TIP3   OH253160   3.357   0.113  13.170  0.7205  0.2778  0.4014
10582TIP3    H153161   3.376   0.136  13.261  1.2679  0.4051  0.2541
10582TIP3    H253162   3.440   0.121  13.124  0.6068 -0.4919  0.0296
10583TIP3   OH253163   2.649   4.695  13.206 -0.3747 -0.4672  0.5045
10583TIP3    H153164   2.695   4.749  13.141  1.3371 -1.7949  0.5252
10583TIP3    H253165   2.589   4.641  13.155  0.1704 -0.7197  0.1123
10584TIP3   OH253166   1.834   3.932   1.561  0.0287 -0.2442 -0.0095
10584TIP3    H153167   1.849   4.013   1.610  0.5147 -0.0667 -0.4404
10584TIP3    H253168   1.740   3.931   1.544 -0.1547 -0.3136  0.9246
10585TIP3   OH253169   0.030   2.171   0.354 -0.1747 -0.3851  0.4732
10585TIP3    H153170  -0.058   2.203   0.374 -0.6301 -1.4422  0.2138
10585TIP3    H253171   0.016   2.088   0.309  0.9239  0.0694 -0.7696
10586TIP3   OH253172   6.233   0.556  12.534  0.1612  0.0003  0.7205
10586TIP3    H153173   6.221   0.477  12.587 -1.7531 -0.7399 -0.6950
10586TIP3    H253174   6.159   0.612  12.557 -0.9022 -0.4775 -1.3054
10587TIP3   OH253175   5.533   4.987  11.738  0.4868  0.3375 -0.1482
10587TIP3    H153176   5.546   4.954  11.827 -0.5781 -0.3400 -0.2266
10587TIP3    H253177   5.611   4.958  11.690 -0.3234 -1.9898 -0.1752
10588TIP3   OH253178   2.420   6.298   6.515  0.0205  0.5362  0.4775
10588TIP3    H153179   2.379   6.259   6.437 -4.8027  1.2218  2.3176
10588TIP3    H253180   2.422   6.227   6.579  2.3253  0.4426  0.3966
10589TIP3   OH253181   6.715   5.424   5.008 -0.0860 -0.4306  0.5359
10589TIP3    H153182   6.727   5.376   4.926  0.9690  0.2513  0.2597
10589TIP3    H253183   6.644   5.485   4.989  0.8212  0.4387 -0.2543
10590TIP3   OH253184   4.849   6.036  15.471  0.6163  0.4749  0.0728
10590TIP3    H153185   4.876   5.968  15.410  1.6948  1.3265 -0.4335
10590TIP3    H253186   4.759   6.012  15.495  0.5351 -0.4462 -1.0411
10591TIP3   OH253187   5.141   1.288   4.782  0.0782  0.1854  0.1932
10591TIP3    H153188   5.132   1.279   4.687 -0.0291  0.1455  0.2079
10591TIP3    H253189   5.052   1.296   4.814  0.1643  1.9001  0.1139
10592TIP3   OH253190   4.690   0.151   2.371 -0.1569 -0.6722 -0.5532
10592TIP3    H153191   4.629   0.078   2.363 -0.6228 -0.5439  1.4684
10592TIP3    H253192   4.734   0.137   2.455 -1.5659  2.2952  0.8125
10593TIP3   OH253193   2.796   0.665   2.054  0.3235  0.4573 -0.1884
10593TIP3    H153194   2.847   0.725   2.000 -0.6244 -1.6351 -3.7510
10593TIP3    H253195   2.708   0.702   2.055  0.5013  0.8656  0.5667
10594TIP3   OH253196   0.054   4.981  14.219 -0.6872 -0.7516 -0.4069
10594TIP3    H153197   0.085   4.893  14.196 -3.0378 -1.5113 -0.8953
10594TIP3    H253198   0.044   5.025  14.135 -0.1570 -0.2197 -0.1979
10595TIP3   OH253199   5.744   3.181   0.809  0.2805 -0.1160 -0.2226
10595TIP3    H153200   5.672   3.243   0.804 -0.8203 -1.4007 -1.1993
10595TIP3    H253201   5.790   3.190   0.726 -0.1098 -0.8378 -0.5271
10596TIP3   OH253202   2.680   3.015  15.494 -0.5170 -0.2143  0.1385
10596TIP3    H153203   2.734   3.092  15.509 -0.6960 -0.2269  0.8948
10596TIP3    H253204   2.596   3.050  15.462  0.1565 -0.2342 -1.8070
10597TIP3   OH253205   1.942   2.151   1.360  0.1291  0.5874 -0.1915
10597TIP3    H153206   2.031   2.172   1.332 -0.2738  1.9142 -0.5599
10597TIP3    H253207   1.925   2.064   1.325  1.4842  0.0520  0.4107
10598TIP3   OH253208   5.145   5.224  11.854 -0.0998 -0.3784  0.4927
10598TIP3    H153209   5.059   5.185  11.865 -1.7375  2.2794 -1.5467
10598TIP3    H253210   5.192   5.164  11.796 -1.2380 -0.9755  0.1662
10599TIP3   OH253211   3.447   1.635  13.862 -0.7060  0.0663 -0.0749
10599TIP3    H153212   3.442   1.566  13.797 -0.5333  0.5350 -0.5890
10599TIP3    H253213   3.356   1.662  13.877 -0.5910  2.1092 -2.4554
10600TIP3   OH253214   0.251   0.828   3.623  0.4433  0.0389  0.4329
10600TIP3    H153215   0.259   0.745   3.576 -1.9756 -0.6921  1.1963
10600TIP3    H253216   0.336   0.841   3.664  1.5652 -0.9369 -1.4748
10601TIP3   OH253217   1.518   5.563  16.552 -0.4142  0.2848 -0.1441
10601TIP3    H153218   1.566   5.480  16.548 -0.1631  0.4009  0.3585
10601TIP3    H253219   1.464   5.564  16.473  0.6258  0.2950 -0.8657
10602TIP3   OH253220   4.825   4.908  16.552 -0.1680 -0.3378  0.6743
10602TIP3    H153221   4.876   4.852  16.610  1.0982  1.6593  1.6178
10602TIP3    H253222   4.743   4.921  16.598 -0.4715 -1.3691  0.4491
10603TIP3   OH253223   6.417   6.503   3.540  0.1899  0.7155  0.4927
10603TIP3    H153224   6.502   6.542   3.561  0.8747  0.4388 -1.5668
10603TIP3    H253225   6.365   6.576   3.507 -0.7605  1.0735  2.5760
10604TIP3   OH253226   3.267   3.261   5.062 -0.6385 -0.5569 -0.4366
10604TIP3    H153227   3.331   3.190   5.061 -1.0487 -0.9291 -0.5209
10604TIP3    H253228   3.277   3.303   4.977  0.6247  0.4242  0.1526
10605TIP3   OH253229   2.267   1.314   2.739 -0.1839  0.6241 -0.8107
10605TIP3    H153230   2.361   1.328   2.731 -0.2018  0.0676 -2.4024
10605TIP3    H253231   2.228   1.388   2.692 -0.5225  0.5828 -0.6001
10606TIP3   OH253232   4.514   5.645   2.078  0.4170 -0.2813 -0.0392
10606TIP3    H153233   4.508   5.550   2.070  1.6198 -0.3361 -0.5392
10606TIP3    H253234   4.428   5.677   2.051  0.5127 -1.1433 -1.4559
10607TIP3   OH253235   2.378   4.291   1.476 -0.2014 -0.2857  0.7132
10607TIP3    H153236   2.450   4.337   1.520  0.4505  0.0374 -0.6342
10607TIP3    H253237   2.420   4.216   1.435 -0.4658  0.3180 -0.7327
10608TIP3   OH253238   3.050   2.510   2.942  0.0229 -0.4517  0.3573
10608TIP3    H153239   3.008   2.586   2.901 -0.2847 -0.4053  0.7553
10608TIP3    H253240   3.054   2.444   2.872 -0.3236 -0.3054  0.1970
10609TIP3   OH253241   2.790   1.254  11.771 -0.0089  0.1808 -0.5997
10609TIP3    H153242   2.700   1.284  11.779  0.0588  0.1645  0.3240
10609TIP3    H253243   2.806   1.250  11.676  0.1366  3.5503 -0.8419
10610TIP3   OH253244   2.075   1.450  12.796  0.3865  0.1460 -0.0447
10610TIP3    H153245   2.161   1.413  12.816  0.2474  0.7591  1.9294
10610TIP3    H253246   2.013   1.391  12.839 -0.1245  0.2256 -0.6564
10611TIP3   OH253247   6.265   0.403  12.306  0.6509 -0.2669 -0.5308
10611TIP3    H153248   6.240   0.457  12.381 -0.0308 -1.5887  0.2326
10611TIP3    H253249   6.274   0.315  12.342  0.8839 -0.8215 -1.9023
10612TIP3   OH253250   2.131   2.330   0.284 -0.6187 -0.2916  0.0703
10612TIP3    H153251   2.194   2.258   0.294 -0.2695 -0.2136 -1.3891
10612TIP3    H253252   2.114   2.359   0.373  2.1777  0.3292  0.4870
10613TIP3   OH253253   2.317   1.996  16.464 -0.2218 -0.7353 -0.5655
10613TIP3    H153254   2.235   2.036  16.493  1.3237  1.2311  1.4280
10613TIP3    H253255   2.303   1.902  16.477 -2.5820 -0.6103 -1.6049
10614TIP3   OH253256   0.335   5.794  11.371  0.4785  0.0131 -0.8146
10614TIP3    H153257   0.303   5.772  11.283  4.5472  1.2378 -2.8210
10614TIP3    H253258   0.278   5.866  11.399 -2.3096 -1.8119 -1.3151
10615TIP3   OH253259   1.934   4.892   3.706  0.0043 -0.0788  0.3984
10615TIP3    H153260   1.900   4.904   3.795  0.1313  1.9992  0.2159
10615TIP3    H253261   1.999   4.962   3.696 -2.1365  1.7433 -2.3173
10616TIP3   OH253262   0.606   2.048  13.375 -0.4407  0.2564  0.0939
10616TIP3    H153263   0.685   2.099  13.358 -0.5557  0.0872 -1.0084
10616TIP3    H253264   0.590   2.001  13.294 -1.2951 -0.2391  0.5375
10617TIP3   OH253265   2.968   1.899   1.791 -0.1516 -0.0557  0.0368
10617TIP3    H153266   3.059   1.882   1.768  0.3537  1.5925  0.7219
10617TIP3    H253267   2.967   1.989   1.824 -1.6406 -0.7260  2.0231
10618TIP3   OH253268   4.382   2.185   3.994 -0.2957  0.2094  0.4423
10618TIP3    H153269   4.450   2.143   3.943  0.2167  1.9265 -0.3576
10618TIP3    H253270   4.418   2.271   4.017 -1.7686  0.7410  0.9265
10619TIP3   OH253271   1.239   3.544  12.204 -0.3642 -0.5824 -0.6350
10619TIP3    H153272   1.286   3.513  12.127 -0.0312 -1.1817 -0.1991
10619TIP3    H253273   1.151   3.564  12.172  0.2991  1.0589 -1.5722
10620TIP3   OH253274   6.240   1.927  12.723  0.1010 -0.0415 -0.5951
10620TIP3    H153275   6.314   1.925  12.662 -1.2235 -1.8054 -2.2766
10620TIP3    H253276   6.277   1.901  12.807  1.4549 -0.6711 -1.3578
10621TIP3   OH253277   6.212   2.645   0.161  0.1624 -0.2404  0.1890
10621TIP3    H153278   6.263   2.593   0.098 -1.4837 -0.5446 -0.9764
10621TIP3    H253279   6.240   2.735   0.145 -0.3638 -0.2864 -1.1660
10622TIP3   OH253280   1.595   0.808  13.949 -0.0090  0.1390  0.0263
10622TIP3    H153281   1.558   0.804  14.038  1.4450 -1.3089  0.6140
10622TIP3    H253282   1.535   0.756  13.896  0.4340 -1.1323  0.7173
10623TIP3   OH253283   2.395   5.541  16.135 -0.4659 -0.2397  0.3837
10623TIP3    H153284   2.443   5.621  16.156 -0.3842 -0.1906  0.0266
10623TIP3    H253285   2.357   5.513  16.218  0.3848 -0.4080  0.7349
10624TIP3   OH253286   2.242   1.879  12.523 -0.5550 -0.0966  0.7091
10624TIP3    H153287   2.193   1.797  12.521  1.9150 -1.7020  0.9855
10624TIP3    H253288   2.287   1.877  12.608 -0.6851  1.7140  0.8433
10625TIP3   OH253289   6.377   1.864  12.956  0.8293  0.5677 -0.4187
10625TIP3    H153290   6.473   1.860  12.958  0.7951 -1.3725 -0.6653
10625TIP3    H253291   6.351   1.885  13.045  1.4425 -1.4406  0.2690
10626TIP3   OH253292   0.206   6.380  16.190  0.5441  0.1007  0.3375
10626TIP3    H153293   0.199   6.335  16.106  3.1440  2.1329 -1.1436
10626TIP3    H253294   0.215   6.309  16.254 -0.0786 -1.5080 -1.2478
10627TIP3   OH253295   4.831   5.818  13.009 -0.0888  0.5365 -0.4512
10627TIP3    H153296   4.872   5.867  12.939 -0.0019  1.3310  0.1381
10627TIP3    H253297   4.862   5.728  12.998  0.2338  0.7344 -1.1796
10628TIP3   OH253298   5.764   2.246  12.728  0.0393 -0.3832  0.7376
10628TIP3    H153299   5.826   2.294  12.784 -0.8132  0.0751  1.3118
10628TIP3    H253300   5.818   2.183  12.681  1.2442  1.2634 -0.1885
10629TIP3   OH253301   0.660   3.403  13.005  0.4420  0.0013 -0.0216
10629TIP3    H153302   0.627   3.451  12.929  1.7106  0.2857 -0.4239
10629TIP3    H253303   0.750   3.434  13.015  0.7888 -1.1755  0.6519
10630TIP3   OH253304   2.294   4.633  17.056 -0.2843 -0.1162  0.3564
10630TIP3    H153305   2.332   4.546  17.042 -1.5148 -0.7379  0.8137
10630TIP3    H253306   2.200   4.619  17.053 -0.5291  0.9023  2.2277
10631TIP3   OH253307   2.349   1.841  11.490 -0.4770  0.5060 -0.3520
10631TIP3    H153308   2.264   1.824  11.449  0.3400 -0.8059 -1.6237
10631TIP3    H253309   2.406   1.866  11.417  0.7715 -0.8550  0.0891
10632TIP3   OH253310   4.719   0.396   4.811 -0.0486 -0.0010 -0.5190
10632TIP3    H153311   4.740   0.468   4.871 -0.4584 -0.4840  0.2269
10632TIP3    H253312   4.647   0.431   4.758 -0.0440  0.2467 -0.3680
10633TIP3   OH253313   6.634   3.006   1.312  0.0755  0.1065 -0.2979
10633TIP3    H153314   6.601   3.047   1.232 -0.5637  0.3684  0.0842
10633TIP3    H253315   6.728   3.026   1.312  0.9261 -3.0583 -2.8486
10634TIP3   OH253316   1.617   2.982   5.794 -0.0225 -0.1394  0.5697
10634TIP3    H153317   1.587   2.909   5.847 -0.8134  0.0105  0.3422
10634TIP3    H253318   1.702   3.006   5.831  0.9183 -2.0665 -0.2109
10635TIP3   OH253319   2.261   4.843   6.591  0.8027  0.3261 -0.6819
10635TIP3    H153320   2.291   4.930   6.619  1.4133 -0.3591  0.8717
10635TIP3    H253321   2.335   4.785   6.606  0.8778 -0.2681 -3.0179
10636TIP3   OH253322   1.184   5.784  12.907  0.1642 -0.3371 -0.3527
10636TIP3    H153323   1.149   5.871  12.925 -0.2248 -0.4364 -0.6311
10636TIP3    H253324   1.175   5.738  12.990 -0.0333 -0.2493 -0.3230
10637TIP3   OH253325   1.736   2.715  11.511 -0.3445 -0.0687  0.3339
10637TIP3    H153326   1.660   2.662  11.487 -1.8237  1.7628  0.7803
10637TIP3    H253327   1.701   2.784  11.567  1.9646 -0.2454  2.1284
10638TIP3   OH253328   5.552   4.643   5.230 -0.6157 -0.1845  0.3935
10638TIP3    H153329   5.579   4.717   5.285 -0.6197 -0.8669  1.3290
10638TIP3    H253330   5.499   4.683   5.161 -1.0776  0.6375  1.1952
10639TIP3   OH253331   0.419   0.454  15.037  0.2671 -0.3571  0.2257
10639TIP3    H153332   0.425   0.368  14.997 -0.9298 -1.5887  2.4787
10639TIP3    H253333   0.502   0.464  15.085  0.2230 -0.4862  0.3319
10640TIP3   OH253334   3.061   2.543  10.811  0.3898 -0.4881  0.1685
10640TIP3    H153335   3.091   2.483  10.880 -1.2599 -1.2222  0.2909
10640TIP3    H253336   3.024   2.486  10.744  1.4312  0.2547 -1.0913
10641TIP3   OH253337   3.883   6.412   6.245  0.7844 -0.0971  0.7703
10641TIP3    H153338   3.833   6.449   6.172  1.6034  0.6631  0.5667
10641TIP3    H253339   3.892   6.319   6.224 -0.3589 -0.2099  0.7173
10642TIP3   OH253340   6.125   3.980   4.493 -0.2845 -0.3141  0.6040
10642TIP3    H153341   6.123   3.895   4.449 -2.3113  1.0124 -2.2211
10642TIP3    H253342   6.149   4.042   4.423 -1.2737  1.6946  1.9473
10643TIP3   OH253343   6.679   3.398   1.268 -0.3796  0.2263  0.3044
10643TIP3    H153344   6.734   3.363   1.339 -0.7489  1.1772  1.0781
10643TIP3    H253345   6.708   3.350   1.190  2.0725  1.1629  0.5349
10644TIP3   OH253346   6.336   1.068  12.524  0.1455 -0.4168 -0.0832
10644TIP3    H153347   6.330   0.983  12.479  1.5651  0.1695 -1.5157
10644TIP3    H253348   6.405   1.115  12.476 -0.1097  1.2801  1.1203
10645TIP3   OH253349   3.624   6.479  11.858 -0.2508  0.0762 -1.2430
10645TIP3    H153350   3.626   6.384  11.855  0.7556  0.0996 -1.6769
10645TIP3    H253351   3.675   6.506  11.781 -2.0025  0.9699 -2.1481
10646TIP3   OH253352   6.454   3.729  10.405 -0.0269  0.1932  0.4739
10646TIP3    H153353   6.391   3.748  10.475 -1.6440 -0.5366 -0.7051
10646TIP3    H253354   6.518   3.671  10.445 -0.8523 -0.1066  1.4110
10647TIP3   OH253355   2.575   4.631  15.357 -0.3923  0.0547  0.2140
10647TIP3    H153356   2.645   4.686  15.392  0.6760 -0.9252 -0.3335
10647TIP3    H253357   2.500   4.649  15.413  0.1036  1.5957  0.4329
10648TIP3   OH253358   4.267   1.355  15.345  0.0293  0.3367  0.1818
10648TIP3    H153359   4.260   1.439  15.301  0.8216  0.6933  0.7207
10648TIP3    H253360   4.296   1.294  15.277 -0.9476  0.3965 -0.3044
10649TIP3   OH253361   0.498   4.512   2.021  0.0892 -0.1914  0.0390
10649TIP3    H153362   0.511   4.576   2.091  3.0794  0.5493 -1.0150
10649TIP3    H253363   0.543   4.433   2.051 -0.9240 -0.7906  0.0291
10650TIP3   OH253364   5.629   0.194   3.029  0.3185  0.1928 -0.0556
10650TIP3    H153365   5.562   0.174   3.094  0.5839 -0.4432  0.0274
10650TIP3    H253366   5.679   0.267   3.067  0.4534 -0.1537  0.4356
10651TIP3   OH253367   0.716   2.130   0.698  0.3843 -0.6800  0.6066
10651TIP3    H153368   0.716   2.098   0.608 -2.1932 -2.0218  0.9823
10651TIP3    H253369   0.803   2.109   0.731  1.3859 -0.1761 -1.5300
10652TIP3   OH253370   2.801   4.254   3.681  0.4842  0.6366  0.0402
10652TIP3    H153371   2.816   4.161   3.665  1.7834  1.0842 -1.7086
10652TIP3    H253372   2.720   4.258   3.731  0.8669 -1.4650  0.9184
10653TIP3   OH253373   5.459   1.250  15.231 -0.6659  0.0457  0.1267
10653TIP3    H153374   5.504   1.331  15.256  0.6591 -1.2858  2.2739
10653TIP3    H253375   5.528   1.194  15.196 -0.9573 -1.3167  1.6406
10654TIP3   OH253376   5.131   1.152   3.209  0.1628  0.1828 -0.0503
10654TIP3    H153377   5.062   1.091   3.186  1.2161 -0.7580 -0.8224
10654TIP3    H253378   5.161   1.123   3.295  0.0438  0.1705 -0.0138
10655TIP3   OH253379   0.939   4.381   0.098 -0.2924 -0.2711 -0.1330
10655TIP3    H153380   0.859   4.339   0.130  1.0773 -0.3723  3.6847
10655TIP3    H253381   0.933   4.471   0.129  1.0812 -0.2844  0.1985
10656TIP3   OH253382   4.897   5.221  16.809 -0.0669 -0.4806 -0.2602
10656TIP3    H153383   4.943   5.150  16.853  0.1267 -2.2379 -3.0671
10656TIP3    H253384   4.967   5.271  16.766 -0.4014 -0.1325 -0.4026
10657TIP3   OH253385   5.235   2.977  13.960  0.1137 -0.0538 -0.0485
10657TIP3    H153386   5.247   2.946  14.050 -2.0211 -1.0394 -0.0493
10657TIP3    H253387   5.143   2.961  13.941  0.7521 -1.0381 -2.8487
10658TIP3   OH253388   0.581   4.643   1.679 -0.4801  0.1970 -0.4586
10658TIP3    H153389   0.594   4.552   1.654 -0.2762 -0.4195  1.6342
10658TIP3    H253390   0.490   4.646   1.711  0.2106  0.0886  1.6971
10659TIP3   OH253391   3.795   6.661   3.139  0.1163  0.2959 -0.8454
10659TIP3    H153392   3.727   6.598   3.165  0.2487 -0.3025 -1.8853
10659TIP3    H253393   3.748   6.729   3.091  0.3499 -0.7806 -2.7187
10660TIP3   OH253394   5.595   2.910   2.700 -0.6052  0.1574  0.4135
10660TIP3    H153395   5.589   2.864   2.784  1.0225 -0.7677  0.0776
10660TIP3    H253396   5.597   2.840   2.635 -1.6913  0.8614 -0.4119
10661TIP3   OH253397   1.392   2.135   4.876  0.3033  0.3489 -0.0019
10661TIP3    H153398   1.473   2.119   4.829 -0.8452 -1.8479 -1.4037
10661TIP3    H253399   1.327   2.151   4.807 -0.6744  1.0723  1.0434
10662TIP3   OH253400   1.247   6.518   4.578  0.5026 -0.8008  0.4720
10662TIP3    H153401   1.335   6.554   4.591  0.1411  0.2709  0.0624
10662TIP3    H253402   1.198   6.543   4.656 -0.1910  1.0389 -0.4983
10663TIP3   OH253403   5.846   0.002   3.630 -0.0908 -0.1967 -0.0556
10663TIP3    H153404   5.798  -0.080   3.618 -1.8373  0.6622  0.6668
10663TIP3    H253405   5.856   0.037   3.541  2.2622 -1.9647 -0.5920
10664TIP3   OH253406   4.222   1.969   5.372 -0.2778  0.2498 -0.2019
10664TIP3    H153407   4.256   1.933   5.291 -0.9369  1.7639 -1.2001
10664TIP3    H253408   4.149   1.911   5.396 -2.1767  1.5319 -2.4748
10665TIP3   OH253409   4.184   3.057   5.128  0.0426 -0.2075  0.1418
10665TIP3    H153410   4.239   3.025   5.056  0.5726  2.1363 -0.5962
10665TIP3    H253411   4.246   3.081   5.197 -0.5081 -3.3573  1.9300
10666TIP3   OH253412   6.406   3.213   0.327 -0.3242 -0.8684  0.0999
10666TIP3    H153413   6.312   3.222   0.338 -0.8700 -2.2038 -2.6701
10666TIP3    H253414   6.424   3.120   0.337  0.8076 -0.5805  1.0369
10667TIP3   OH253415   1.772   0.196   2.466 -0.1003  0.5620 -0.4191
10667TIP3    H153416   1.821   0.136   2.521  0.4461  0.5827 -0.8813
10667TIP3    H253417   1.835   0.226   2.401 -0.5687  1.0480 -0.6533
10668TIP3   OH253418   5.260   0.263  11.690 -0.2125  0.2881  0.0246
10668TIP3    H153419   5.234   0.172  11.705 -0.6934  0.0754 -1.8780
10668TIP3    H253420   5.193   0.299  11.632  1.0177  1.2481 -0.8716
10669TIP3   OH253421   3.610   3.878   1.010  0.2838 -0.1793  0.4174
10669TIP3    H153422   3.669   3.946   0.979  0.6963 -0.2166  1.1123
10669TIP3    H253423   3.579   3.909   1.095  1.2545 -1.2973  1.2045
10670TIP3   OH253424   1.158   0.851  14.088 -0.3172  0.0499  0.1913
10670TIP3    H153425   1.222   0.875  14.155 -0.0684  0.2695 -0.1201
10670TIP3    H253426   1.093   0.797  14.134 -0.1046  0.1314  0.5870
10671TIP3   OH253427   1.106   4.593  13.422  0.1745 -0.1644 -0.1088
10671TIP3    H153428   1.077   4.624  13.337  0.5938 -2.5949 -1.2162
10671TIP3    H253429   1.197   4.623  13.429 -0.9545  3.4330  1.3277
10672TIP3   OH253430   5.641   4.956  14.630 -0.2935 -0.0833 -0.2247
10672TIP3    H153431   5.684   4.877  14.665 -0.4786 -0.1584 -0.1641
10672TIP3    H253432   5.557   4.960  14.676  0.1784  0.7753  0.5979
10673TIP3   OH253433   3.802   0.897  11.405 -0.5384 -0.3041  0.1509
10673TIP3    H153434   3.793   0.857  11.491 -0.1408  0.3031  0.4826
10673TIP3    H253435   3.893   0.879  11.380  0.5056  2.5273  1.4452
10674TIP3   OH253436   1.906   0.016   3.639  0.7101  0.6764  0.2015
10674TIP3    H153437   1.833   0.038   3.697  0.3526 -1.5564  0.6843
10674TIP3    H253438   1.966   0.091   3.647 -0.8185  1.8850  0.9160
10675TIP3   OH253439   0.092   1.907   3.716 -0.5328  0.3450  0.0663
10675TIP3    H153440   0.105   1.979   3.778 -1.0923 -0.4517  1.1287
10675TIP3    H253441   0.086   1.951   3.631  2.0470  1.3446  0.2798
10676TIP3   OH253442   0.840   5.915  15.625  0.2820  0.2778 -0.3209
10676TIP3    H153443   0.807   5.940  15.712  0.6724 -0.8939  0.1898
10676TIP3    H253444   0.893   5.990  15.598 -1.1068  1.3245 -0.2596
10677TIP3   OH253445   0.559   1.627   5.125  0.5432 -0.2080  0.2745
10677TIP3    H153446   0.580   1.541   5.160 -1.2085 -0.8936 -0.2515
10677TIP3    H253447   0.638   1.679   5.140  1.4939 -1.7778  0.9607
10678TIP3   OH253448   5.539   0.138  11.771 -0.1906  0.1031  0.0683
10678TIP3    H153449   5.471   0.204  11.759  0.0775  0.6053  1.1180
10678TIP3    H253450   5.571   0.154  11.860  0.2315 -1.1224  0.1482
10679TIP3   OH253451   4.644   2.900   5.845 -0.2738  0.0962 -0.2079
10679TIP3    H153452   4.562   2.873   5.886 -0.8265  0.3076 -1.1270
10679TIP3    H253453   4.669   2.980   5.890 -0.5449  0.0005  0.1135
10680TIP3   OH253454   2.714   6.598   4.604  0.1807  0.0021  0.0170
10680TIP3    H153455   2.755   6.624   4.687 -0.2811 -0.1733  0.3003
10680TIP3    H253456   2.759   6.517   4.580 -1.8183 -1.6985  1.7149
10681TIP3   OH253457   0.182   4.384  12.858  0.1199 -0.1020 -0.1843
10681TIP3    H153458   0.185   4.374  12.763 -1.4109 -2.6487 -0.0670
10681TIP3    H253459   0.122   4.458  12.873 -0.0491 -0.0269 -1.1890
10682TIP3   OH253460   5.066   6.083  13.965  0.4959  0.4388 -0.2592
10682TIP3    H153461   5.056   6.095  14.060 -0.2328  0.5831 -0.3475
10682TIP3    H253462   5.095   6.169  13.934 -0.7575  0.8454 -0.3576
10683TIP3   OH253463   5.766   1.457   4.588 -0.5315  0.7572 -0.0701
10683TIP3    H153464   5.791   1.529   4.645  0.6027  1.6696 -1.6234
10683TIP3    H253465   5.843   1.400   4.585 -1.5329 -0.7954  1.4299
10684TIP3   OH253466   3.310   1.743  12.534 -0.5355 -0.6541  0.3485
10684TIP3    H153467   3.341   1.781  12.451 -1.4651 -0.3751  0.1182
10684TIP3    H253468   3.354   1.793  12.602  0.7796 -1.3441  0.0309
10685TIP3   OH253469   6.323   5.405  16.285  0.3439  0.5133 -0.5099
10685TIP3    H153470   6.374   5.477  16.323  0.5241  1.4898 -2.4646
10685TIP3    H253471   6.300   5.436  16.198 -3.0087 -0.1835 -0.0072
10686TIP3   OH253472   3.948   4.161  11.239  0.0463 -0.1190 -0.5468
10686TIP3    H153473   3.977   4.111  11.315 -1.1016 -0.7102 -0.4875
10686TIP3    H253474   3.854   4.145  11.233 -0.0764  0.8164 -1.4356
10687TIP3   OH253475   3.076   6.156  16.158 -0.3155 -0.4427  0.2245
10687TIP3    H153476   2.998   6.129  16.206  0.2033 -1.9386  0.2812
10687TIP3    H253477   3.127   6.207  16.222 -0.6056 -0.6366  0.6137
10688TIP3   OH253478   2.912   0.389  13.237 -0.2294 -0.1602 -0.2437
10688TIP3    H153479   2.969   0.318  13.267 -0.3521  0.0995  0.6242
10688TIP3    H253480   2.823   0.357  13.252 -0.2889  0.6917  1.4684
10689TIP3   OH253481   4.620   0.785  14.277  0.1093 -0.1177 -0.0902
10689TIP3    H153482   4.707   0.794  14.238 -0.7983 -0.3289 -2.3150
10689TIP3    H253483   4.564   0.760  14.204 -1.9437  0.6003  1.1615
10690TIP3   OH253484   2.770   0.131   2.916 -0.0785  0.1945 -0.4455
10690TIP3    H153485   2.704   0.071   2.881  0.6481 -0.3251 -0.9355
10690TIP3    H253486   2.725   0.175   2.989 -0.5569 -1.1128  0.0814
10691TIP3   OH253487   0.049   4.602  15.837 -0.0594  0.6786  0.6502
10691TIP3    H153488  -0.006   4.525  15.822 -0.4769  0.9605  0.7527
10691TIP3    H253489   0.044   4.618  15.931 -0.7619  1.4288  0.4893
10692TIP3   OH253490   0.664   1.197   3.204  0.5395 -0.2094  0.0469
10692TIP3    H153491   0.723   1.138   3.252 -0.4089 -0.4999  0.8861
10692TIP3    H253492   0.607   1.233   3.272 -0.9177 -0.7306 -0.8720
10693TIP3   OH253493   6.134   2.681  11.716  0.0234  0.1884  0.4620
10693TIP3    H153494   6.138   2.586  11.725 -1.3730  0.1285  0.7248
10693TIP3    H253495   6.167   2.698  11.627  0.2852 -0.5373  0.4134
10694TIP3   OH253496   4.030   0.251  12.951  0.2625  0.0740 -0.0947
10694TIP3    H153497   3.982   0.169  12.938 -1.3308  1.0384 -0.5926
10694TIP3    H253498   3.966   0.310  12.990  0.9705  1.4981 -1.0244
10695TIP3   OH253499   1.824   1.270  13.492 -0.0532  0.4064  0.2245
10695TIP3    H153500   1.850   1.287  13.401 -0.4616 -1.0977 -0.2002
10695TIP3    H253501   1.847   1.178  13.507  2.0723  1.1856  2.3974
10696TIP3   OH253502   4.163   4.416   5.438  0.2680  0.2412 -0.0588
10696TIP3    H153503   4.136   4.354   5.506 -2.3896 -0.3525 -1.5139
10696TIP3    H253504   4.170   4.500   5.483 -1.2880 -0.1603  1.0111
10697TIP3   OH253505   3.494   0.542  15.145 -0.1133  0.2592  0.2143
10697TIP3    H153506   3.551   0.583  15.210 -0.7915  2.1390 -0.3048
10697TIP3    H253507   3.419   0.601  15.139 -1.3019 -1.2552 -0.3782
10698TIP3   OH253508   0.480   2.050   3.286 -0.0166  0.5732  0.0975
10698TIP3    H153509   0.463   2.067   3.194 -0.1450  2.0495  0.3725
10698TIP3    H253510   0.574   2.062   3.297  0.2611 -1.1076 -0.1108
10699TIP3   OH253511   2.038   5.269   0.808  0.3069 -0.1329  0.2224
10699TIP3    H153512   2.103   5.243   0.873 -1.0205  0.8572  2.0349
10699TIP3    H253513   1.969   5.204   0.815 -0.0584  0.2448  0.1547
10700TIP3   OH253514   0.482   3.436  11.932 -0.3317 -0.1610  0.6018
10700TIP3    H153515   0.574   3.462  11.921  0.1014 -1.4531  0.9335
10700TIP3    H253516   0.487   3.349  11.971 -1.6397 -1.5765 -2.1217
10701TIP3   OH253517   5.089   5.099  11.489  0.6489  0.0307  0.3024
10701TIP3    H153518   5.111   5.045  11.564  3.0012  0.4794 -0.0021
10701TIP3    H253519   5.050   5.038  11.426  0.6863 -0.7521  1.0186
10702TIP3   OH253520   3.735   2.371   4.617  0.2855 -0.2155 -0.2519
10702TIP3    H153521   3.646   2.336   4.624 -0.7264  2.1802  0.1715
10702TIP3    H253522   3.783   2.331   4.689 -1.1738  0.2668  1.0526
10703TIP3   OH253523   3.257   1.296   3.852 -0.1752 -0.0953  0.6882
10703TIP3    H153524   3.285   1.209   3.822  1.3293 -0.1770  2.1767
10703TIP3    H253525   3.187   1.278   3.915 -1.3130 -0.0839 -0.5426
10704TIP3   OH253526   5.052   1.270   4.518  0.2162 -0.2400  0.2613
10704TIP3    H153527   5.027   1.362   4.511 -0.4746  0.1455  4.6616
10704TIP3    H253528   5.147   1.270   4.515  0.2082  0.5285 -0.2391
10705TIP3   OH253529   6.635   6.131  12.808  0.5110 -0.5948 -0.7385
10705TIP3    H153530   6.674   6.134  12.896 -2.1472 -0.4266  0.5199
10705TIP3    H253531   6.571   6.060  12.813 -0.1833 -0.1161 -2.3422
10706TIP3   OH253532   5.499   2.495   3.354 -0.2631  0.0428 -0.4620
10706TIP3    H153533   5.585   2.510   3.394  0.4920  1.2526 -2.3914
10706TIP3    H253534   5.502   2.542   3.271 -2.0004 -1.7465 -1.6491
10707TIP3   OH253535   2.628   3.246   0.918  0.0178 -0.0470 -0.1680
10707TIP3    H153536   2.620   3.187   0.993 -0.7356  1.1269  0.7094
10707TIP3    H253537   2.587   3.327   0.947  0.8861  0.8649 -1.4035
10708TIP3   OH253538   4.446   0.277  15.692 -0.0713 -0.1055  0.1151
10708TIP3    H153539   4.451   0.187  15.723 -1.7970 -0.9957 -1.9539
10708TIP3    H253540   4.455   0.271  15.597 -0.4424  1.8779 -0.0896
10709TIP3   OH253541   3.445   2.373  13.529  0.0721 -0.1793  0.5065
10709TIP3    H153542   3.494   2.433  13.585  0.4242 -0.7564  0.8290
10709TIP3    H253543   3.509   2.307  13.502 -0.1796 -0.1141 -0.2860
10710TIP3   OH253544   1.190   0.816  16.423  0.2199  0.4222  0.1420
10710TIP3    H153545   1.175   0.728  16.389 -0.3460  0.0355  1.3183
10710TIP3    H253546   1.277   0.811  16.464  0.2474  0.4417  0.0849
10711TIP3   OH253547   2.175   4.359  12.543  0.4577 -0.2116  0.2534
10711TIP3    H153548   2.081   4.341  12.552 -0.1045  1.8396 -1.0420
10711TIP3    H253549   2.192   4.428  12.608  0.6558  0.6738 -0.7220
10712TIP3   OH253550   2.400   4.197  13.135  0.4037  0.0583 -0.6096
10712TIP3    H153551   2.312   4.180  13.167  0.9652  0.6252  1.3722
10712TIP3    H253552   2.389   4.211  13.041 -1.5377 -0.3549 -0.4834
10713TIP3   OH253553   4.147   2.537  16.900 -0.8607  0.2595  0.6969
10713TIP3    H153554   4.146   2.494  16.814 -0.6156 -1.9444  1.7245
10713TIP3    H253555   4.216   2.603  16.893 -0.9109  0.1833 -0.8140
10714TIP3   OH253556   1.230   2.952  10.563  0.1629  0.5893 -0.0213
10714TIP3    H153557   1.292   2.911  10.503 -0.1392 -0.5909  0.4528
10714TIP3    H253558   1.270   2.943  10.649  0.0371  1.2013  0.1059
10715TIP3   OH253559   0.934   3.496  11.732 -0.2712 -0.0853 -0.5871
10715TIP3    H153560   0.978   3.565  11.681  1.2138  0.3594  1.1951
10715TIP3    H253561   0.974   3.415  11.701 -0.1855  0.0773 -0.9113
10716TIP3   OH253562   4.722   1.108   1.266 -0.0759  0.2793 -0.3797
10716TIP3    H153563   4.652   1.067   1.318 -1.6870  0.2410 -2.4485
10716TIP3    H253564   4.710   1.202   1.281  0.5498  0.2142  0.6039
10717TIP3   OH253565   4.208   6.475  10.362  0.4316 -0.2230  0.3192
10717TIP3    H153566   4.143   6.414  10.396  2.2665 -0.7808  3.0666
10717TIP3    H253567   4.280   6.420  10.332  0.4406  0.4752 -1.0550
10718TIP3   OH253568   5.298   5.319   1.823  0.0549  0.2145 -0.1010
10718TIP3    H153569   5.228   5.318   1.889  0.7935  1.7917  0.7701
10718TIP3    H253570   5.256   5.354   1.745 -0.1610  1.1650  0.4191
10719TIP3   OH253571   3.599   0.893   2.424 -0.4901 -0.3361  0.0153
10719TIP3    H153572   3.506   0.910   2.407 -0.9881  0.2740  2.7665
10719TIP3    H253573   3.646   0.952   2.365 -1.9946  2.2247  1.1835
10720TIP3   OH253574   0.701   3.955   4.998 -0.8593 -0.2815 -0.0540
10720TIP3    H153575   0.755   3.876   5.008  1.1966  0.7630 -2.1358
10720TIP3    H253576   0.637   3.932   4.930  2.6458  1.0307 -4.2310
10721TIP3   OH253577   5.908   5.422   5.150 -0.5756  0.0020  0.2695
10721TIP3    H153578   5.985   5.366   5.145 -0.0660  0.7470 -0.4110
10721TIP3    H253579   5.844   5.381   5.092 -1.1071 -1.2140  1.6523
10722TIP3   OH253580   0.734   5.040   2.824 -0.4048 -0.2338 -0.0034
10722TIP3    H153581   0.666   5.017   2.887 -1.7867  2.7228 -0.2191
10722TIP3    H253582   0.725   4.975   2.754 -0.6510 -1.9448  1.5606
10723TIP3   OH253583   6.605   0.323  11.547 -0.1720 -0.3039 -0.0507
10723TIP3    H153584   6.522   0.288  11.579 -0.8580 -0.7918 -2.2451
10723TIP3    H253585   6.599   0.317  11.452  2.6586 -1.0055 -0.2723
10724TIP3   OH253586   0.268   2.865  14.157 -0.2768 -0.6707 -0.3630
10724TIP3    H153587   0.258   2.955  14.127 -0.2056 -0.8399 -0.8990
10724TIP3    H253588   0.336   2.828  14.101  1.2691 -0.4311  1.2661
10725TIP3   OH253589   4.354   2.741  16.667  0.4417  0.3383 -0.2024
10725TIP3    H153590   4.390   2.682  16.601  1.0319  0.7085 -0.2112
10725TIP3    H253591   4.418   2.740  16.738  0.1121  0.4254  0.1017
10726TIP3   OH253592   3.146   4.250   1.108  0.0661 -0.1111 -0.7059
10726TIP3    H153593   3.065   4.209   1.078 -0.4456 -0.5229  1.0807
10726TIP3    H253594   3.215   4.203   1.062 -0.6583 -0.4432 -1.4944
10727TIP3   OH253595   0.421   2.300   4.005 -0.1253 -0.0361  0.1750
10727TIP3    H153596   0.379   2.360   4.067  2.6516 -0.1464  2.3727
10727TIP3    H253597   0.487   2.354   3.962 -0.0668 -0.6618 -0.5229
10728TIP3   OH253598   4.215   1.638   1.691  0.0174  0.5272  0.4739
10728TIP3    H153599   4.231   1.564   1.749 -3.2665  0.3427  1.3119
10728TIP3    H253600   4.211   1.599   1.603  0.1640  0.0280  0.6857
10729TIP3   OH253601   0.061   6.698   5.235 -0.6103  0.3546  0.4421
10729TIP3    H153602   0.014   6.772   5.272 -0.3931 -0.6257  2.9215
10729TIP3    H253603   0.101   6.732   5.155 -0.2388  3.0039  1.6406
10730TIP3   OH253604   5.213   0.198   3.409  0.3018  0.7105  0.2195
10730TIP3    H153605   5.153   0.175   3.480  0.4471 -1.7513 -0.3760
10730TIP3    H253606   5.295   0.221   3.454 -1.0250  4.6660  1.0797
10731TIP3   OH253607   4.550   2.032   5.979  0.3977  0.0292 -0.0055
10731TIP3    H153608   4.527   1.988   5.897  2.9619  1.6299 -1.7710
10731TIP3    H253609   4.528   2.124   5.963  1.3161  0.4271  0.9385
10732TIP3   OH253610   3.068   0.270   1.459 -0.4700  0.1025 -0.2292
10732TIP3    H153611   3.140   0.264   1.522 -0.6860  5.1727  0.9898
10732TIP3    H253612   2.996   0.223   1.501  0.3252  0.5878  1.8276
10733TIP3   OH253613   6.546   2.783  11.727 -0.2835  0.1474  0.9633
10733TIP3    H153614   6.598   2.859  11.700 -1.2806  0.9474  1.2304
10733TIP3    H253615   6.460   2.819  11.749 -0.8739 -1.1112  0.8054
10734TIP3   OH253616   3.160   5.716   3.757 -0.3945 -0.7183  0.2634
10734TIP3    H153617   3.143   5.648   3.692 -1.5650 -0.4863  0.2992
10734TIP3    H253618   3.091   5.781   3.742 -0.8764 -0.8036  1.9164
10735TIP3   OH253619   2.893   5.405  16.905  0.1310  0.0025 -0.2088
10735TIP3    H153620   2.981   5.444  16.909 -0.1164  0.5421  0.2340
10735TIP3    H253621   2.847   5.457  16.840 -0.6302  1.4212  1.3639
10736TIP3   OH253622   2.391   2.602   1.477 -0.2288  0.4198 -0.1510
10736TIP3    H153623   2.384   2.682   1.425  0.1644  0.2622 -0.4558
10736TIP3    H253624   2.371   2.628   1.566 -1.1947  0.6472 -0.4232
10737TIP3   OH253625   1.238   5.274   1.486  0.3086  0.0592 -0.2586
10737TIP3    H153626   1.205   5.362   1.467  3.9248  1.1584 -2.4660
10737TIP3    H253627   1.166   5.216   1.460 -1.4526  2.2579 -0.6527
10738TIP3   OH253628   4.626   0.821   5.228 -0.0930 -0.0200 -0.5249
10738TIP3    H153629   4.540   0.787   5.254  0.0488 -0.7256 -0.9709
10738TIP3    H253630   4.617   0.842   5.135 -0.1044  0.9444 -0.3136
10739TIP3   OH253631   6.199   4.528  13.345  0.2354  0.6000  0.6303
10739TIP3    H153632   6.228   4.607  13.391  3.8118  0.2978 -0.7518
10739TIP3    H253633   6.253   4.458  13.383 -1.0001 -0.7237  0.0236
10740TIP3   OH253634   3.567   3.384  13.354  0.2225 -0.2512  0.4014
10740TIP3    H153635   3.492   3.399  13.296  1.2576  0.9243 -0.6727
10740TIP3    H253636   3.568   3.459  13.413 -0.0226 -0.7752  1.0961
10741TIP3   OH253637   1.440   5.452  17.161 -1.0954 -0.5250  0.4450
10741TIP3    H153638   1.402   5.410  17.084  1.7508 -1.7428 -0.4151
10741TIP3    H253639   1.458   5.542  17.133 -1.4891 -0.5190  0.2106
10742TIP3   OH253640   5.394   2.130  16.479 -0.4229  0.6085 -0.1730
10742TIP3    H153641   5.411   2.037  16.491  0.1181  0.2684 -2.8967
10742TIP3    H253642   5.478   2.166  16.451 -0.4280  2.1184  1.5740
10743TIP3   OH253643   4.047   2.195  13.767  0.2142  0.3994 -0.4351
10743TIP3    H153644   4.010   2.107  13.759  1.5001 -0.0759 -1.5576
10743TIP3    H253645   4.031   2.219  13.858  0.2170 -1.1828  0.0151
10744TIP3   OH253646   1.465   2.585   3.434 -0.4540 -0.1013  0.0756
10744TIP3    H153647   1.493   2.654   3.375  0.8604 -1.5006 -1.0120
10744TIP3    H253648   1.519   2.596   3.512 -0.5418  0.3180  0.0815
10745TIP3   OH253649   5.146   3.941  11.127 -0.2599 -0.1307 -0.1774
10745TIP3    H153650   5.077   3.908  11.069  0.3931  0.1727 -1.1415
10745TIP3    H253651   5.222   3.885  11.109  0.3979  0.9147 -0.7229
10746TIP3   OH253652   5.308   3.076  14.900  0.1764  0.0280  0.1221
10746TIP3    H153653   5.295   2.993  14.946  1.0951 -1.2279 -1.7403
10746TIP3    H253654   5.398   3.071  14.867  0.3283  1.8819  0.1645
10747TIP3   OH253655   2.961   3.493   3.946  0.5889 -0.4857  0.0117
10747TIP3    H153656   2.973   3.398   3.950  1.6058 -0.3361  2.0838
10747TIP3    H253657   2.877   3.508   3.990 -0.8920 -0.5528 -2.6214
10748TIP3   OH253658   1.496   1.293   4.605 -0.1666  0.0628  0.1139
10748TIP3    H153659   1.530   1.339   4.682 -0.3725 -0.7387  0.6985
10748TIP3    H253660   1.545   1.210   4.603  1.0039  0.7349 -1.5682
10749TIP3   OH253661   3.033   5.918  15.365 -0.3385 -0.2850 -0.5184
10749TIP3    H153662   3.028   6.012  15.381 -1.7731 -0.6984  2.0314
10749TIP3    H253663   3.055   5.910  15.272  2.6918  2.5369 -0.2295
10750TIP3   OH253664   1.933   3.130  16.604  0.1752 -0.0170  0.2331
10750TIP3    H153665   1.874   3.174  16.543 -0.2236 -1.7657 -0.7218
10750TIP3    H253666   1.879   3.063  16.645  1.3250 -1.2976 -0.2583
10751TIP3   OH253667   0.993   2.223   1.981 -0.1648  0.5167  0.4126
10751TIP3    H153668   0.898   2.209   1.982 -0.1201 -0.0856 -0.9229
10751TIP3    H253669   1.022   2.191   2.067 -1.1695  0.8304  0.8942
10752TIP3   OH253670   0.048   6.727   6.160  0.8034  0.0206 -0.0444
10752TIP3    H153671   0.103   6.773   6.097  0.3435  0.7006  0.0389
10752TIP3    H253672   0.047   6.785   6.237 -0.9652  0.5869 -0.4695
10753TIP3   OH253673   0.695   1.312  16.312  0.2194  0.4695 -0.1699
10753TIP3    H153674   0.645   1.364  16.373 -0.8661 -0.9933  0.2400
10753TIP3    H253675   0.635   1.296  16.239 -0.0966 -1.5582  0.4660
10754TIP3   OH253676   1.647   0.033   3.377  0.1696 -0.2259  0.1818
10754TIP3    H153677   1.594   0.033   3.457  1.2655 -1.1322  0.9498
10754TIP3    H253678   1.661   0.125   3.357 -1.7853  0.0391 -0.1279
10755TIP3   OH253679   5.485   0.521  11.371  0.3259  0.1345  0.2954
10755TIP3    H153680   5.570   0.530  11.413  0.9870 -1.7629 -0.5008
10755TIP3    H253681   5.483   0.591  11.306  0.1864  1.7536  1.9877
10756TIP3   OH253682   1.684   4.105   6.161  0.1506  0.1554 -0.9033
10756TIP3    H153683   1.779   4.113   6.155  0.7872 -1.9337  3.2679
10756TIP3    H253684   1.652   4.195   6.149  3.2194  2.0630  2.9171
10757TIP3   OH253685   6.565   0.277  16.085  0.5359 -0.0160 -0.3561
10757TIP3    H153686   6.644   0.230  16.111 -0.6662 -0.5465  2.8088
10757TIP3    H253687   6.499   0.209  16.073 -0.2044  0.5682  0.2713
10758TIP3   OH253688   0.622   5.590   3.728  0.2484  0.4355  0.1616
10758TIP3    H153689   0.562   5.546   3.668  0.3166  0.9008 -0.2561
10758TIP3    H253690   0.581   5.581   3.814  1.2587 -2.2433  0.4541
10759TIP3   OH253691   4.158   2.357   5.534 -0.4579 -0.1556 -0.5143
10759TIP3    H153692   4.115   2.390   5.612 -0.0954 -0.5674 -0.1348
10759TIP3    H253693   4.165   2.433   5.476  1.1513  0.6856  0.6791
10760TIP3   OH253694   3.342   3.408  12.958 -0.4428  0.0063 -0.1533
10760TIP3    H153695   3.333   3.486  12.903  0.8452  0.8619  0.8006
10760TIP3    H253696   3.318   3.437  13.046  1.3152 -0.3010  0.4617
10761TIP3   OH253697   6.758   3.696   3.543 -0.3293  0.1727  0.3774
10761TIP3    H153698   6.812   3.748   3.602 -1.1457 -1.0530  2.3183
10761TIP3    H253699   6.774   3.605   3.570  0.1626 -0.5728 -2.1136
10762TIP3   OH253700   5.182   4.529  14.048  0.1054  0.3743  0.1316
10762TIP3    H153701   5.197   4.622  14.067 -1.2900  0.3322  1.5597
10762TIP3    H253702   5.251   4.507  13.984  0.7382  2.2578  0.0986
10763TIP3   OH253703   4.816   5.479  15.521  0.0133  0.1832  0.6018
10763TIP3    H153704   4.885   5.511  15.580  0.7467 -0.7933  0.2931
10763TIP3    H253705   4.818   5.384  15.530 -0.4384  0.0667 -0.3624
10764TIP3   OH253706   1.975   1.337  16.056  0.5606 -0.2005  0.2659
10764TIP3    H153707   1.945   1.424  16.030 -0.2366  0.0736  1.9368
10764TIP3    H253708   1.982   1.288  15.974 -0.2545  1.0430 -0.5827
10765TIP3   OH253709   0.157   5.132  15.936 -0.3900  0.1129 -0.0283
10765TIP3    H153710   0.246   5.162  15.957  0.5716 -1.8601 -1.0562
10765TIP3    H253711   0.157   5.120  15.842 -1.3619 -1.1037  0.1074
10766TIP3   OH253712   1.137   4.340   0.950  0.4233 -0.1880 -0.4920
10766TIP3    H153713   1.129   4.422   0.998  1.8430 -0.8452  0.9709
10766TIP3    H253714   1.047   4.314   0.932 -0.1985  0.0504  1.9509
10767TIP3   OH253715   6.581   2.269  16.072  0.0177 -0.4331  0.1115
10767TIP3    H153716   6.675   2.286  16.072  0.1146 -0.8996 -0.9412
10767TIP3    H253717   6.573   2.180  16.107 -0.1725  0.1748  1.6942
10768TIP3   OH253718   6.720   3.652   0.204 -0.6512  0.2270 -0.3447
10768TIP3    H153719   6.671   3.656   0.122  1.1401 -0.8608 -1.5268
10768TIP3    H253720   6.702   3.564   0.238  0.0896 -0.0178 -0.5634
10769TIP3   OH253721   2.046   2.084   5.933 -0.4914  0.1646  0.5451
10769TIP3    H153722   2.063   2.005   5.984 -0.4368  1.0431  1.9350
10769TIP3    H253723   2.081   2.156   5.986  0.1348  1.0772 -1.0241
10770TIP3   OH253724   6.299   5.998   4.923  0.4388 -0.1496  0.0407
10770TIP3    H153725   6.292   5.946   4.843  1.9763  0.8822 -0.8281
10770TIP3    H253726   6.376   5.963   4.968 -0.3072 -0.6052  1.0170
10771TIP3   OH253727   1.914   4.170  17.195 -0.8519  0.0639 -0.6647
10771TIP3    H153728   1.850   4.119  17.145  0.4989 -3.0699  0.4959
10771TIP3    H253729   1.999   4.143  17.160 -0.0183  0.2602  1.0748
10772TIP3   OH253730   1.743   6.481   3.780  0.1466 -0.3897  0.3467
10772TIP3    H153731   1.809   6.418   3.751 -1.3905 -2.0356  0.3375
10772TIP3    H253732   1.735   6.466   3.874  0.9714  0.9962  0.6728
10773TIP3   OH253733   4.905   1.638   1.083 -0.1964 -0.5380  0.7297
10773TIP3    H153734   4.996   1.623   1.057 -0.5393 -0.5383 -0.5433
10773TIP3    H253735   4.870   1.550   1.097 -0.2438 -0.5848  0.3298
10774TIP3   OH253736   2.511   6.396   2.910  0.7394 -0.3595  0.4114
10774TIP3    H153737   2.560   6.464   2.956  1.3929 -0.3751 -0.2538
10774TIP3    H253738   2.570   6.321   2.907 -0.2191 -1.2112  1.7409
10775TIP3   OH253739   0.728   5.716  11.806 -0.3067  0.0557 -0.0366
10775TIP3    H153740   0.669   5.642  11.822  0.4863 -0.2188  1.8001
10775TIP3    H253741   0.770   5.732  11.890  0.5844  1.7052 -0.7534
10776TIP3   OH253742   5.563   0.775  16.548  0.2764 -0.1674  0.3309
10776TIP3    H153743   5.641   0.792  16.601 -1.1505  2.4705  1.7243
10776TIP3    H253744   5.524   0.697  16.587  1.2960 -0.5189  0.6813
10777TIP3   OH253745   2.728   5.954   5.378 -0.1807  0.2069 -0.1274
10777TIP3    H153746   2.646   5.934   5.333 -0.0285 -2.8720  0.7718
10777TIP3    H253747   2.701   6.000   5.458 -0.7381  1.8197 -1.1846
10778TIP3   OH253748   2.805   5.672  11.322  0.6921  0.1529 -0.7722
10778TIP3    H153749   2.844   5.608  11.382  0.1683  0.9336  0.4188
10778TIP3    H253750   2.794   5.623  11.240 -0.4008 -1.5271  0.3080
10779TIP3   OH253751   1.956   0.580   5.539 -0.2021  0.5171  1.0617
10779TIP3    H153752   1.861   0.569   5.545 -0.1669 -2.3604 -1.3198
10779TIP3    H253753   1.969   0.628   5.457  0.4117 -0.8672  0.3208
10780TIP3   OH253754   0.645   0.382   3.138  0.0811 -0.0038  0.3750
10780TIP3    H153755   0.613   0.354   3.052 -0.4546  0.7026  0.3379
10780TIP3    H253756   0.673   0.300   3.180  0.3522 -0.3594 -0.4640
10781TIP3   OH253757   1.473   0.264   1.094  0.1646 -0.3577 -0.0130
10781TIP3    H153758   1.395   0.313   1.070 -1.2806 -1.9165  1.2482
10781TIP3    H253759   1.490   0.288   1.185  1.7693  0.6650 -0.5304
10782TIP3   OH253760   2.704   4.494   2.293  0.3411  0.3842  0.4888
10782TIP3    H153761   2.753   4.412   2.298  0.7942  0.6227  0.0260
10782TIP3    H253762   2.703   4.516   2.200 -0.7581  0.3216  0.4728
10783TIP3   OH253763   4.382   0.346  15.433 -0.2577 -0.1661 -0.1837
10783TIP3    H153764   4.397   0.440  15.446 -0.4677 -0.1780  0.1739
10783TIP3    H253765   4.409   0.329  15.343  0.0441  0.1844 -0.1614
10784TIP3   OH253766   2.363   0.883  13.430  0.1047  0.4505 -0.4688
10784TIP3    H153767   2.385   0.811  13.489 -0.6974  1.0646  0.6322
10784TIP3    H253768   2.320   0.840  13.356  1.7911 -0.4049 -0.9972
10785TIP3   OH253769   0.042   2.534  15.255  0.4182  0.4494 -0.2878
10785TIP3    H153770  -0.030   2.598  15.250 -1.3350 -1.4871 -1.6096
10785TIP3    H253771   0.003   2.457  15.296  1.6125 -0.7883 -1.3695
10786TIP3   OH253772   3.964   6.486  17.176  0.3058  0.1193  0.4983
10786TIP3    H153773   4.007   6.566  17.147 -1.4334  1.1872  0.7195
10786TIP3    H253774   3.998   6.470  17.264  1.2626  0.1289  0.1457
10787TIP3   OH253775   4.950   3.396   0.828 -0.1413 -0.1768  0.0488
10787TIP3    H153776   4.972   3.462   0.895  0.9239 -0.5051  0.0430
10787TIP3    H253777   4.894   3.443   0.766 -1.2449  0.1035  1.2189
10788TIP3   OH253778   0.971   4.878  16.752 -0.0830  0.0339  1.0280
10788TIP3    H153779   0.909   4.870  16.824 -0.0486 -1.4699  0.9203
10788TIP3    H253780   1.045   4.928  16.788 -0.3136 -0.2250  1.8677
10789TIP3   OH253781   5.937   3.967  11.805  0.2288  0.1746  0.1346
10789TIP3    H153782   5.958   3.945  11.896  0.5596 -1.8868 -0.3728
10789TIP3    H253783   5.869   3.904  11.781  0.0113  0.8228 -0.9874
10790TIP3   OH253784   6.240   3.229   0.640  0.2274 -0.1780 -0.1624
10790TIP3    H153785   6.316   3.249   0.695 -0.9206  0.0336  1.4100
10790TIP3    H253786   6.221   3.137   0.659  0.7032 -0.5427 -1.3647
10791TIP3   OH253787   3.218   3.283   3.607 -0.3782  0.2655  0.4310
10791TIP3    H153788   3.248   3.192   3.597  1.1338  0.8391 -0.5706
10791TIP3    H253789   3.207   3.294   3.701 -2.1779 -1.4169  0.4824
10792TIP3   OH253790   4.704   4.911   0.244 -0.5043 -0.1430  0.0068
10792TIP3    H153791   4.662   4.943   0.164  1.2545 -0.6275 -1.1749
10792TIP3    H253792   4.699   4.984   0.305 -3.2969 -0.2950  0.0787
10793TIP3   OH253793   3.018   5.182  11.573  0.4868 -0.2784 -0.1774
10793TIP3    H153794   3.110   5.164  11.595  0.1660 -1.9558 -0.0706
10793TIP3    H253795   2.969   5.158  11.652 -0.2579 -2.0773 -1.1057
10794TIP3   OH253796   4.543   3.037   2.254  0.3493  0.2211 -0.2135
10794TIP3    H153797   4.498   2.961   2.291 -0.0400 -0.5084 -2.0767
10794TIP3    H253798   4.544   3.021   2.160  2.6289  1.2484 -0.4394
10795TIP3   OH253799   0.696   2.086  15.596 -0.1221  0.2408  0.6268
10795TIP3    H153800   0.608   2.063  15.568  0.0740  0.2106  0.0112
10795TIP3    H253801   0.717   2.165  15.546  0.7474 -0.5808 -0.3624
10796TIP3   OH253802   0.405   3.300  13.385  0.0660  0.7618  0.6086
10796TIP3    H153803   0.375   3.239  13.453 -1.3260 -2.1048 -2.2791
10796TIP3    H253804   0.501   3.300  13.393  0.0695 -1.3894  1.1148
10797TIP3   OH253805   1.136   4.536  14.806 -0.0392 -0.2963  0.0745
10797TIP3    H153806   1.205   4.531  14.871  0.2197 -1.1592 -0.2597
10797TIP3    H253807   1.073   4.598  14.843  1.5775  1.6516 -0.2555
10798TIP3   OH253808   0.692   2.968   5.495 -0.3692  0.9021 -0.0968
10798TIP3    H153809   0.607   2.926   5.505  0.0658 -0.3352 -1.2981
10798TIP3    H253810   0.725   2.935   5.411  1.4727  1.0088  0.5492
10799TIP3   OH253811   6.655   4.479   2.047  0.9349 -0.1242 -0.4728
10799TIP3    H153812   6.629   4.555   2.099 -0.1530 -2.0739  2.0656
10799TIP3    H253813   6.596   4.481   1.971  0.9953  1.5722 -0.5105
10800TIP3   OH253814   2.905   2.655  12.743 -0.0104 -0.0663  0.6598
10800TIP3    H153815   2.853   2.725  12.703 -0.1475  1.3135  3.0689
10800TIP3    H253816   2.877   2.653  12.834  1.9485 -1.4066  1.3054
10801TIP3   OH253817   6.374   4.020  16.807  0.0959 -0.4338  0.1309
10801TIP3    H153818   6.385   3.947  16.869  0.3657 -1.5657 -1.2027
10801TIP3    H253819   6.459   4.030  16.766 -0.8169 -1.8508 -2.3179
10802TIP3   OH253820   1.548   4.911  10.897 -0.2086 -0.5675 -0.6171
10802TIP3    H153821   1.595   4.843  10.946  1.2324  0.5548 -0.3704
10802TIP3    H253822   1.582   4.904  10.808 -0.7517 -0.7690 -0.8119
10803TIP3   OH253823   1.191   1.098  11.786  0.7540 -0.3006  0.4943
10803TIP3    H153824   1.158   1.169  11.840 -1.0358  1.0642 -2.1660
10803TIP3    H253825   1.274   1.130  11.751 -0.9263  1.5132 -2.2209
10804TIP3   OH253826   4.162   2.772   4.295 -0.3188 -0.0292  0.7647
10804TIP3    H153827   4.200   2.746   4.211 -1.1423 -0.3606  0.4794
10804TIP3    H253828   4.198   2.709   4.358 -2.4353 -2.0852  0.0469
10805TIP3   OH253829   5.871   1.710   3.796  0.0223  0.3059  0.4451
10805TIP3    H153830   5.946   1.769   3.802  0.8226 -0.8474  3.0261
10805TIP3    H253831   5.867   1.667   3.881 -3.0015 -0.4036  0.0767
10806TIP3   OH253832   5.861   4.527  14.297  0.2052  0.6137 -0.0513
10806TIP3    H153833   5.805   4.475  14.354 -1.0047  1.5221 -0.3738
10806TIP3    H253834   5.882   4.604  14.348  0.8587  0.4567 -0.0775
10807TIP3   OH253835   2.335   6.046  10.455  0.1567  0.4886  0.3864
10807TIP3    H153836   2.274   6.094  10.400  0.7409  0.9343  0.1118
10807TIP3    H253837   2.421   6.079  10.430  0.3721  1.6999  2.5262
10808TIP3   OH253838   2.124   1.793   2.323  0.0433  0.6322  0.1372
10808TIP3    H153839   2.105   1.699   2.312 -1.5894  0.8109  0.9750
10808TIP3    H253840   2.041   1.836   2.302  0.2808  1.7601  1.3934
10809TIP3   OH253841   2.092   1.946  14.665  0.4193  0.6710  0.0265
10809TIP3    H153842   2.028   1.997  14.616 -0.0480 -0.2574 -0.3642
10809TIP3    H253843   2.137   2.010  14.721  1.2918  1.8566 -1.9202
10810TIP3   OH253844   3.092   4.959  13.657 -0.6626  0.1273  0.6956
10810TIP3    H153845   3.166   4.924  13.606 -0.5466 -0.5601  1.3138
10810TIP3    H253846   3.089   4.903  13.734 -0.4928  1.4797  1.7115
10811TIP3   OH253847   3.002   4.809  10.110 -0.1221  0.2034  0.3217
10811TIP3    H153848   2.940   4.768  10.170 -0.8140 -0.5851 -0.8857
10811TIP3    H253849   3.067   4.851  10.167  0.2996 -2.0681  1.6364
10812TIP3   OH253850   0.587   5.009  14.323  0.7807 -0.0706  0.5145
10812TIP3    H153851   0.499   5.000  14.288  1.4253 -1.3104 -0.8878
10812TIP3    H253852   0.591   5.100  14.353 -0.8833  0.0716  0.3963
10813TIP3   OH253853   4.925   4.593   5.603 -0.0638  0.2229 -0.2577
10813TIP3    H153854   4.921   4.665   5.667 -1.4484  0.5427 -0.6515
10813TIP3    H253855   4.938   4.637   5.519 -0.0949 -0.0509 -0.4060
10814TIP3   OH253856   5.858   3.906   5.925 -0.0768  1.0153 -0.1874
10814TIP3    H153857   5.847   3.984   5.979  1.2609 -0.4214  2.3396
10814TIP3    H253858   5.933   3.860   5.963  1.0755 -0.0705 -3.4251
10815TIP3   OH253859   0.025   5.956  15.140  0.1533  0.5402  0.1030
10815TIP3    H153860   0.115   5.955  15.108  0.4903  0.3863  1.0304
10815TIP3    H253861   0.029   6.006  15.222 -0.2918 -0.9178  1.0452
10816TIP3   OH253862   1.322   4.945   3.689  0.4000 -0.4677  0.4406
10816TIP3    H153863   1.256   4.960   3.756  0.0461 -1.0114  0.2122
10816TIP3    H253864   1.379   5.022   3.694 -1.1645  0.8125 -0.4320
10817TIP3   OH253865   4.875   0.077  14.014 -0.0228  0.0961  0.7662
10817TIP3    H153866   4.968   0.094  14.005 -0.2085  0.3905 -0.9996
10817TIP3    H253867   4.841   0.083  13.925 -1.8689  0.8311  1.4646
10818TIP3   OH253868   0.117   3.008   1.627  0.0359 -0.5774  0.1660
10818TIP3    H153869   0.094   3.078   1.687 -1.6386 -0.7571 -0.2300
10818TIP3    H253870   0.089   2.928   1.672  1.4359 -0.9809  0.3793
10819TIP3   OH253871   3.040   2.025   6.283 -0.3627 -0.2272  0.4447
10819TIP3    H153872   2.957   2.000   6.324 -0.2479 -0.9685  0.2478
10819TIP3    H253873   3.050   1.964   6.210  0.5932 -0.4932  0.7746
10820TIP3   OH253874   0.309   2.082  15.930  0.1317  0.5856  0.3123
10820TIP3    H153875   0.221   2.092  15.966 -0.4131 -0.5035 -0.6228
10820TIP3    H253876   0.329   1.989  15.940  0.8636  0.6759 -0.1716
10821TIP3   OH253877   0.219   3.348   4.624  0.6855  0.3898 -0.3809
10821TIP3    H153878   0.135   3.307   4.603 -0.5129  2.9663 -1.1588
10821TIP3    H253879   0.198   3.408   4.696  2.0797  0.4418  0.0098
10822TIP3   OH253880   6.056   2.898  13.754  0.2344 -0.6010 -0.2917
10822TIP3    H153881   6.115   2.952  13.807  0.0377  0.4606 -1.1187
10822TIP3    H253882   5.974   2.898  13.803 -0.6758  2.3007 -1.6067
10823TIP3   OH253883   3.965   1.793   0.349 -0.1647 -0.0147 -0.6176
10823TIP3    H153884   4.006   1.852   0.287  0.9352  0.2352  0.3076
10823TIP3    H253885   3.976   1.706   0.310 -0.2979  0.2222 -1.1905
10824TIP3   OH253886   5.882   1.068  15.382 -0.4840 -0.1681  0.7637
10824TIP3    H153887   5.959   1.060  15.325  0.3309  0.0901  1.8064
10824TIP3    H253888   5.917   1.057  15.471 -1.2670  2.2233  1.4382
10825TIP3   OH253889   2.561   1.072  15.008 -0.5760  0.2639  0.4209
10825TIP3    H153890   2.584   1.094  15.099 -0.5420 -2.0259  1.0320
10825TIP3    H253891   2.646   1.064  14.964 -0.3490 -2.0975  1.1362
10826TIP3   OH253892   2.628   4.937  13.419  0.1575  0.4031  0.1355
10826TIP3    H153893   2.597   5.007  13.362  0.8784  0.3549 -0.3255
10826TIP3    H253894   2.623   4.857  13.365 -3.0059 -0.3889  1.4045
10827TIP3   OH253895   4.004   1.332  16.661 -0.1624 -0.6054 -0.3070
10827TIP3    H153896   3.953   1.352  16.583  2.1687 -1.4413 -2.1636
10827TIP3    H253897   4.040   1.416  16.689 -1.1480 -0.2779  0.0151
10828TIP3   OH253898   0.571   0.007   2.556  0.3125 -0.6220 -0.0396
10828TIP3    H153899   0.592   0.097   2.581 -1.0180 -0.1080 -0.6863
10828TIP3    H253900   0.643  -0.019   2.499 -0.4269  0.9197 -1.8097
10829TIP3   OH253901   6.579   2.678  14.665 -0.2290 -0.1253  0.1994
10829TIP3    H153902   6.553   2.740  14.733  0.2517  1.3997 -0.9259
10829TIP3    H253903   6.675   2.684  14.662 -0.2153 -0.5000 -0.3114
10830TIP3   OH253904   3.111   1.250   4.153  0.0746 -0.2997 -0.1040
10830TIP3    H153905   3.042   1.183   4.157  0.2019 -0.3665  1.3996
10830TIP3    H253906   3.063   1.333   4.153 -0.0288 -0.3401  1.1575
10831TIP3   OH253907   5.116   3.452   2.399 -0.5231  0.4948 -0.3302
10831TIP3    H153908   5.105   3.385   2.466  0.5846  0.0540 -0.5583
10831TIP3    H253909   5.051   3.432   2.332  0.3470 -0.8864 -0.7984
10832TIP3   OH253910   5.857   4.125   2.005 -0.2394  0.2834  0.1905
10832TIP3    H153911   5.860   4.130   2.101  1.5418  0.1780  0.1845
10832TIP3    H253912   5.862   4.031   1.986  2.4215  0.3796  0.0217
10833TIP3   OH253913   1.248   1.762  15.473  0.3341  0.4446 -0.4420
10833TIP3    H153914   1.243   1.674  15.509  1.8984 -0.2192 -1.7178
10833TIP3    H253915   1.247   1.819  15.550 -1.7431 -0.5746  0.3678
10834TIP3   OH253916   5.084   2.491  14.025  0.1089  0.3055 -0.3474
10834TIP3    H153917   5.133   2.410  14.011  0.1967  0.2494  0.2442
10834TIP3    H253918   5.063   2.522  13.937  1.2630  0.3751 -0.6093
10835TIP3   OH253919   5.372   3.774  13.657 -0.3163  0.2617  0.1181
10835TIP3    H153920   5.360   3.680  13.640 -0.2305 -0.3602  3.0574
10835TIP3    H253921   5.375   3.813  13.569  2.7954 -2.8343 -1.4110
10836TIP3   OH253922   0.774   3.348  16.342 -0.3032 -0.7352 -0.6017
10836TIP3    H153923   0.820   3.324  16.262  0.7012  0.7891 -0.5320
10836TIP3    H253924   0.698   3.398  16.312  1.0226  1.4053 -0.6491
10837TIP3   OH253925   3.126   0.527  14.074 -0.1430  0.6836 -0.2184
10837TIP3    H153926   3.117   0.621  14.094 -1.9848  0.2715  1.2577
10837TIP3    H253927   3.082   0.484  14.147  2.4882 -1.4567  0.2182
10838TIP3   OH253928   0.743   5.928   4.904 -0.1073 -0.2982  0.3883
10838TIP3    H153929   0.726   5.869   4.830 -0.9381 -1.6638  1.6248
10838TIP3    H253930   0.737   6.015   4.866  0.7275 -0.9787 -1.4124
10839TIP3   OH253931   1.798   6.487   3.482 -0.2427  0.3683  0.1693
10839TIP3    H153932   1.881   6.524   3.510 -0.3853 -0.5809  1.9685
10839TIP3    H253933   1.738   6.562   3.478  0.0956  0.7158  1.3077
10840TIP3   OH253934   4.977   1.664  10.825 -0.3737  0.5568  0.2105
10840TIP3    H153935   4.920   1.735  10.855 -1.4935 -0.2428  0.0476
10840TIP3    H253936   5.056   1.672  10.878 -0.6271  1.6974  0.4412
10841TIP3   OH253937   5.138   1.192  15.758 -0.8302 -0.3588 -0.5147
10841TIP3    H153938   5.130   1.114  15.812  0.3096  0.2354  0.5600
10841TIP3    H253939   5.095   1.261  15.808 -0.2852  0.0714 -0.6269
10842TIP3   OH253940   2.239   4.919   5.599 -0.2172  0.4704  0.2981
10842TIP3    H153941   2.154   4.907   5.557  0.0561  0.0806 -0.1532
10842TIP3    H253942   2.290   4.968   5.535 -0.6242  2.1986  1.2421
10843TIP3   OH253943   0.305   3.204   3.278  0.7701 -0.8181 -0.1048
10843TIP3    H153944   0.400   3.206   3.267  0.8039 -1.1808  0.1119
10843TIP3    H253945   0.288   3.263   3.351  0.7646 -0.2451 -0.5602
10844TIP3   OH253946   2.713   1.882  12.161 -0.2429  0.0002  0.1813
10844TIP3    H153947   2.702   1.818  12.231 -1.4701  0.4229  0.3885
10844TIP3    H253948   2.651   1.856  12.094 -1.3362  1.4048  0.5984
10845TIP3   OH253949   6.533   3.716   2.728 -0.1158  0.3428  0.0396
10845TIP3    H153950   6.489   3.640   2.765  1.1189 -1.0443 -1.2262
10845TIP3    H253951   6.588   3.749   2.798 -1.3392  0.6662  0.8852
10846TIP3   OH253952   1.998   4.361  14.291  0.3035  0.9377 -0.0883
10846TIP3    H153953   2.048   4.428  14.243 -0.9872  1.4274 -0.7830
10846TIP3    H253954   1.969   4.300  14.223 -1.1527  1.3847  0.0973
10847TIP3   OH253955   6.640   3.981  14.063  0.1972 -0.2190 -0.2189
10847TIP3    H153956   6.683   3.969  14.148  0.2346 -0.7391 -0.3116
10847TIP3    H253957   6.673   3.910  14.009  1.3670  0.9854 -1.1615
10848TIP3   OH253958   3.288   5.084   5.037  0.0314 -0.6053 -0.6395
10848TIP3    H153959   3.237   5.068   5.116 -1.2300  1.3212 -1.0003
10848TIP3    H253960   3.286   5.001   4.991  0.4303 -1.6484  1.1256
10849TIP3   OH253961   4.510   5.459   0.905  0.1665  0.3622 -0.2845
10849TIP3    H153962   4.600   5.455   0.938 -0.6622 -1.5228  2.0974
10849TIP3    H253963   4.462   5.507   0.972 -0.6183  1.6140 -1.6725
10850TIP3   OH253964   0.119   4.727  15.429 -0.9945 -0.5549  0.7237
10850TIP3    H153965   0.085   4.757  15.513 -1.9684  0.2921  0.0517
10850TIP3    H253966   0.107   4.802  15.370 -0.8731 -1.3303 -0.3148
10851TIP3   OH253967   6.346   4.412  14.009 -0.0302 -0.1614 -0.4720
10851TIP3    H153968   6.317   4.478  14.071 -0.7640  0.9521 -1.9524
10851TIP3    H253969   6.300   4.332  14.036 -2.8387  1.0220 -1.4039
10852TIP3   OH253970   6.332   3.853   0.987 -0.0120 -0.4932  0.2581
10852TIP3    H153971   6.243   3.829   0.959  0.1912 -0.8651 -0.0722
10852TIP3    H253972   6.329   3.847   1.082 -0.7144  0.7885  0.3360
10853TIP3   OH253973   4.465   2.006  16.476  0.3851  0.2875  0.2886
10853TIP3    H153974   4.484   2.017  16.383  0.5817 -0.5279  0.2188
10853TIP3    H253975   4.519   1.931  16.502  0.1344  0.3484  0.9982
10854TIP3   OH253976   3.694   6.417   3.755  0.0303  0.1564 -0.5809
10854TIP3    H153977   3.644   6.497   3.738 -0.4998  0.1972  1.0091
10854TIP3    H253978   3.785   6.442   3.743  0.0671  1.6951  2.1070
10855TIP3   OH253979   4.942   5.209   0.294 -0.0689  0.0432 -0.5770
10855TIP3    H153980   4.980   5.191   0.208  0.9979 -0.2037 -0.0802
10855TIP3    H253981   4.894   5.130   0.316  1.1694 -0.6366 -0.1873
10856TIP3   OH253982   3.261   5.871   4.330 -0.3643 -0.1503 -0.1200
10856TIP3    H153983   3.317   5.794   4.318  0.3191  0.1145  1.1233
10856TIP3    H253984   3.186   5.856   4.273 -1.0273 -2.5132  1.2384
10857TIP3   OH253985   2.323   0.011   1.150 -0.6919  0.0322  0.1962
10857TIP3    H153986   2.306  -0.077   1.117 -1.8096  0.0526  0.6857
10857TIP3    H253987   2.237   0.052   1.157 -0.4129  0.3652  2.1855
10858TIP3   OH253988   1.501   2.086  16.000  0.1034  0.0006  0.1480
10858TIP3    H153989   1.541   2.166  15.966 -0.5190 -0.6760 -2.4217
10858TIP3    H253990   1.432   2.117  16.059 -0.6421  1.4494 -1.3928
10859TIP3   OH253991   6.461   0.390  14.750  0.4129  0.7798 -0.1397
10859TIP3    H153992   6.499   0.478  14.747  2.0737  0.0880 -0.6624
10859TIP3    H253993   6.458   0.362  14.659 -0.5897  0.4751 -0.0236
10860TIP3   OH253994   2.675   5.129   1.720  0.1451  0.0952 -0.7250
10860TIP3    H153995   2.620   5.124   1.642 -0.5943 -3.6368 -0.1745
10860TIP3    H253996   2.614   5.155   1.790 -0.1927 -0.8169 -0.6744
10861TIP3   OH253997   3.592   2.989  14.150  0.5218 -0.3696  0.1839
10861TIP3    H153998   3.574   2.901  14.184  1.1090  0.2051  2.1523
10861TIP3    H253999   3.687   2.999  14.158  0.6141  0.0352 -1.1721
10862TIP3   OH254000   1.303   2.394  15.678  0.2080 -0.4617 -0.3263
10862TIP3    H154001   1.388   2.439  15.673  0.0042 -0.1613 -4.6527
10862TIP3    H254002   1.239   2.464  15.667 -0.5825 -0.9096  1.1872
10863TIP3   OH254003   1.063   4.720  13.824  0.7338  0.0304  0.0237
10863TIP3    H154004   1.011   4.800  13.815  1.3350  0.5466  0.9207
10863TIP3    H254005   1.031   4.662  13.755 -0.8523  0.4235  0.3898
10864TIP3   OH254006   3.356   5.176  15.854  0.3170 -0.3495 -0.6061
10864TIP3    H154007   3.347   5.261  15.811  1.2238  0.6667  1.0891
10864TIP3    H254008   3.450   5.166  15.867  0.2330 -1.7167 -0.9474
10865TIP3   OH254009   2.340   2.894  15.343  0.1703 -0.2188  0.0014
10865TIP3    H154010   2.374   2.961  15.401 -2.2465  0.9186  0.2427
10865TIP3    H254011   2.245   2.902  15.350 -0.2065 -2.3668 -1.4899
10866TIP3   OH254012   1.085   6.551   6.296  0.4962 -0.0768 -0.3088
10866TIP3    H154013   1.065   6.618   6.361  0.2768 -0.2977 -0.1437
10866TIP3    H254014   1.180   6.553   6.287  0.3841  1.3793 -1.5114
10867TIP3   OH254015   4.100   0.589   0.457 -0.3741 -0.2288 -0.1050
10867TIP3    H154016   4.136   0.539   0.530  1.2721 -1.3333 -1.5883
10867TIP3    H254017   4.164   0.659   0.441 -0.7021 -0.0169 -0.5133
10868TIP3   OH254018   4.971   1.599  12.898  0.5052 -0.2546 -0.5768
10868TIP3    H154019   4.905   1.667  12.907 -0.7603 -1.7336  2.7054
10868TIP3    H254020   5.054   1.646  12.908 -0.3147  0.9174  1.3004
10869TIP3   OH254021   0.979   3.648   6.089 -0.0861 -0.2326 -0.0848
10869TIP3    H154022   1.046   3.610   6.146  1.1998 -0.1630 -1.4843
10869TIP3    H254023   0.999   3.742   6.088  1.0487 -0.4367 -1.9950
10870TIP3   OH254024   2.911   2.218  12.422  0.3222 -0.1446  0.4666
10870TIP3    H154025   2.896   2.177  12.337  0.5215  0.3792  0.1770
10870TIP3    H254026   2.962   2.297  12.402 -3.4765  2.5570  0.5069
10871TIP3   OH254027   5.306   1.119   0.431  0.0374 -0.4504 -0.4093
10871TIP3    H154028   5.339   1.086   0.515  3.8079 -2.5800 -2.4779
10871TIP3    H254029   5.363   1.192   0.410  0.2805 -1.0302 -1.8623
10872TIP3   OH254030   1.098   3.505   3.756  0.0025 -0.2938  0.2392
10872TIP3    H154031   1.135   3.577   3.806  0.5676 -1.3072  1.3404
10872TIP3    H254032   1.027   3.544   3.706  0.4402  1.0565  0.6312
10873TIP3   OH254033   3.919   3.001  15.687 -0.6115  0.3018  0.1360
10873TIP3    H154034   3.882   3.085  15.713 -1.3377  0.2974 -0.8340
10873TIP3    H254035   3.856   2.965  15.624  0.3591 -0.3406 -0.4987
10874TIP3   OH254036   2.906   4.447   2.547 -0.9622 -0.0143  0.2671
10874TIP3    H154037   2.816   4.472   2.567 -0.4386 -0.0052  2.9678
10874TIP3    H254038   2.949   4.530   2.527 -0.6680  0.6414  3.1148
10875TIP3   OH254039   6.509   4.421   0.338  0.3321  0.0203 -0.1580
10875TIP3    H154040   6.414   4.430   0.331  0.1994 -0.9308  0.2858
10875TIP3    H254041   6.543   4.503   0.305 -0.7038  1.1599  1.4542
10876TIP3   OH254042   0.586   0.606  12.027  0.2300 -0.1092 -0.2383
10876TIP3    H154043   0.644   0.536  11.995  1.7405  0.5530  0.9488
10876TIP3    H254044   0.604   0.680  11.971  0.0261 -0.0954 -0.2876
10877TIP3   OH254045   2.508   2.465   5.994  0.2166 -0.0440 -0.3509
10877TIP3    H154046   2.463   2.434   6.073 -0.2428  2.6232  0.5424
10877TIP3    H254047   2.599   2.478   6.022 -0.1516  1.8547  0.1039
10878TIP3   OH254048   3.834   5.932  16.670 -0.3389  0.3140 -0.1404
10878TIP3    H154049   3.889   5.885  16.732 -0.6217  1.1734  0.7863
10878TIP3    H254050   3.794   5.864  16.616  2.7991 -0.3123 -1.9298
10879TIP3   OH254051   5.709   5.033   3.238 -0.6773  1.1206  0.0037
10879TIP3    H154052   5.762   5.088   3.295  2.1828  0.4960 -1.8549
10879TIP3    H254053   5.762   5.022   3.158 -3.2322 -0.3430 -1.6419
10880TIP3   OH254054   6.442   6.699   1.091  0.0834  0.2090 -0.6323
10880TIP3    H154055   6.505   6.676   1.159 -0.0469  0.2598 -0.4940
10880TIP3    H254056   6.379   6.755   1.135  1.0345  1.8125 -1.2316
10881TIP3   OH254057   2.668   1.832   4.093  0.5809  0.3117 -0.2891
10881TIP3    H154058   2.723   1.770   4.141  0.0429 -0.5305 -0.7269
10881TIP3    H254059   2.604   1.777   4.048 -0.4168  1.2542 -0.0597
10882TIP3   OH254060   3.061   5.384   0.873 -0.2811  0.2117  0.3152
10882TIP3    H154061   3.035   5.336   0.951  0.9768 -1.2958 -0.1598
10882TIP3    H254062   2.980   5.394   0.823 -0.5685 -1.5562  0.3695
10883TIP3   OH254063   3.515   4.150  13.499 -0.3110 -0.3594  0.1365
10883TIP3    H154064   3.572   4.226  13.504  1.9666 -1.8968 -0.6548
10883TIP3    H254065   3.462   4.154  13.579  0.7703  1.2492  0.8266
10884TIP3   OH254066   5.063   5.202   4.463 -0.3231  0.2776  0.4800
10884TIP3    H154067   5.100   5.114   4.457  0.0807  0.4582  0.3095
10884TIP3    H254068   4.985   5.199   4.407 -1.6299 -0.6320  2.2517
10885TIP3   OH254069   3.888   3.815  16.713  0.3175 -0.7397  0.2257
10885TIP3    H154070   3.869   3.828  16.806 -2.2794  0.9766 -0.4552
10885TIP3    H254071   3.805   3.785  16.675  0.9977 -0.2765 -1.7539
10886TIP3   OH254072   5.176   0.012   0.036 -0.0882 -0.1028 -0.2278
10886TIP3    H154073   5.216   0.028   0.121  2.1226  0.4547 -1.3193
10886TIP3    H254074   5.178  -0.083   0.026 -0.1951 -0.1581  0.2357
10887TIP3   OH254075   3.429   0.129   4.083 -0.0073  0.6139  0.5546
10887TIP3    H154076   3.356   0.120   4.145 -0.0663  0.6175  0.4860
10887TIP3    H254077   3.500   0.166   4.135 -0.3140  1.3918  0.4398
10888TIP3   OH254078   2.435   3.861  14.200  0.0321  0.1089 -0.4577
10888TIP3    H154079   2.340   3.873  14.207  0.1262  0.6798 -0.1567
10888TIP3    H254080   2.473   3.934  14.248  0.6264 -0.5440  0.0896
10889TIP3   OH254081   1.228   1.729  16.484  0.1863  0.6437 -0.4002
10889TIP3    H154082   1.296   1.662  16.492 -1.9801 -1.9730 -1.9664
10889TIP3    H254083   1.254   1.781  16.408  0.6555 -0.0970 -0.7629
10890TIP3   OH254084   4.455   4.348  14.005 -0.1821  0.0524  0.2307
10890TIP3    H154085   4.445   4.312  14.094  0.6742 -1.9943 -0.4453
10890TIP3    H254086   4.375   4.399  13.991 -0.5564  0.0259  1.9923
10891TIP3   OH254087   2.886   2.922   0.535 -0.4620 -0.4244  0.1333
10891TIP3    H154088   2.909   3.005   0.493  0.1075  0.6679  2.4248
10891TIP3    H254089   2.825   2.880   0.475 -2.4988  2.6439 -0.1561
10892TIP3   OH254090   0.946   0.798   0.215  0.5553  0.0274 -0.0934
10892TIP3    H154091   0.862   0.779   0.258 -0.4336 -0.0108 -1.9437
10892TIP3    H254092   0.966   0.718   0.166  1.4645  0.2048 -0.0306
10893TIP3   OH254093   2.628   4.109   4.227 -0.8196  0.1150 -0.0254
10893TIP3    H154094   2.611   4.104   4.322  0.2068 -0.4277  0.1480
10893TIP3    H254095   2.682   4.186   4.216  0.4745 -0.7483  0.0786
10894TIP3   OH254096   4.013   2.070  14.458  0.2871  0.2505  0.8063
10894TIP3    H154097   4.101   2.076  14.493  0.5391 -0.8269  0.3864
10894TIP3    H254098   4.016   1.998  14.395 -0.6724  0.7655  0.1299
10895TIP3   OH254099   6.545   6.081  14.155  0.5319  0.1760  0.4762
10895TIP3    H154100   6.609   6.090  14.226  1.2843 -2.3020  0.2269
10895TIP3    H254101   6.526   5.987  14.153  0.3267  0.1961 -2.4069
10896TIP3   OH254102   3.863   4.512   2.708  0.2174  0.0992  0.1023
10896TIP3    H154103   3.945   4.553   2.736  0.6556 -1.6730  1.6172
10896TIP3    H254104   3.883   4.418   2.702 -1.6267 -0.3503  0.2580
10897TIP3   OH254105   5.800   0.074  11.950  0.1939 -0.8701 -0.7264
10897TIP3    H154106   5.819  -0.011  11.988  1.1291 -0.1236  0.5558
10897TIP3    H254107   5.715   0.099  11.987  2.0214  0.8239  2.9221
10898TIP3   OH254108   5.354   5.039  14.523  0.0905  0.2389 -0.1021
10898TIP3    H154109   5.439   5.081  14.509 -0.1348  0.8221  0.2357
10898TIP3    H254110   5.347   5.031  14.618 -1.2504  2.3834  0.0519
10899TIP3   OH254111   0.573   0.987  12.061  0.3709 -0.2925 -0.2210
10899TIP3    H154112   0.497   1.041  12.038 -1.1037 -1.9371  0.5678
10899TIP3    H254113   0.606   0.954  11.977  0.8001  1.1388 -0.6440
10900TIP3   OH254114   3.288   6.631  12.418 -0.9176  0.6788  0.5505
10900TIP3    H154115   3.209   6.587  12.387 -0.6940 -0.7863  1.9262
10900TIP3    H254116   3.258   6.683  12.493 -1.0908  2.5624 -0.7742
10901TIP3   OH254117   4.051   1.794   0.634  0.2871  0.0109  0.1154
10901TIP3    H154118   4.075   1.886   0.635  0.1315  0.0658 -0.4967
10901TIP3    H254119   4.009   1.781   0.549  0.0597 -0.5612  0.3065
10902TIP3   OH254120   1.435   6.221   5.123 -0.5868  0.1597  0.2216
10902TIP3    H154121   1.498   6.276   5.075 -0.0161 -1.0879 -0.5108
10902TIP3    H254122   1.468   6.221   5.213  0.9763 -1.1407 -0.3142
10903TIP3   OH254123   5.854   6.265  12.089  0.2839 -0.3585 -0.7857
10903TIP3    H154124   5.765   6.283  12.059  0.5080  1.1510 -0.6184
10903TIP3    H254125   5.843   6.201  12.159 -1.0074  2.0733  1.3929
10904TIP3   OH254126   4.950   2.198  14.522  0.0307 -0.6259  0.3034
10904TIP3    H154127   4.868   2.159  14.552  0.5507 -1.5467  0.5689
10904TIP3    H254128   4.927   2.245  14.442 -0.4449 -2.3572 -0.6260
10905TIP3   OH254129   0.457   3.137   4.940  0.7295 -0.1472  0.5559
10905TIP3    H154130   0.396   3.135   5.014  0.5277  0.9248  0.4403
10905TIP3    H254131   0.483   3.229   4.933  1.0683 -0.3071 -0.4415
10906TIP3   OH254132   1.485   2.142   3.687 -0.0453  0.0899  0.1626
10906TIP3    H154133   1.505   2.049   3.689  0.4873  0.1663 -0.9331
10906TIP3    H254134   1.411   2.152   3.748  0.0653 -0.9922  0.4966
10907TIP3   OH254135   6.314   5.283  13.802 -0.1227  0.2755  0.1470
10907TIP3    H154136   6.327   5.376  13.822  0.4506  1.0400 -3.2784
10907TIP3    H254137   6.239   5.281  13.742  1.4904 -1.1007 -1.9671
10908TIP3   OH254138   3.312   1.996   4.101 -0.3493 -0.4429 -0.0433
10908TIP3    H154139   3.235   2.050   4.118 -0.6098 -0.8432  0.0627
10908TIP3    H254140   3.307   1.975   4.008  0.3324  0.6019 -0.3293
10909TIP3   OH254141   6.232   3.724  14.599 -0.1681 -0.1162 -0.7093
10909TIP3    H154142   6.190   3.647  14.637  0.7455 -1.5746 -2.4756
10909TIP3    H254143   6.184   3.741  14.519 -0.5588  1.4059 -0.1869
10910TIP3   OH254144   4.501   3.660   3.242  0.3759  0.2052 -0.9218
10910TIP3    H154145   4.492   3.746   3.284  0.8558  0.6644 -1.7332
10910TIP3    H254146   4.528   3.680   3.153  1.5421 -0.8199 -0.8205
10911TIP3   OH254147   0.199   3.855   0.821  0.3070 -0.1059 -0.3516
10911TIP3    H154148   0.286   3.850   0.863 -0.0095  0.4794  0.4124
10911TIP3    H254149   0.194   3.778   0.766  0.0223 -1.9687  2.1170
10912TIP3   OH254150   3.028   1.618   5.314 -0.0581 -0.8533 -0.0030
10912TIP3    H154151   2.988   1.655   5.392 -0.0626 -2.3943  0.7671
10912TIP3    H254152   3.089   1.685   5.283 -2.4562  1.1817 -0.6660
10913TIP3   OH254153   4.422   0.821   2.904 -0.0269  0.2582  0.4193
10913TIP3    H154154   4.477   0.785   2.835 -1.2575 -1.3536  0.2075
10913TIP3    H254155   4.482   0.865   2.964  1.8365 -3.2618  1.3826
10914TIP3   OH254156   5.964   3.668  11.596 -0.5855 -0.3584 -0.1212
10914TIP3    H154157   6.015   3.642  11.673  0.1605 -1.3982 -0.9276
10914TIP3    H254158   5.972   3.763  11.593 -0.0731 -0.3651  0.7153
10915TIP3   OH254159   1.562   0.706   4.595  0.1442  0.2946 -0.0981
10915TIP3    H154160   1.657   0.713   4.601  0.4216 -0.3146 -2.7486
10915TIP3    H254161   1.534   0.684   4.684  2.8405 -2.9018  0.1523
10916TIP3   OH254162   0.137   3.804   4.763 -0.0176  0.1533 -0.0461
10916TIP3    H154163   0.091   3.735   4.717  0.6578  1.4040 -2.7971
10916TIP3    H254164   0.121   3.883   4.711  2.3464  1.2914  0.8054
10917TIP3   OH254165   1.532   3.321   6.082  0.1833  0.0473 -0.6244
10917TIP3    H154166   1.577   3.392   6.037  1.4056 -1.3769 -1.7579
10917TIP3    H254167   1.602   3.272   6.126 -0.7479  0.1108  1.0388
10918TIP3   OH254168   0.853   2.773  13.273 -0.1446 -0.1938  0.4335
10918TIP3    H154169   0.785   2.706  13.285 -0.0393 -0.1798  1.1425
10918TIP3    H254170   0.804   2.852  13.251 -0.2973 -0.4019  0.0157
10919TIP3   OH254171   1.009   1.371   1.530 -0.5928  0.6043 -0.6621
10919TIP3    H154172   1.000   1.285   1.489 -0.1334  0.9314 -1.4580
10919TIP3    H254173   1.101   1.375   1.558 -0.2860  1.3125 -1.7293
10920TIP3   OH254174   0.077   4.459  16.945 -0.3872  0.4175  0.2676
10920TIP3    H154175   0.095   4.405  16.869  1.3487  0.1594  0.8207
10920TIP3    H254176   0.144   4.528  16.943 -0.6297  0.7066  1.2661
10921TIP3   OH254177   3.189   5.482  10.965 -0.6330 -0.3573  0.3580
10921TIP3    H154178   3.260   5.418  10.956 -1.2489 -1.1664  1.0175
10921TIP3    H254179   3.168   5.481  11.058  0.2166  1.8009  0.6298
10922TIP3   OH254180   1.926   1.047   4.085  0.2375  0.2599 -0.0412
10922TIP3    H154181   1.931   0.981   4.154  0.3646  0.9697  0.6294
10922TIP3    H254182   1.997   1.108   4.104 -0.0345  0.7332 -0.5173
10923TIP3   OH254183   2.598   2.078  11.061 -0.6444 -0.4258  0.1277
10923TIP3    H154184   2.546   2.068  10.981 -0.6248  1.6495 -0.1929
10923TIP3    H254185   2.685   2.046  11.037 -0.8495 -0.5807 -0.4188
10924TIP3   OH254186   3.178   2.883  15.092 -0.3722  0.0766  0.0966
10924TIP3    H154187   3.106   2.932  15.131  0.0347  1.6176 -0.9773
10924TIP3    H254188   3.253   2.900  15.149 -0.2942  0.4678 -0.1257
10925TIP3   OH254189   3.958   2.789  16.404 -0.2593  0.4266 -0.2556
10925TIP3    H154190   3.924   2.703  16.428  4.3145 -1.1904  1.5417
10925TIP3    H254191   3.990   2.778  16.315  0.9318 -0.0276  0.2084
10926TIP3   OH254192   0.418   0.432  12.171 -0.1612 -0.0850 -0.2384
10926TIP3    H154193   0.486   0.485  12.130 -0.4367  0.5947  0.1670
10926TIP3    H254194   0.375   0.387  12.098  0.7718 -0.6045 -0.4958
10927TIP3   OH254195   3.662   4.470   0.904 -0.2062 -0.4436 -0.3515
10927TIP3    H154196   3.573   4.445   0.928 -0.4739  2.1543  1.8697
10927TIP3    H254197   3.712   4.464   0.986  1.1616  0.0628 -1.1119
10928TIP3   OH254198   2.829   5.040  15.287  0.4555 -0.2221 -0.0768
10928TIP3    H154199   2.809   5.007  15.199  0.0990  1.2299 -0.5717
10928TIP3    H254200   2.920   5.069  15.281 -0.3237  2.2845 -0.7900
10929TIP3   OH254201   0.094   5.351   5.443  0.6184 -0.0279  0.0885
10929TIP3    H154202   0.081   5.362   5.537 -0.8168 -2.3841  0.2434
10929TIP3    H254203   0.026   5.405   5.403 -0.3542 -0.9098  0.5042
10930TIP3   OH254204   1.069   2.195   5.556  0.3100 -0.2136 -0.2084
10930TIP3    H154205   1.152   2.170   5.599  0.6028  1.6546  0.4038
10930TIP3    H254206   1.030   2.259   5.616 -1.0976 -0.3120 -0.9920
10931TIP3   OH254207   5.223   3.762   5.914 -0.0248 -0.4177  0.6201
10931TIP3    H154208   5.206   3.849   5.951  1.1493  0.1537 -0.1198
10931TIP3    H254209   5.167   3.703   5.965 -0.3458  0.6744  1.5841
10932TIP3   OH254210   4.740   2.919   3.471 -0.0869  0.2790 -0.3965
10932TIP3    H154211   4.727   3.013   3.476  0.3284  0.3284 -0.1715
10932TIP3    H254212   4.822   2.909   3.424 -0.5202  0.0019 -1.1094
10933TIP3   OH254213   4.375   4.865  13.688  0.2837 -0.5747  0.0338
10933TIP3    H154214   4.380   4.900  13.599 -1.7035 -1.2585 -0.3932
10933TIP3    H254215   4.336   4.936  13.740  0.8598 -0.4019  0.2373
10934TIP3   OH254216   2.879   2.674   4.547 -0.4405 -0.4482 -0.0145
10934TIP3    H154217   2.972   2.668   4.565 -0.6309  0.9400  1.6996
10934TIP3    H254218   2.869   2.757   4.499 -0.9467  0.3110  1.3376
10935TIP3   OH254219   2.121   5.281   5.506  0.3213  0.4339  0.1921
10935TIP3    H154220   2.061   5.343   5.547  2.0898  1.9784  0.5763
10935TIP3    H254221   2.171   5.243   5.579  0.5368 -0.0514 -0.2002
10936TIP3   OH254222   5.492   0.157  13.266 -0.3312 -0.2610 -0.1451
10936TIP3    H154223   5.459   0.068  13.279  0.2015 -0.3838  0.4550
10936TIP3    H254224   5.415   0.213  13.270 -0.5077 -0.5707  0.8893
10937TIP3   OH254225   3.797   3.245  15.767  0.0598 -0.0359  0.2517
10937TIP3    H154226   3.783   3.338  15.786  2.0292  0.6516 -1.3204
10937TIP3    H254227   3.788   3.203  15.852 -3.3040  1.1831  0.6530
10938TIP3   OH254228   2.532   2.906  10.638  0.0622  0.5833  0.3551
10938TIP3    H154229   2.576   2.983  10.674  0.3531 -0.1593  1.6399
10938TIP3    H254230   2.603   2.849  10.608  0.0080 -0.3565  1.8955
10939TIP3   OH254231   3.513   3.168   3.265  0.3667  0.3177 -0.0326
10939TIP3    H154232   3.525   3.192   3.173  0.1934  0.6019  0.0174
10939TIP3    H254233   3.517   3.252   3.312 -0.1628  0.2415  0.1519
10940TIP3   OH254234   3.660   0.898   5.063  0.3475 -0.2860  0.0184
10940TIP3    H154235   3.747   0.916   5.027  0.3450  0.9601  0.5621
10940TIP3    H254236   3.677   0.845   5.141  0.4607 -1.6176 -0.8712
10941TIP3   OH254237   2.819   5.647  12.598 -0.3918 -0.2626  0.2449
10941TIP3    H154238   2.896   5.693  12.565 -1.1872 -0.6114 -2.2328
10941TIP3    H254239   2.767   5.716  12.639 -0.3413  0.6120 -1.0932
10942TIP3   OH254240   5.384   6.461  15.279 -0.1788 -0.1888  0.3116
10942TIP3    H154241   5.330   6.424  15.349  1.3753 -0.9100  1.1679
10942TIP3    H254242   5.459   6.403  15.273 -1.4370 -1.7816 -3.8525
10943TIP3   OH254243   3.492   2.937  15.536 -0.3471 -0.3374 -0.6171
10943TIP3    H154244   3.473   3.022  15.497  1.5923  0.4949  0.1731
10943TIP3    H254245   3.587   2.928  15.530 -0.4598 -2.2243 -0.1988
10944TIP3   OH254246   0.255   3.045  13.001  0.4470  0.4533 -0.2252
10944TIP3    H154247   0.338   3.088  13.019  0.5219  0.8561 -1.3921
10944TIP3    H254248   0.196   3.116  12.977 -0.7401  0.3550  2.1952
10945TIP3   OH254249   6.785   3.149   5.143 -0.4625 -0.6632  0.2200
10945TIP3    H154250   6.878   3.157   5.162 -0.7254 -0.9135  1.7890
10945TIP3    H254251   6.781   3.110   5.055  0.9192 -1.3300  0.4273
10946TIP3   OH254252   0.650   4.071   4.250  0.4135  0.2401  0.4047
10946TIP3    H154253   0.714   4.084   4.180  1.3998  0.1348  1.2831
10946TIP3    H254254   0.645   4.156   4.294  0.1772  0.1564  0.5411
10947TIP3   OH254255   2.358   1.472  13.775 -0.4634  0.0109 -0.0137
10947TIP3    H154256   2.325   1.534  13.841  0.4194 -1.5189  1.9765
10947TIP3    H254257   2.429   1.426  13.820  1.2631 -0.0403 -2.5913
10948TIP3   OH254258   3.348   1.416   0.383  0.0125  0.2311 -0.1636
10948TIP3    H154259   3.407   1.452   0.449  0.0190  0.7096 -0.4279
10948TIP3    H254260   3.362   1.470   0.306  0.6062 -0.8281 -0.8291
10949TIP3   OH254261   5.989   1.343  12.037  0.1988 -0.2307  0.1481
10949TIP3    H154262   5.936   1.407  12.084  0.1909 -0.8321  0.9650
10949TIP3    H254263   6.046   1.304  12.104  0.2919 -0.9901 -0.3625
10950TIP3   OH254264   1.667   2.052   5.678  0.2478 -0.0081 -0.1447
10950TIP3    H154265   1.674   2.103   5.597  2.2487  0.7826  0.4683
10950TIP3    H254266   1.709   2.107   5.744 -1.2120 -0.7047  1.4236
10951TIP3   OH254267   2.179   0.945  13.631  0.3601  0.4476 -0.3548
10951TIP3    H154268   2.249   0.938  13.566 -0.7958 -1.2669 -1.5189
10951TIP3    H254269   2.221   0.926  13.714  1.3047 -0.4812 -1.0246
10952TIP3   OH254270   1.377   5.300  13.756 -0.2870 -0.3141  0.3425
10952TIP3    H154271   1.318   5.341  13.693 -1.4052  0.3986  1.7768
10952TIP3    H254272   1.352   5.207  13.756  1.5243 -0.8925 -2.1280
10953TIP3   OH254273   3.722   6.589  15.571  0.1158  0.2282  0.1880
10953TIP3    H154274   3.706   6.684  15.571  0.0657  0.3242  3.2092
10953TIP3    H254275   3.814   6.580  15.596  0.2533 -0.5486 -0.5531
10954TIP3   OH254276   5.729   0.844  15.274  0.0028  0.4921 -0.3380
10954TIP3    H154277   5.780   0.803  15.203  0.9855 -0.5438  0.9210
10954TIP3    H254278   5.795   0.881  15.332 -0.7801  0.8928  0.3058
10955TIP3   OH254279   0.869   6.332   3.316 -0.0863  1.0980  0.4186
10955TIP3    H154280   0.947   6.377   3.348 -0.0797 -0.8429  3.6080
10955TIP3    H254281   0.796   6.389   3.341  0.1738  2.4465 -1.6918
10956TIP3   OH254282   4.260   5.922   0.056  0.1078 -0.9904 -0.4409
10956TIP3    H154283   4.216   6.004   0.080  0.8811 -0.0231 -2.0984
10956TIP3    H254284   4.195   5.854   0.072 -1.5510  0.2414 -1.5440
10957TIP3   OH254285   2.248   5.601   5.246  0.1892 -0.0301  0.0642
10957TIP3    H154286   2.269   5.511   5.223  1.1182  0.2880 -0.3913
10957TIP3    H254287   2.286   5.653   5.175 -0.2776  0.7198  0.3583
10958TIP3   OH254288   3.044   0.783   4.248 -0.3359  0.1896 -0.2122
10958TIP3    H154289   3.060   0.693   4.278  1.2296 -0.4795 -2.7421
10958TIP3    H254290   3.115   0.834   4.284  1.0519 -0.4461 -1.8656
10959TIP3   OH254291   2.179   0.861   3.703  0.1742  0.4782  0.0801
10959TIP3    H154292   2.221   0.843   3.788  1.0316  1.4804 -0.1044
10959TIP3    H254293   2.152   0.953   3.709 -0.1356  0.4326 -0.5831
10960TIP3   OH254294   5.281   2.886  14.670  0.7332 -0.0963  0.4621
10960TIP3    H154295   5.213   2.875  14.603 -1.3852  0.5674  2.3782
10960TIP3    H254296   5.337   2.955  14.636  0.1578 -0.2840 -0.9627
10961TIP3   OH254297   6.055   3.574   0.759 -0.0961 -0.1103  0.4303
10961TIP3    H154298   6.009   3.571   0.676  3.4341 -2.9311 -1.7197
10961TIP3    H254299   6.031   3.493   0.803  0.3596 -0.0697  0.7608
10962TIP3   OH254300   0.951   6.262  13.012 -0.2684 -0.1986  0.0899
10962TIP3    H154301   0.986   6.347  12.985 -0.6982  0.7578  2.3104
10962TIP3    H254302   0.928   6.274  13.104  0.7572 -3.0903  0.8305
10963TIP3   OH254303   6.267   0.561   5.306 -0.4038  0.6271  0.4726
10963TIP3    H154304   6.331   0.518   5.363  1.0300  0.8642 -0.8748
10963TIP3    H254305   6.236   0.492   5.248 -0.7994  0.6760  0.6249
10964TIP3   OH254306   4.100   5.983   4.049  0.1191 -0.0475  1.3309
10964TIP3    H154307   4.154   6.022   4.118  0.7790  2.5355 -0.5324
10964TIP3    H254308   4.022   6.037   4.046  0.2046  0.0294 -0.0873
10965TIP3   OH254309   0.269   2.811   4.905 -0.3648 -0.1133  0.2839
10965TIP3    H154310   0.339   2.865   4.867 -0.1081 -0.8895 -0.3819
10965TIP3    H254311   0.222   2.871   4.963  0.2951  0.6625  0.0494
10966TIP3   OH254312   2.707   0.009   3.663  0.2542 -0.7670 -0.5641
10966TIP3    H154313   2.781  -0.039   3.625 -0.7425 -1.7626 -1.3255
10966TIP3    H254314   2.636  -0.003   3.600 -0.3003  0.9699 -0.3154
10967TIP3   OH254315   2.406   5.135   3.853  0.2271  0.4168 -0.4966
10967TIP3    H154316   2.459   5.135   3.933  0.3984  0.0751 -0.6051
10967TIP3    H254317   2.466   5.103   3.785 -0.1292 -0.0162 -0.6119
10968TIP3   OH254318   6.178   6.734  16.272 -0.0227  0.1174 -0.0600
10968TIP3    H154319   6.103   6.786  16.244  0.3724  1.1466  0.7519
10968TIP3    H254320   6.142   6.647  16.288 -0.8731  0.3800 -0.4933
10969TIP3   OH254321   1.965   2.629  15.933 -0.1257 -0.0473 -0.3997
10969TIP3    H154322   1.978   2.565  16.003  0.3576 -0.8865 -1.2382
10969TIP3    H254323   1.975   2.579  15.853 -1.8615  0.6365 -1.1039
10970TIP3   OH254324   2.632   2.016   5.695  0.4760 -0.2801 -0.1001
10970TIP3    H154325   2.607   2.082   5.631  3.7226  0.5966 -0.6443
10970TIP3    H254326   2.673   2.065   5.766 -1.0665 -1.4241  1.6755
10971TIP3   OH254327   0.940   6.508  17.106  0.1979 -0.9035  0.1630
10971TIP3    H154328   0.990   6.590  17.100 -0.3215 -0.6082 -0.1409
10971TIP3    H254329   0.968   6.457  17.030  0.0262 -0.7316 -0.0160
10972TIP3   OH254330   2.382   5.139   4.289 -0.3938  0.2958 -0.1564
10972TIP3    H154331   2.292   5.164   4.271 -0.5653 -0.6588 -0.7006
10972TIP3    H254332   2.414   5.205   4.350 -1.1075  1.2759 -0.8135
10973TIP3   OH254333   5.950   3.529   1.817 -0.0593  0.0500 -0.8787
10973TIP3    H154334   5.855   3.528   1.825 -0.0490  0.4202 -0.7043
10973TIP3    H254335   5.973   3.437   1.801 -0.3058 -0.3226  0.7417
10974TIP3   OH254336   3.446   6.314  15.065  0.3092  0.3072 -0.9639
10974TIP3    H154337   3.534   6.278  15.079  0.0985  0.8146  2.6506
10974TIP3    H254338   3.387   6.240  15.078  0.1178  0.6608  0.3438
10975TIP3   OH254339   0.753   1.675  10.405 -0.6060  0.2475 -0.2514
10975TIP3    H154340   0.834   1.668  10.353 -0.1752 -1.4055  0.5640
10975TIP3    H254341   0.714   1.758  10.377  1.8455  1.5935 -0.0069
10976TIP3   OH254342   4.607   4.346   4.781 -0.5152  0.1328 -0.0210
10976TIP3    H154343   4.655   4.273   4.744  0.2450  0.1107  0.9617
10976TIP3    H254344   4.659   4.424   4.757 -0.7447  0.2502 -0.1450
10977TIP3   OH254345   0.364   1.341  11.690  0.2416 -0.0674 -0.3420
10977TIP3    H154346   0.317   1.316  11.770 -0.6977  0.7191 -0.6251
10977TIP3    H254347   0.406   1.424  11.713  0.2064  0.0129 -0.5603
10978TIP3   OH254348   6.082   1.127  14.238  0.3242 -0.3003 -0.2191
10978TIP3    H154349   6.096   1.219  14.260 -0.3705 -0.0961 -0.5877
10978TIP3    H254350   6.169   1.094  14.216  1.0957 -0.5442  2.8040
10979TIP3   OH254351   4.328   5.192   1.504 -0.0801  0.4206 -0.0254
10979TIP3    H154352   4.378   5.144   1.571 -0.2339  0.5273  0.1691
10979TIP3    H254353   4.381   5.269   1.485  0.7955 -0.4550 -1.2789
10980TIP3   OH254354   2.400   5.093   5.470  0.2489  0.0175 -0.3437
10980TIP3    H154355   2.482   5.056   5.505  0.1896  0.8959  0.8222
10980TIP3    H254356   2.414   5.188   5.475 -0.0271  0.1908 -2.1914
10981TIP3   OH254357   1.548   0.422  15.809  0.5668  0.0317  0.3836
10981TIP3    H154358   1.569   0.500  15.757  0.1574  0.8576  1.4197
10981TIP3    H254359   1.586   0.440  15.895 -1.0006 -0.1465  1.1448
10982TIP3   OH254360   4.843   6.213   3.040 -0.1004 -0.2007  0.0603
10982TIP3    H154361   4.752   6.233   3.018  0.5105  1.0128 -1.5567
10982TIP3    H254362   4.862   6.132   2.991 -0.1670 -0.1978  0.0288
10983TIP3   OH254363   0.036   4.814   3.644 -0.0759  0.1640 -0.0917
10983TIP3    H154364  -0.002   4.732   3.612  1.0143 -0.3109 -0.2208
10983TIP3    H254365  -0.034   4.878   3.634 -0.9951 -0.7748  0.1342
10984TIP3   OH254366   1.707   0.373   6.251 -0.5557  0.1818  0.8459
10984TIP3    H154367   1.757   0.387   6.331  0.6776 -0.3592  0.1914
10984TIP3    H254368   1.752   0.302   6.206 -0.1238  1.6392 -1.1781
10985TIP3   OH254369   1.542   6.662  12.447  0.4863  0.7246  0.2507
10985TIP3    H154370   1.529   6.594  12.381  2.7743  1.7060 -1.3547
10985TIP3    H254371   1.589   6.732  12.400 -1.5893  3.3826  1.8270
10986TIP3   OH254372   4.546   3.751  11.133 -0.0006 -0.1609  0.4947
10986TIP3    H154373   4.473   3.708  11.090  0.4466  0.3663 -0.8279
10986TIP3    H254374   4.612   3.762  11.064  1.5571 -1.1022  1.7486
10987TIP3   OH254375   3.956   2.811  12.304  0.5367 -0.6669  0.0005
10987TIP3    H154376   4.044   2.801  12.340  1.1669 -1.0928 -1.5739
10987TIP3    H254377   3.946   2.905  12.289  1.7790 -0.8572 -2.2695
10988TIP3   OH254378   6.334   5.949  14.773  0.0249 -0.3883  0.6906
10988TIP3    H154379   6.254   5.999  14.753 -0.3245 -1.8209 -1.9497
10988TIP3    H254380   6.307   5.857  14.768  2.4242 -1.1388 -4.3043
10989TIP3   OH254381   2.783   4.716  15.535  0.6737 -0.0228 -0.8644
10989TIP3    H154382   2.760   4.723  15.628  1.2990 -1.5210 -0.5702
10989TIP3    H254383   2.816   4.803  15.512  1.3284  0.1268  0.5472
10990TIP3   OH254384   2.881   5.849   0.296 -0.6064 -0.5237  0.4348
10990TIP3    H154385   2.947   5.810   0.354  2.2947  0.2114 -2.1465
10990TIP3    H254386   2.921   5.930   0.265 -3.3363  0.6534 -0.2825
10991TIP3   OH254387   1.774   5.043   2.508 -0.7817  0.3165  0.5765
10991TIP3    H154388   1.738   5.060   2.595 -1.0899  0.8496  0.3535
10991TIP3    H254389   1.849   5.103   2.502 -1.1009  0.6846  0.2633
10992TIP3   OH254390   2.995   1.002   3.723 -0.4342  0.3833 -0.0490
10992TIP3    H154391   3.031   0.995   3.812 -2.5185 -0.1302  0.8142
10992TIP3    H254392   2.945   1.084   3.724  1.0112  1.3314 -1.3686
10993TIP3   OH254393   6.023   2.353   3.954  0.0391  0.2089 -0.3370
10993TIP3    H154394   6.050   2.327   4.042 -0.6664 -0.0788 -0.1947
10993TIP3    H254395   6.017   2.448   3.958  0.9239  0.2727 -0.3506
10994TIP3   OH254396   1.094   3.907   2.435 -0.1104 -0.4056  0.0300
10994TIP3    H154397   1.150   3.929   2.362 -1.2020  1.1101 -0.3975
10994TIP3    H254398   1.065   3.817   2.417  2.8492 -1.6323  0.7713
10995TIP3   OH254399   3.721   6.467  16.400  0.1207  0.3058  0.0977
10995TIP3    H154400   3.688   6.449  16.488 -1.0476 -0.9905 -0.5628
10995TIP3    H254401   3.730   6.562  16.397 -1.7280  0.5480  0.9693
10996TIP3   OH254402   5.872   0.258  11.663  0.3792  0.2758 -0.5146
10996TIP3    H154403   5.935   0.323  11.630 -0.2658  0.9948 -0.3673
10996TIP3    H254404   5.792   0.308  11.677 -0.3945 -0.7347 -1.2173
10997TIP3   OH254405   1.497   0.286   1.366  0.8172  0.0736 -1.0277
10997TIP3    H154406   1.519   0.201   1.402  2.3117  0.5156 -0.8208
10997TIP3    H254407   1.482   0.342   1.443 -0.1926  0.0085 -1.1612
10998TIP3   OH254408   2.574   0.385   4.174  0.2277 -0.5288 -0.2982
10998TIP3    H154409   2.611   0.377   4.086  0.7318  0.1723 -0.1507
10998TIP3    H254410   2.644   0.356   4.233  0.0105 -0.6681 -0.1042
10999TIP3   OH254411   1.656   1.486   3.448 -0.4152  0.1018  0.0894
10999TIP3    H154412   1.613   1.487   3.533  0.4678  0.1853  0.5520
10999TIP3    H254413   1.747   1.509   3.467  0.1128 -1.2118 -0.6854
11000TIP3   OH254414   6.226   6.451   4.186 -0.0613 -0.3879 -0.1355
11000TIP3    H154415   6.212   6.358   4.170 -1.4782 -0.3486  0.6721
11000TIP3    H254416   6.144   6.481   4.225  0.5220  1.1102  0.0133
11001TIP3   OH254417   4.164   2.378   3.604 -0.0208 -0.6321  0.4638
11001TIP3    H154418   4.246   2.382   3.554 -0.6527 -0.6196 -0.5843
11001TIP3    H254419   4.150   2.469   3.633 -0.6047 -0.2647 -0.9125
11002TIP3   OH254420   4.765   4.817  11.939 -0.3231  0.0558 -0.2863
11002TIP3    H154421   4.856   4.823  11.967 -0.0499  0.3779 -1.1963
11002TIP3    H254422   4.723   4.895  11.974 -0.7095 -0.9777  1.6742
11003TIP3   OH254423   4.232   4.731  14.866 -0.7499 -0.3724  0.2577
11003TIP3    H154424   4.281   4.673  14.809  1.0080  0.9259  0.3608
11003TIP3    H254425   4.222   4.682  14.948 -0.4373 -1.0064 -0.0808
11004TIP3   OH254426   4.587   5.775  11.855 -0.0565  0.5886 -0.7329
11004TIP3    H154427   4.679   5.798  11.846  0.3140 -0.2156  0.5967
11004TIP3    H254428   4.568   5.787  11.948 -1.4389  1.1803 -1.0539
11005TIP3   OH254429   5.395   6.257   5.422 -0.5834  0.5897 -0.4167
11005TIP3    H154430   5.415   6.205   5.499 -0.9539 -0.0072 -0.7161
11005TIP3    H254431   5.466   6.321   5.416  0.1666 -0.2196 -0.3487
11006TIP3   OH254432   1.352   3.252   2.339  0.1915 -0.2887 -0.5233
11006TIP3    H154433   1.383   3.293   2.421 -3.3498 -0.5580  1.1019
11006TIP3    H254434   1.347   3.325   2.278  0.2291  0.4624  0.3365
11007TIP3   OH254435   2.449   6.345  13.265  0.5736 -0.1741  0.1521
11007TIP3    H154436   2.518   6.345  13.199 -0.0862  0.2856 -0.5598
11007TIP3    H254437   2.368   6.337  13.215  0.1107 -0.9487  0.9883
11008TIP3   OH254438   4.476   5.019   4.485 -0.3398  0.6861  0.5903
11008TIP3    H154439   4.444   4.998   4.573 -0.9031  0.2507  0.2917
11008TIP3    H254440   4.566   5.046   4.499 -0.5594  1.0780  1.3573
11009TIP3   OH254441   1.710   5.473   4.232 -0.8605 -0.2158  0.0134
11009TIP3    H154442   1.801   5.500   4.222 -0.8916 -0.0987  0.0402
11009TIP3    H254443   1.671   5.488   4.146 -1.2197  1.1425  0.3972
11010TIP3   OH254444   6.481   5.649  13.471  0.6255  0.3214 -0.3133
11010TIP3    H154445   6.436   5.698  13.402 -0.4316 -2.7418 -1.9904
11010TIP3    H254446   6.439   5.678  13.552 -0.5687  1.4961 -1.3102
11011TIP3   OH254447   2.957   4.185   2.568  0.3828  0.1525 -0.0139
11011TIP3    H154448   3.047   4.188   2.599 -0.1709 -0.0918  1.7311
11011TIP3    H254449   2.926   4.275   2.572  0.3316  0.1313  0.0719
11012TIP3   OH254450   4.128   0.794   0.182 -0.0395 -0.0982  0.4917
11012TIP3    H154451   4.208   0.783   0.131  0.1608  0.1560  0.7491
11012TIP3    H254452   4.158   0.819   0.269 -0.3940 -0.1495  0.6303
11013TIP3   OH254453   6.421   2.120  15.850  0.4468 -0.0343  0.3798
11013TIP3    H154454   6.471   2.202  15.857 -1.7928  1.4543  0.0035
11013TIP3    H254455   6.428   2.096  15.757 -0.6903  1.0028 -0.0033
11014TIP3   OH254456   4.567   3.215  15.407 -0.4813 -0.0679 -0.0248
11014TIP3    H154457   4.520   3.133  15.423  1.5059 -0.9187  2.0093
11014TIP3    H254458   4.540   3.272  15.479  1.1129 -0.4156  0.9134
11015TIP3   OH254459   5.822   1.035  14.227  0.0523 -0.0124  0.1208
11015TIP3    H154460   5.904   1.074  14.255  1.4051 -2.3107 -0.3525
11015TIP3    H254461   5.813   1.059  14.135  0.5046 -0.2043  0.0245
11016TIP3   OH254462   1.608   1.208  12.205 -0.1799 -0.4839 -0.2684
11016TIP3    H154463   1.605   1.116  12.178  3.8132 -0.2556 -2.1980
11016TIP3    H254464   1.653   1.207  12.289  0.9134 -0.2700 -0.8368
11017TIP3   OH254465   2.555   5.316   0.406 -0.0263 -0.2493 -0.1404
11017TIP3    H154466   2.554   5.222   0.387  2.1278 -0.5190  0.7790
11017TIP3    H254467   2.517   5.356   0.328 -0.2611 -1.8302 -0.8897
11018TIP3   OH254468   6.529   3.343   2.381  0.7670  0.1515 -0.1639
11018TIP3    H154469   6.570   3.428   2.364  0.3844  1.0849  2.9079
11018TIP3    H254470   6.435   3.361   2.376  0.6483 -0.7129 -1.8136
11019TIP3   OH254471   0.556   3.913  13.284  0.9241 -0.2026 -0.5130
11019TIP3    H154472   0.531   3.900  13.375  0.7013 -0.9382 -0.6711
11019TIP3    H254473   0.479   3.951  13.243  0.3208 -1.6396 -0.8006
11020TIP3   OH254474   6.142   5.912  15.436 -0.5551  0.1917  0.4099
11020TIP3    H154475   6.188   5.964  15.502 -2.4266  1.8849  0.4724
11020TIP3    H254476   6.078   5.861  15.486  0.6122 -1.5448  0.2395
11021TIP3   OH254477   0.191   6.012  12.875  0.4536 -0.2221  0.5680
11021TIP3    H154478   0.282   5.982  12.874  0.0418 -1.5383  0.1261
11021TIP3    H254479   0.139   5.932  12.861 -0.7342  0.6359 -0.1395
11022TIP3   OH254480   2.950   2.728   5.592  0.1121 -0.7009  0.1025
11022TIP3    H154481   2.963   2.820   5.571  0.6026 -0.6441  0.6259
11022TIP3    H254482   3.038   2.693   5.601 -0.0723 -1.2311 -0.1181
11023TIP3   OH254483   4.368   6.169  16.815  0.2454  0.7330 -0.6534
11023TIP3    H154484   4.303   6.163  16.745  0.2035  1.8357 -0.7369
11023TIP3    H254485   4.320   6.150  16.895 -0.3658  2.1845 -0.6411
11024TIP3   OH254486   4.100   2.183   5.076 -0.1345  0.3357 -0.2505
11024TIP3    H154487   4.149   2.153   4.999  1.5655 -2.5394  1.7428
11024TIP3    H254488   4.031   2.117   5.087 -0.6910  1.0094  0.3983
11025TIP3   OH254489   2.028   5.376  13.931 -0.2848  0.2309  0.2719
11025TIP3    H154490   1.989   5.299  13.971 -1.3078  1.2460  1.3103
11025TIP3    H254491   2.020   5.361  13.837 -3.2420  0.3288  0.4133
11026TIP3   OH254492   6.474   5.138   0.893 -0.1073 -0.0888 -0.3072
11026TIP3    H154493   6.408   5.075   0.923  0.0785 -0.4636 -0.6606
11026TIP3    H254494   6.474   5.207   0.959 -1.7659  0.5748 -0.9440
11027TIP3   OH254495   2.317   4.085  15.951  0.2250  0.1466 -0.3586
11027TIP3    H154496   2.369   4.005  15.946  0.1101  0.1153 -1.5758
11027TIP3    H254497   2.319   4.110  16.043  0.3820 -1.1759  0.0181
11028TIP3   OH254498   3.103   0.813  17.026  0.5956  0.0751  0.0652
11028TIP3    H154499   3.068   0.754  17.093  1.2608  1.5765  1.8176
11028TIP3    H254500   3.196   0.820  17.046  0.7496  0.7819 -0.8341
11029TIP3   OH254501   5.059   5.945   0.602 -0.5845  0.2181 -0.6719
11029TIP3    H154502   4.991   5.993   0.649 -0.2847 -0.6526  0.7097
11029TIP3    H254503   5.012   5.894   0.536 -1.1335  0.6642 -0.6304
11030TIP3   OH254504   4.224   0.456  10.708  0.4291 -0.5377 -0.4073
11030TIP3    H154505   4.169   0.495  10.640  0.6233 -0.4635 -0.5194
11030TIP3    H254506   4.258   0.531  10.757 -0.7728 -0.6116  0.6075
11031TIP3   OH254507   0.800   2.006  16.748 -0.1589  0.3197  0.2311
11031TIP3    H154508   0.818   1.913  16.758 -0.2771  0.4537  2.0666
11031TIP3    H254509   0.840   2.030  16.664  1.3161 -1.0399  0.5077
11032TIP3   OH254510   5.920   3.811  12.767  0.1481  0.3070  0.3711
11032TIP3    H154511   5.993   3.849  12.815 -1.2132  0.0359  2.8591
11032TIP3    H254512   5.857   3.884  12.758  0.3745  0.3505 -1.0719
11033TIP3   OH254513   1.183   6.402   6.006  0.3016 -0.1386 -0.2640
11033TIP3    H154514   1.248   6.401   5.935  0.3611  1.5998 -0.2672
11033TIP3    H254515   1.202   6.323   6.057  0.5876 -1.1493 -1.8713
11034TIP3   OH254516   0.903   5.126   3.495  0.0435 -0.2803 -0.2324
11034TIP3    H154517   0.907   5.176   3.577  0.4435  1.2494 -1.1455
11034TIP3    H254518   0.910   5.035   3.523 -0.1362  0.1844  1.4594
11035TIP3   OH254519   1.228   2.799   1.541  0.1356 -0.2010 -0.0573
11035TIP3    H154520   1.224   2.833   1.630 -0.7362  0.1668 -0.2267
11035TIP3    H254521   1.152   2.741   1.534  0.3040 -0.3792 -0.5100
11036TIP3   OH254522   1.445   6.242  13.687 -0.5473  0.0534  0.4697
11036TIP3    H154523   1.444   6.177  13.617 -0.8453  0.2849  0.2542
11036TIP3    H254524   1.381   6.210  13.750 -1.0189  0.3604  0.1531
11037TIP3   OH254525   3.880   3.846  13.108 -0.5226  0.4087 -0.6779
11037TIP3    H154526   3.943   3.833  13.037  0.5687 -0.2064  0.3670
11037TIP3    H254527   3.897   3.773  13.168 -2.0403  0.4044 -0.2171
11038TIP3   OH254528   4.554   0.753   4.043  0.3953  0.5620  0.0896
11038TIP3    H154529   4.593   0.837   4.069  0.9519 -0.1751  1.8215
11038TIP3    H254530   4.465   0.776   4.016  0.4772  1.6989  0.7013
11039TIP3   OH254531   0.970   3.182   4.550  0.0567 -0.2567  0.1626
11039TIP3    H154532   0.989   3.091   4.527  0.6205  0.0834 -0.7787
11039TIP3    H254533   1.013   3.233   4.481 -1.2654  0.6794 -0.0109
11040TIP3   OH254534   4.518   5.504  15.728 -0.8171  0.0123 -0.1417
11040TIP3    H154535   4.542   5.569  15.661 -1.8433 -0.4172 -0.9557
11040TIP3    H254536   4.423   5.510  15.733 -0.8476 -0.8522  0.3815
11041TIP3   OH254537   3.128   6.024   6.567 -0.4492 -0.6837 -0.1080
11041TIP3    H154538   3.164   5.943   6.531 -1.1716 -0.8557 -0.4598
11041TIP3    H254539   3.065   6.053   6.501 -0.6917 -0.1989  0.3358
11042TIP3   OH254540   4.836   5.023  14.017  0.4380 -0.0327  0.0604
11042TIP3    H154541   4.929   5.043  14.008  0.5411 -0.3103  0.5278
11042TIP3    H254542   4.832   4.949  14.077 -0.0930  0.0450  0.1288
11043TIP3   OH254543   4.101   0.466  16.735  0.2791  0.8328  0.6983
11043TIP3    H154544   4.148   0.522  16.797 -0.3638  0.2020  1.8079
11043TIP3    H254545   4.026   0.518  16.708 -0.0282  0.7220  1.3114
11044TIP3   OH254546   4.844   2.757  11.884  0.0824  0.2273  0.8818
11044TIP3    H154547   4.933   2.774  11.914  0.3873 -0.6724  0.5403
11044TIP3    H254548   4.826   2.668  11.915 -0.2093 -0.0827 -0.1605
11045TIP3   OH254549   1.027   4.407  15.711 -0.3818 -0.1574  0.0425
11045TIP3    H154550   1.075   4.480  15.672 -1.9431 -0.0217 -1.7678
11045TIP3    H254551   1.074   4.329  15.681 -0.0053  0.0258  0.1432
11046TIP3   OH254552   1.012   0.474  13.872 -1.1522  0.1423  0.3049
11046TIP3    H154553   1.100   0.478  13.910 -1.2431 -0.7970  0.6588
11046TIP3    H254554   0.992   0.564  13.847 -0.3968  0.4951  0.9289
11047TIP3   OH254555   0.990   2.505  12.618 -0.3510  0.3734  0.4635
11047TIP3    H154556   1.047   2.442  12.574 -0.5424 -0.1625  0.9816
11047TIP3    H254557   1.050   2.555  12.675 -0.2036  0.6553  0.0675
11048TIP3   OH254558   5.859   6.493   4.024 -0.2204  0.0910  0.0148
11048TIP3    H154559   5.862   6.466   4.116  1.2216  1.2160  0.3359
11048TIP3    H254560   5.835   6.414   3.976 -1.0902 -0.4973  1.3620
11049TIP3   OH254561   5.636   3.986   5.658  0.2068 -0.3729 -0.3547
11049TIP3    H154562   5.713   3.974   5.712 -0.0713 -0.4462  0.0294
11049TIP3    H254563   5.664   3.958   5.570  0.3349 -1.3570 -0.0208
11050TIP3   OH254564   2.667   6.235  17.094 -0.0820 -0.0810 -0.7115
11050TIP3    H154565   2.600   6.188  17.144 -0.2444 -1.4709 -2.1577
11050TIP3    H254566   2.739   6.172  17.084  1.0071  1.0259 -0.1008
11051TIP3   OH254567   4.039   6.181   2.736 -0.6457  0.2505 -0.0144
11051TIP3    H154568   4.058   6.237   2.661 -0.6574 -1.0237 -1.0021
11051TIP3    H254569   4.122   6.175   2.784 -0.9979  2.2828  0.9671
11052TIP3   OH254570   5.883   3.991   5.213  0.2819  0.6183  0.5861
11052TIP3    H154571   5.968   3.948   5.219  0.7427  1.0634 -1.6472
11052TIP3    H254572   5.820   3.920   5.220  0.8623  0.1547  1.2968
11053TIP3   OH254573   5.146   5.570  11.733  0.0188 -0.9861 -0.4664
11053TIP3    H154574   5.133   5.501  11.799  0.8919  0.2036  1.0205
11053TIP3    H254575   5.239   5.591  11.738 -0.5770  1.8172  0.7702
11054TIP3   OH254576   1.378   6.489  12.273  0.6059  0.2575  0.2091
11054TIP3    H154577   1.338   6.403  12.259 -3.3552  1.5922  1.7540
11054TIP3    H254578   1.391   6.525  12.185 -0.0276 -0.9785 -0.4112
11055TIP3   OH254579   0.247   0.610   3.430  0.1284 -0.2092  0.0673
11055TIP3    H154580   0.308   0.550   3.386  0.5553  0.7337 -0.6682
11055TIP3    H254581   0.164   0.596   3.385  0.2335 -0.2537 -0.1177
11056TIP3   OH254582   0.170   4.977  14.939 -0.2228  0.1067  0.3642
11056TIP3    H154583   0.245   5.023  14.976 -0.6547  2.7497 -1.7477
11056TIP3    H254584   0.100   5.042  14.938 -2.0861 -1.7730  0.6926
11057TIP3   OH254585   5.589   6.432   1.874  0.7887 -0.0812  0.1439
11057TIP3    H154586   5.622   6.433   1.784  0.0044 -0.5487 -0.1675
11057TIP3    H254587   5.581   6.339   1.896  0.3541  0.0256  0.4550
11058TIP3   OH254588   6.131   5.733  13.322 -0.2624  0.7853 -0.6588
11058TIP3    H154589   6.069   5.803  13.300 -1.1589  1.0711  2.3241
11058TIP3    H254590   6.217   5.774  13.315 -0.7061  1.8674 -0.0601
11059TIP3   OH254591   3.322   0.274   4.948 -0.6371  0.1780 -0.3271
11059TIP3    H154592   3.380   0.337   4.991  0.3409 -1.6490  1.2016
11059TIP3    H254593   3.327   0.296   4.855  1.7990  0.7161 -0.1312
11060TIP3   OH254594   5.130   6.353   2.455  0.8810  0.2155 -0.1318
11060TIP3    H154595   5.108   6.416   2.386 -1.8842  0.3295  0.7349
11060TIP3    H254596   5.125   6.404   2.536 -0.8933 -0.9403  0.5331
11061TIP3   OH254597   0.011   0.998   4.326  0.4569 -0.2868 -0.3875
11061TIP3    H154598   0.045   0.911   4.343  1.0359 -0.0225 -0.1660
11061TIP3    H254599   0.081   1.057   4.353 -0.0372  0.2555 -0.2698
11062TIP3   OH254600   1.819   4.338  16.070 -0.3414 -0.1590  0.1472
11062TIP3    H154601   1.872   4.323  16.149  1.0787 -1.3439 -0.9730
11062TIP3    H254602   1.759   4.264  16.067 -1.4377  0.6628  0.8732
11063TIP3   OH254603   4.007   0.874   4.202  0.4676  0.2284 -0.4627
11063TIP3    H154604   3.918   0.907   4.213  0.0950 -0.3961 -1.4894
11063TIP3    H254605   4.024   0.825   4.283 -0.8675 -1.2750 -1.0488
11064TIP3   OH254606   4.384   3.218  13.221 -0.2032  0.1071  0.3612
11064TIP3    H154607   4.423   3.177  13.145  1.3876  0.9728  0.6623
11064TIP3    H254608   4.304   3.168  13.238  1.0355 -2.0701  0.0187
11065TIP3   OH254609   5.254   0.258  15.020 -0.2501 -0.0776  0.1514
11065TIP3    H154610   5.276   0.169  15.046  1.7311 -0.0280 -1.1500
11065TIP3    H254611   5.280   0.312  15.094 -1.0966 -0.5174  0.7859
11066TIP3   OH254612   2.007   6.593   4.696 -0.1513  0.8300 -0.0801
11066TIP3    H154613   1.974   6.537   4.766  0.8036  0.1251 -0.1700
11066TIP3    H254614   2.095   6.617   4.724 -0.1489  1.3901 -0.5570
11067TIP3   OH254615   3.621   3.941  14.138 -0.0716  0.3040  0.4643
11067TIP3    H154616   3.528   3.959  14.123 -0.4874 -0.0650  2.2940
11067TIP3    H254617   3.639   3.863  14.086 -0.9346  0.0653  0.5027
11068TIP3   OH254618   4.401   2.166  13.019  0.3466 -0.0398 -0.1322
11068TIP3    H154619   4.337   2.096  13.004  1.0793 -1.4123  2.5470
11068TIP3    H254620   4.347   2.243  13.038 -0.4685  0.0680 -2.5676
11069TIP3   OH254621   6.314   1.040   1.293  0.4810  0.3169  0.2270
11069TIP3    H154622   6.315   1.003   1.381  0.0611 -0.3408 -0.0346
11069TIP3    H254623   6.396   1.088   1.286 -0.4613  2.3146  1.7723
11070TIP3   OH254624   4.760   0.558   4.302  0.7243  0.7449 -0.7508
11070TIP3    H154625   4.711   0.491   4.254 -1.1823  1.3759  0.1826
11070TIP3    H254626   4.850   0.548   4.273 -0.2684  1.0707 -4.3990
11071TIP3   OH254627   6.712   0.443  15.918  0.2629 -0.9155 -0.0934
11071TIP3    H154628   6.690   0.423  16.009 -1.0775 -0.9838 -0.4090
11071TIP3    H254629   6.807   0.439  15.915  0.4436  0.5226  1.6398
11072TIP3   OH254630   1.574   0.747  13.011  0.5118 -0.3094  0.3540
11072TIP3    H154631   1.631   0.786  12.945  0.6960 -0.8953  0.1563
11072TIP3    H254632   1.485   0.761  12.978  0.6372 -2.5483 -1.2029
11073TIP3   OH254633   6.779   0.798  12.971 -0.1125  0.4088  0.2464
11073TIP3    H154634   6.723   0.740  12.919 -0.9927  1.5743 -0.1596
11073TIP3    H254635   6.718   0.859  13.013  0.7031  0.3805  1.5173
11074TIP3   OH254636   5.447   1.904  12.046 -0.1384 -0.0488 -0.0283
11074TIP3    H154637   5.404   1.822  12.021 -0.0202 -0.5874  1.4352
11074TIP3    H254638   5.424   1.965  11.976 -2.0813 -0.7190 -0.0223
11075TIP3   OH254639   1.826   0.878   1.604 -0.2174  0.2762  0.1787
11075TIP3    H154640   1.911   0.907   1.637  0.4432 -0.4630 -0.8297
11075TIP3    H254641   1.821   0.915   1.516  0.1297 -1.6286 -0.6892
11076TIP3   OH254642   0.712   6.657  11.812 -0.5816  0.0352  0.3009
11076TIP3    H154643   0.710   6.568  11.777 -0.4614 -0.0527  0.5140
11076TIP3    H254644   0.686   6.712  11.739  0.0944 -0.1056 -0.0608
11077TIP3   OH254645   4.006   2.656   5.071  0.2022 -0.2141 -0.2356
11077TIP3    H154646   4.011   2.707   5.152 -1.5305  1.0992 -0.9065
11077TIP3    H254647   3.939   2.589   5.088  1.3630 -1.3323  0.1076
11078TIP3   OH254648   2.638   4.553  13.610 -0.0482  0.7018 -0.0218
11078TIP3    H154649   2.545   4.534  13.623 -0.5751  2.1907 -1.3123
11078TIP3    H254650   2.653   4.635  13.656  0.5874  0.5700  0.0214
11079TIP3   OH254651   2.708   0.889  14.077  0.1740 -0.4644 -0.3559
11079TIP3    H154652   2.752   0.820  14.127 -0.9825 -1.2267 -0.3461
11079TIP3    H254653   2.621   0.896  14.118  0.2618  1.0000 -0.3665
11080TIP3   OH254654   0.643   1.300  12.472  0.0731  0.6786 -0.1240
11080TIP3    H154655   0.675   1.237  12.408  0.0781  1.6637 -1.1135
11080TIP3    H254656   0.582   1.250  12.527  1.1674 -0.5273  0.0411
11081TIP3   OH254657   5.693   6.349   0.667  0.1267 -1.0237  0.4586
11081TIP3    H154658   5.671   6.310   0.582  0.3551 -0.7349  0.2615
11081TIP3    H254659   5.666   6.284   0.732 -1.0524 -0.7957  0.2200
11082TIP3   OH254660   3.531   5.508   1.018 -0.6443  0.1457  0.0429
11082TIP3    H154661   3.529   5.602   0.998 -1.2428  0.0831 -0.2180
11082TIP3    H254662   3.532   5.465   0.932  2.1444 -0.0916  0.0833
11083TIP3   OH254663   3.248   0.197  17.090  0.0739 -0.1144  0.5952
11083TIP3    H154664   3.238   0.214  17.183  1.2140 -1.6330  1.0320
11083TIP3    H254665   3.342   0.179  17.078 -0.0272  0.1554 -0.8588
11084TIP3   OH254666   3.580   2.746   1.552  0.5090 -0.4685  0.3659
11084TIP3    H154667   3.603   2.657   1.580 -2.4653 -0.5613  3.1238
11084TIP3    H254668   3.519   2.734   1.479  0.8513 -0.6269  0.1033
11085TIP3   OH254669   5.615   1.639   0.268 -0.7015  0.4469 -0.3298
11085TIP3    H154670   5.700   1.676   0.292 -1.2932  0.9175  1.2086
11085TIP3    H254671   5.633   1.583   0.193  1.2099 -0.5037  0.7535
11086TIP3   OH254672   0.933   6.195   5.816  0.0916 -0.1174  0.3746
11086TIP3    H154673   0.947   6.290   5.815 -0.1342 -0.0853  0.0502
11086TIP3    H254674   0.968   6.166   5.900  2.6475 -0.1068 -0.5742
11087TIP3   OH254675   0.504   2.483  15.530  0.2988 -0.7689  0.6338
11087TIP3    H154676   0.491   2.541  15.455 -0.9775  0.4912  1.7823
11087TIP3    H254677   0.417   2.447  15.547  0.5906 -1.0875  1.4793
11088TIP3   OH254678   4.930   2.848  16.113  0.4827  0.8930 -0.1233
11088TIP3    H154679   5.000   2.858  16.178  1.4638  0.9299 -1.1444
11088TIP3    H254680   4.941   2.759  16.080 -0.0631  0.8459 -0.1841
11089TIP3   OH254681   1.849   1.618  15.125 -0.1932  0.2692  0.5292
11089TIP3    H154682   1.863   1.635  15.218 -1.1338  1.0825  0.5324
11089TIP3    H254683   1.911   1.548  15.104  0.4705  0.5128  1.6150
11090TIP3   OH254684   6.501   5.888   3.535 -0.3834  0.2520  0.2078
11090TIP3    H154685   6.458   5.969   3.562 -1.6917 -0.3782  0.0788
11090TIP3    H254686   6.523   5.902   3.443  0.8226  1.0347  0.5894
11091TIP3   OH254687   4.561   5.156   1.064  0.3467  0.1012  0.6234
11091TIP3    H154688   4.494   5.110   1.015  0.8401  0.0765 -0.0406
11091TIP3    H254689   4.615   5.199   0.997  1.6136 -0.7249  1.0662
11092TIP3   OH254690   6.524   6.344  12.431  0.3705  0.2706 -0.2295
11092TIP3    H154691   6.599   6.310  12.480  1.1415 -0.2082 -1.6941
11092TIP3    H254692   6.562   6.386  12.355 -0.6356  3.3210  0.8134
11093TIP3   OH254693   3.177   2.183   0.578  0.0217 -0.0949 -0.7764
11093TIP3    H154694   3.157   2.263   0.530 -0.4227  1.2749  1.5097
11093TIP3    H254695   3.093   2.141   0.592 -0.2932  1.1040  1.3118
11094TIP3   OH254696   4.898   1.724   5.890 -0.1924 -0.2562 -0.1471
11094TIP3    H154697   4.947   1.784   5.834  0.6165  0.8358  1.6073
11094TIP3    H254698   4.837   1.780   5.938  0.5041 -0.8154  1.4609
11095TIP3   OH254699   0.279   1.947   1.667 -0.5771 -0.1241  0.4430
11095TIP3    H154700   0.235   1.875   1.621 -1.3743  0.8408 -0.3396
11095TIP3    H254701   0.210   1.988   1.720 -0.0051 -0.2663  1.3179
11096TIP3   OH254702   4.990   4.516  15.820  0.3587 -0.0376  0.3692
11096TIP3    H154703   4.940   4.595  15.842  0.1443  0.2368 -1.0072
11096TIP3    H254704   4.925   4.458  15.780  0.8669 -0.2253 -0.1875
11097TIP3   OH254705   3.344   4.721   4.394  0.3469  0.5080 -0.5244
11097TIP3    H154706   3.367   4.688   4.481  0.1537  0.0714 -0.6343
11097TIP3    H254707   3.279   4.790   4.411  0.3080  0.4239 -0.3217
11098TIP3   OH254708   5.710   4.669   0.732  0.2415 -0.0190  0.5481
11098TIP3    H154709   5.634   4.727   0.733 -1.4483 -2.1322  0.7539
11098TIP3    H254710   5.728   4.651   0.824  0.4518 -0.1941  0.4740
11099TIP3   OH254711   0.621   2.229   1.206 -0.7632 -0.1770  0.0013
11099TIP3    H154712   0.630   2.172   1.129  1.3401  0.7391 -0.5083
11099TIP3    H254713   0.642   2.316   1.173 -4.3308  1.0721  0.6774
11100TIP3   OH254714   3.107   6.219  13.243  0.5606 -0.1296  0.5989
11100TIP3    H154715   3.159   6.249  13.318 -0.7597  0.5997  1.2599
11100TIP3    H254716   3.152   6.255  13.167  1.3119  0.0427  1.1137
11101TIP3   OH254717   5.134   0.528  11.295  0.3965 -0.3598 -0.3921
11101TIP3    H154718   5.200   0.585  11.255 -1.2149  0.9880 -1.2373
11101TIP3    H254719   5.076   0.504  11.223 -0.9206 -0.2287  0.5829
11102TIP3   OH254720   2.814   2.149   2.248 -0.4218  0.3511  0.0498
11102TIP3    H154721   2.790   2.101   2.328  0.5503  3.1907  2.1990
11102TIP3    H254722   2.737   2.203   2.228 -0.9305 -0.8438 -1.4502
11103TIP3   OH254723   3.094   2.373   4.380 -0.2453 -0.6756 -0.0086
11103TIP3    H154724   3.111   2.279   4.380  1.6684 -0.4289  2.0969
11103TIP3    H254725   3.142   2.405   4.303 -1.4345 -1.4199 -1.1185
11104TIP3   OH254726   2.901   0.399   1.076  0.3295 -0.5927 -0.0335
11104TIP3    H154727   2.810   0.378   1.099 -0.0582  0.5804 -0.4082
11104TIP3    H254728   2.943   0.415   1.161 -0.0769 -0.1522  0.0912
11105TIP3   OH254729   4.444   5.923  14.183  0.1611  0.3666 -0.6223
11105TIP3    H154730   4.424   5.885  14.269  1.6688 -0.6593 -0.6805
11105TIP3    H254731   4.520   5.979  14.199 -0.6557  1.5976 -0.9706
11106TIP3   OH254732   1.873   4.475  17.012 -0.3250  0.5279  0.3373
11106TIP3    H154733   1.924   4.512  16.940 -1.7093 -0.1459 -1.0357
11106TIP3    H254734   1.842   4.391  16.979  0.9418 -0.9378  2.5996
11107TIP3   OH254735   2.017   6.776  15.266 -0.6108 -0.1350  0.4222
11107TIP3    H154736   2.048   6.752  15.178  0.6553  1.2400  0.4500
11107TIP3    H254737   1.954   6.846  15.251  0.6240  1.0663  0.6343
11108TIP3   OH254738   3.220   6.152   2.105  0.7300  0.6255 -0.1506
11108TIP3    H154739   3.209   6.197   2.188 -1.5206 -0.2555  0.1127
11108TIP3    H254740   3.199   6.060   2.124  1.1957  0.2078 -1.4794
11109TIP3   OH254741   4.404   4.431   3.425  0.0061  0.0092 -0.4204
11109TIP3    H154742   4.419   4.525   3.436  1.0382 -0.1210 -0.6517
11109TIP3    H254743   4.338   4.409   3.491  0.9226  0.5991  0.7185
11110TIP3   OH254744   1.913   3.216   4.184  0.5726 -0.1342 -0.3908
11110TIP3    H154745   1.969   3.290   4.208 -0.0382 -0.1061  1.0279
11110TIP3    H254746   1.896   3.229   4.090  3.8262 -0.7651 -1.2055
11111TIP3   OH254747   0.959   5.390  16.945  0.0615  0.3618  0.9693
11111TIP3    H154748   1.038   5.337  16.934 -0.3447 -0.5872  2.3865
11111TIP3    H254749   0.908   5.373  16.867  0.9595  0.4720  0.3390
11112TIP3   OH254750   1.564   4.314   4.603 -0.2171 -0.1456  0.4437
11112TIP3    H154751   1.474   4.295   4.628 -0.8149  1.8415 -0.0972
11112TIP3    H254752   1.579   4.260   4.525 -1.5062  0.7123 -0.4305
11113TIP3   OH254753   3.058   5.053  14.756 -0.4995 -0.2700 -0.1593
11113TIP3    H154754   3.009   4.986  14.708 -0.7447 -0.5019  0.4043
11113TIP3    H254755   3.146   5.052  14.718 -0.2652 -1.4734  0.3781
11114TIP3   OH254756   4.442   1.317   5.404 -0.0318  0.6821 -0.8777
11114TIP3    H154757   4.486   1.232   5.411 -0.0485  0.6317 -1.3307
11114TIP3    H254758   4.441   1.351   5.493 -1.6029 -0.5846 -0.3767
11115TIP3   OH254759   3.397   1.606  14.549  0.5659 -0.1347 -0.8638
11115TIP3    H154760   3.408   1.582  14.457 -0.0545 -1.7195 -0.5574
11115TIP3    H254761   3.433   1.532  14.598 -1.7314 -0.7084  0.1259
11116TIP3   OH254762   0.069   4.456   4.309  0.6058  1.2933 -0.0449
11116TIP3    H154763   0.112   4.514   4.247 -0.6242  1.0431 -1.1887
11116TIP3    H254764  -0.023   4.483   4.307 -0.1200 -0.9939 -1.0284
11117TIP3   OH254765   2.049   5.232   4.758  0.0106  0.4562  0.0519
11117TIP3    H154766   1.997   5.237   4.678 -1.0866  0.3698  0.7404
11117TIP3    H254767   1.985   5.228   4.828  0.8700 -2.1939  0.8120
11118TIP3   OH254768   1.706   6.289  14.260 -0.0452 -0.4415  0.5370
11118TIP3    H154769   1.758   6.209  14.256 -0.5561 -0.7284 -1.3072
11118TIP3    H254770   1.625   6.262  14.304 -0.4334 -1.0897 -0.5404
11119TIP3   OH254771   6.350   3.151  10.618  0.4445  0.0144  0.0770
11119TIP3    H154772   6.309   3.088  10.676  0.8465  0.1941  0.5600
11119TIP3    H254773   6.308   3.234  10.640  0.8108  0.1354  0.3248
11120TIP3   OH254774   3.383   0.355  14.925  0.6693 -0.4524  0.4994
11120TIP3    H154775   3.425   0.375  14.841  0.0445  0.1055  0.3189
11120TIP3    H254776   3.432   0.407  14.989  0.9677 -0.6644  0.4460
11121TIP3   OH254777   4.641   5.740   3.926 -0.0771  0.4700 -0.1787
11121TIP3    H154778   4.648   5.645   3.918 -0.9836  0.4130 -0.4267
11121TIP3    H254779   4.643   5.772   3.836 -2.4932  0.4442 -0.3186
11122TIP3   OH254780   3.508   5.983  16.965 -0.0576  0.2131  0.1815
11122TIP3    H154781   3.591   5.999  17.009  0.0299  1.4895 -0.3993
11122TIP3    H254782   3.532   5.929  16.889  0.2980  0.8103 -0.1417
11123TIP3   OH254783   1.499   1.319  13.324 -0.0916  0.0971 -0.6249
11123TIP3    H154784   1.422   1.281  13.282 -1.2606  0.8853  0.7037
11123TIP3    H254785   1.516   1.399  13.275 -0.1207 -0.0862 -0.9335
11124TIP3   OH254786   1.805   4.622   3.938 -0.5971 -0.8299 -0.0278
11124TIP3    H154787   1.801   4.527   3.950  2.7037 -1.0130  0.4516
11124TIP3    H254788   1.846   4.655   4.017 -0.9651  0.9474 -0.5217
11125TIP3   OH254789   4.156   6.632  14.525  0.0601  0.0594 -0.4810
11125TIP3    H154790   4.087   6.604  14.464  1.0143 -1.2693 -0.9894
11125TIP3    H254791   4.124   6.715  14.561 -2.6958 -1.3658  0.7001
11126TIP3   OH254792   2.670   3.040  13.350  0.6877 -0.2889 -0.0975
11126TIP3    H154793   2.589   3.091  13.351  0.6956 -0.2238 -1.1909
11126TIP3    H254794   2.731   3.091  13.402  0.0265 -0.3489  0.7587
11127TIP3   OH254795   1.491   1.583  11.238 -0.0538 -0.4836 -0.5217
11127TIP3    H154796   1.449   1.531  11.169  1.9628 -0.1794 -2.0982
11127TIP3    H254797   1.510   1.667  11.195 -0.7161  0.5396  1.1193
11128TIP3   OH254798   2.856   3.438  15.704 -0.5473  0.4060 -0.2339
11128TIP3    H154799   2.906   3.510  15.743  3.5151 -2.0200 -0.4490
11128TIP3    H254800   2.871   3.447  15.610 -0.0167 -0.6800 -0.2640
11129TIP3   OH254801   1.070   5.770   4.304  0.2056  0.3083  0.0988
11129TIP3    H154802   1.003   5.837   4.291 -1.6875 -1.1076  1.7931
11129TIP3    H254803   1.049   5.702   4.240 -0.8485 -0.6826  1.4116
11130TIP3   OH254804   1.511   2.275  14.608 -0.7367 -0.1408  0.2103
11130TIP3    H154805   1.521   2.367  14.632  1.2284  0.0273 -0.9989
11130TIP3    H254806   1.521   2.227  14.690  0.5067  0.6204  0.5185
11131TIP3   OH254807   2.914   1.771   0.119 -0.2353 -0.2188 -0.7545
11131TIP3    H154808   2.893   1.839   0.183  2.5275  1.8276 -1.8462
11131TIP3    H254809   2.896   1.810   0.034  1.9340 -0.5502 -1.4400
11132TIP3   OH254810   3.123   2.107   1.632 -0.1980 -0.4963  0.3090
11132TIP3    H154811   3.123   2.194   1.592 -0.2574 -0.6493 -0.0271
11132TIP3    H254812   3.060   2.057   1.581 -1.5498 -0.2297  1.6502
11133TIP3   OH254813   2.710   0.285  10.941 -0.5828 -0.0254  1.2297
11133TIP3    H154814   2.618   0.261  10.928 -1.3404  2.6002  1.3366
11133TIP3    H254815   2.740   0.313  10.854  0.0615 -0.5606  1.2671
11134TIP3   OH254816   3.009   5.661  16.823  0.1462 -0.6494 -0.1086
11134TIP3    H154817   2.950   5.674  16.749  0.1238  1.1738  0.1830
11134TIP3    H254818   3.091   5.701  16.796 -0.1480  0.9056  1.1723
11135TIP3   OH254819   4.264   0.958  10.590  0.0343  0.9116 -0.0518
11135TIP3    H154820   4.257   0.868  10.557  1.4751  0.2968  1.2144
11135TIP3    H254821   4.195   0.965  10.656 -0.0733  0.7360 -0.1443
11136TIP3   OH254822   5.958   6.368  16.532 -0.4223 -0.4987  0.3897
11136TIP3    H154823   5.931   6.295  16.476 -1.4616  0.3976 -0.3130
11136TIP3    H254824   5.889   6.376  16.598  0.6419 -1.3505  1.6682
11137TIP3   OH254825   6.042   2.400   2.199 -0.1029 -0.2469  0.4366
11137TIP3    H154826   5.956   2.392   2.158  0.2939  0.1661 -0.5162
11137TIP3    H254827   6.065   2.310   2.223  0.6940 -0.9535 -2.5231
11138TIP3   OH254828   1.380   1.172  10.894  0.0053 -0.2421 -0.5185
11138TIP3    H154829   1.389   1.094  10.840 -0.1673  0.9000 -2.2901
11138TIP3    H254830   1.290   1.202  10.880 -0.4627 -0.6044  1.4408
11139TIP3   OH254831   1.633   2.032   2.343  0.1583  0.2142  0.1969
11139TIP3    H154832   1.575   1.987   2.405  1.7384  0.6372  2.0804
11139TIP3    H254833   1.584   2.110   2.317 -0.4453  0.1840  1.1658
11140TIP3   OH254834   4.306   4.097   2.032 -0.0590  0.7542 -0.0713
11140TIP3    H154835   4.271   4.115   2.119  2.4196 -0.3089  1.2310
11140TIP3    H254836   4.233   4.114   1.973 -2.3030 -0.0473  2.3181
11141TIP3   OH254837   3.709   1.750   0.804  0.0495 -0.0670 -0.6951
11141TIP3    H154838   3.622   1.737   0.767 -0.8114 -1.4960  1.6019
11141TIP3    H254839   3.717   1.845   0.812 -1.6903  0.0784 -0.2001
11142TIP3   OH254840   0.376   6.077  13.850 -0.1057 -0.1272 -0.2443
11142TIP3    H154841   0.287   6.069  13.815  0.1938 -1.2557 -0.7726
11142TIP3    H254842   0.377   6.163  13.893 -1.3303  0.0630 -0.5640
11143TIP3   OH254843   0.751   5.110   5.596 -0.0410  0.0244 -0.2315
11143TIP3    H154844   0.708   5.129   5.680  0.8031 -0.4552  0.3184
11143TIP3    H254845   0.735   5.017   5.581 -1.8139  0.4858 -1.5681
11144TIP3   OH254846   3.222   3.998   2.419 -0.0951 -0.1655  0.7646
11144TIP3    H154847   3.144   4.038   2.380  0.0068  0.3712  1.1055
11144TIP3    H254848   3.237   4.047   2.500  0.4644 -0.4177  0.8200
11145TIP3   OH254849   5.549   5.776   0.551  0.4973 -0.0806 -0.7726
11145TIP3    H154850   5.577   5.686   0.570 -0.4154 -1.1237 -3.8256
11145TIP3    H254851   5.460   5.781   0.588  1.3811  0.4147  1.4335
11146TIP3   OH254852   1.682   0.117   5.914  0.0096  0.2357 -0.0169
11146TIP3    H154853   1.719   0.090   5.998 -1.0412 -0.7681  0.1591
11146TIP3    H254854   1.613   0.179   5.938  0.9268  1.3646 -0.2719
11147TIP3   OH254855   4.166   2.875   1.812  0.2871 -0.4789  0.8265
11147TIP3    H154856   4.180   2.968   1.828 -1.3754  0.0627 -0.5637
11147TIP3    H254857   4.110   2.872   1.734  0.4840 -2.6514  0.7033
11148TIP3   OH254858   5.008   0.624   0.853  0.1072  0.2361 -0.4787
11148TIP3    H154859   5.041   0.566   0.921  0.3029  0.1222 -0.6684
11148TIP3    H254860   5.074   0.694   0.847  0.0215  0.3192 -0.4567
11149TIP3   OH254861   4.891   6.575   0.161 -0.1569  0.8593 -0.3334
11149TIP3    H154862   4.847   6.654   0.129  0.9442  1.4468 -0.4826
11149TIP3    H254863   4.984   6.591   0.142  0.2057 -0.0019  0.6393
11150TIP3   OH254864   1.420   4.461   2.330 -0.2275 -0.1508  0.1687
11150TIP3    H154865   1.327   4.442   2.341 -0.2766  0.4945  1.0297
11150TIP3    H254866   1.465   4.385   2.368 -0.3660 -1.2543 -1.7540
11151TIP3   OH254867   4.793   6.361   0.303 -0.4103  0.0763  0.2956
11151TIP3    H154868   4.755   6.312   0.230  2.0124  0.6480 -1.4929
11151TIP3    H254869   4.817   6.446   0.265 -0.2462  0.8941  2.1153
11152TIP3   OH254870   6.109   6.381  14.150 -0.4350  0.1235 -0.8768
11152TIP3    H154871   6.047   6.418  14.087  0.9723  0.6104 -2.0017
11152TIP3    H254872   6.078   6.290  14.161 -1.2675  0.3091 -1.5142
11153TIP3   OH254873   3.168   2.332  14.598  0.3588  0.8293  0.2203
11153TIP3    H154874   3.258   2.315  14.624 -0.2802 -2.8270  0.5252
11153TIP3    H254875   3.175   2.395  14.527  3.0261  1.4927  0.9675
11154TIP3   OH254876   2.382   1.936  14.047 -0.2464 -0.0524 -0.3967
11154TIP3    H154877   2.309   1.996  14.033  0.6185  1.0618 -0.3001
11154TIP3    H254878   2.433   1.939  13.966 -0.4443 -1.0506 -0.5778
11155TIP3   OH254879   4.295   4.913   3.776 -0.3185 -0.2942  0.4988
11155TIP3    H154880   4.212   4.880   3.743 -1.0903 -0.3735  2.3858
11155TIP3    H254881   4.353   4.836   3.777  0.3365  0.0630 -2.2623
11156TIP3   OH254882   2.346   0.551  11.976 -0.1889  0.4696  0.0283
11156TIP3    H154883   2.296   0.550  11.894  0.0837  0.1157 -0.1372
11156TIP3    H254884   2.388   0.465  11.979 -0.8596  0.1521  0.9549
11157TIP3   OH254885   6.033   0.845  13.948 -0.2520 -0.6052  0.3168
11157TIP3    H154886   6.044   0.862  13.854 -3.9359  1.2473  0.0267
11157TIP3    H254887   6.071   0.922  13.990 -0.8748 -0.1896  0.1387
11158TIP3   OH254888   4.032   0.724   5.375 -0.0412  0.1968  0.2989
11158TIP3    H154889   4.080   0.641   5.378 -0.3317 -0.0812 -1.4497
11158TIP3    H254890   3.964   0.716   5.443 -0.4631 -1.2727 -0.2663
11159TIP3   OH254891   0.455   5.364   1.395  0.3207 -0.0341  0.0208
11159TIP3    H154892   0.404   5.294   1.437 -0.4169  1.5731  1.9367
11159TIP3    H254893   0.485   5.419   1.467  1.5235  1.2387 -1.3765
11160TIP3   OH254894   1.329   4.650  16.872 -0.2969 -0.2416  0.2797
11160TIP3    H154895   1.254   4.607  16.914 -0.4760 -2.2321 -1.8924
11160TIP3    H254896   1.396   4.581  16.868 -1.3239 -1.3697 -5.2791
11161TIP3   OH254897   1.340   6.619   2.250 -0.4153 -1.0480 -0.4217
11161TIP3    H154898   1.393   6.695   2.274 -1.9938 -0.6810  2.3310
11161TIP3    H254899   1.402   6.560   2.206  0.9716  1.5265 -2.1560
11162TIP3   OH254900   5.328   6.292   2.244  0.0463 -0.4767  0.6594
11162TIP3    H154901   5.357   6.379   2.273 -0.5901  0.2076 -0.6420
11162TIP3    H254902   5.409   6.248   2.218  0.3940 -0.3373  1.4863
11163TIP3   OH254903   2.671   2.412  16.678  0.0646 -0.0143 -0.7283
11163TIP3    H154904   2.617   2.491  16.679 -1.3872 -0.9550  0.2105
11163TIP3    H254905   2.608   2.340  16.674  1.1111 -1.2188  1.7990
11164TIP3   OH254906   3.977   3.030   3.195 -0.3229  0.4701 -0.2814
11164TIP3    H154907   3.947   3.072   3.276  0.2029 -0.4619  0.4058
11164TIP3    H254908   3.950   3.091   3.126  0.6258  2.0578  0.6990
11165TIP3   OH254909   1.425   4.365  11.955  0.7183  0.0577 -0.3902
11165TIP3    H154910   1.362   4.318  11.901  0.9395  0.3128 -0.8837
11165TIP3    H254911   1.408   4.458  11.937  0.6234  0.1532  0.1789
11166TIP3   OH254912   4.072   5.793  13.946 -0.5698 -0.0089 -0.2447
11166TIP3    H154913   4.081   5.767  14.037 -0.8514  0.1484 -0.1690
11166TIP3    H254914   4.134   5.865  13.934  0.1021 -0.6045 -0.4133
11167TIP3   OH254915   5.258   1.817  11.701 -0.8132  0.0575  0.2322
11167TIP3    H154916   5.179   1.779  11.662 -0.2860  0.2623 -1.0787
11167TIP3    H254917   5.274   1.763  11.778 -2.9484  0.8091  1.3015
11168TIP3   OH254918   5.524   5.409  13.058 -0.4641 -0.4556 -0.0015
11168TIP3    H154919   5.531   5.417  13.153 -0.8009  1.6213 -0.1063
11168TIP3    H254920   5.614   5.407  13.027 -0.3229 -2.6462  0.4119
11169TIP3   OH254921   0.736   3.892  11.759  0.0340 -0.5153 -0.0632
11169TIP3    H154922   0.803   3.906  11.692 -1.4811  0.2468 -1.5041
11169TIP3    H254923   0.785   3.875  11.839  1.9706  1.3636 -0.7550
11170TIP3   OH254924   0.130   0.018  11.809  0.4453  0.5519 -0.3123
11170TIP3    H154925   0.067  -0.000  11.879  1.6473 -1.6685  0.3005
11170TIP3    H254926   0.093   0.091  11.761 -1.4428  0.8019  1.4130
11171TIP3   OH254927   4.917   1.727   0.273  0.7831 -0.1442 -0.3213
11171TIP3    H154928   4.955   1.681   0.348 -0.2037  0.5976  0.6716
11171TIP3    H254929   4.891   1.812   0.308  0.7444  0.4038 -1.6323
11172TIP3   OH254930   2.545   1.049  16.369 -0.3771  0.4026  0.1345
11172TIP3    H154931   2.558   0.976  16.309 -1.5771 -0.3814  0.7732
11172TIP3    H254932   2.618   1.109  16.352  0.9529 -1.2010 -0.0127
11173TIP3   OH254933   4.755   2.371   0.818  0.1335  0.1321 -0.0607
11173TIP3    H154934   4.669   2.401   0.786  0.2611 -1.1299 -1.7186
11173TIP3    H254935   4.809   2.450   0.820 -0.0765  0.3989 -2.4652
11174TIP3   OH254936   4.459   4.027  15.490  0.1989  0.1244 -0.2037
11174TIP3    H154937   4.438   3.955  15.550 -2.6613  1.2429  0.2874
11174TIP3    H254938   4.374   4.058  15.459  1.4983  0.5250 -3.8144
11175TIP3   OH254939   5.601   4.689   0.158  0.7457  0.3985 -0.0523
11175TIP3    H154940   5.668   4.741   0.202  0.3425  0.8163  0.0693
11175TIP3    H254941   5.522   4.743   0.161  0.9700  0.9303 -2.2990
11176TIP3   OH254942   3.537   0.300  16.500  0.4532 -0.5868 -0.0630
11176TIP3    H154943   3.466   0.350  16.540 -0.8135 -2.0060 -0.4885
11176TIP3    H254944   3.508   0.282  16.411  2.1235  0.2788 -0.8507
11177TIP3   OH254945   3.898   5.980  15.745  0.6404 -0.2396  0.3564
11177TIP3    H154946   3.807   5.986  15.717  0.1300 -1.3309  1.6735
11177TIP3    H254947   3.935   6.066  15.727 -0.1018 -0.3525 -2.0055
11178TIP3   OH254948   6.418   4.623   4.131  0.6172  0.1968  0.0116
11178TIP3    H154949   6.457   4.688   4.071  0.8661 -0.0026 -0.0461
11178TIP3    H254950   6.331   4.606   4.094  1.2367 -0.8650 -1.0313
11179TIP3   OH254951   0.319   0.608   2.272  0.0623 -0.9354  0.6445
11179TIP3    H154952   0.403   0.636   2.236 -0.2386 -0.3369  0.4021
11179TIP3    H254953   0.327   0.513   2.280  0.5170 -0.9568 -0.0045
11180TIP3   OH254954   3.263   2.894  14.774 -0.4443  0.1053  0.2349
11180TIP3    H154955   3.208   2.928  14.845 -1.9529 -2.8566  0.6304
11180TIP3    H254956   3.221   2.813  14.748  3.9878 -2.7645  0.9654
11181TIP3   OH254957   5.195   1.277  14.128 -0.1262 -1.2928 -0.7290
11181TIP3    H154958   5.185   1.311  14.040  1.4928  4.0515  0.7837
11181TIP3    H254959   5.122   1.316  14.177  0.5845 -1.8237  0.8131
11182TIP3   OH254960   2.854   4.893  14.239 -0.8212  0.1914  0.3302
11182TIP3    H154961   2.772   4.905  14.287 -0.6621  1.0639  0.4116
11182TIP3    H254962   2.877   4.982  14.211  0.1884 -0.0240  0.4655
11183TIP3   OH254963   6.409   6.485  11.716 -0.6617 -0.5579 -0.2964
11183TIP3    H154964   6.341   6.552  11.703  0.1398  0.3056 -0.1229
11183TIP3    H254965   6.400   6.428  11.640 -1.4819 -0.3623 -0.3600
11184TIP3   OH254966   5.429   3.971   2.572  0.0445 -0.3278  0.2517
11184TIP3    H154967   5.371   3.994   2.500 -1.0798  0.0923  1.2697
11184TIP3    H254968   5.458   4.055   2.607 -0.7940 -0.4978  1.3773
11185TIP3   OH254969   6.584   1.665   2.032 -0.5366  0.2634 -0.1929
11185TIP3    H154970   6.537   1.593   1.991 -0.8631  0.1820  0.3193
11185TIP3    H254971   6.620   1.627   2.112  0.1032  0.4171 -0.4026
11186TIP3   OH254972   6.400   3.049   0.839  0.3080  0.1706 -0.5561
11186TIP3    H154973   6.470   3.069   0.777  0.8418 -0.3885 -0.1355
11186TIP3    H254974   6.414   3.110   0.912 -0.0908  0.5619 -0.7967
11187TIP3   OH254975   1.061   3.820  16.072 -0.1669  0.0175  1.0239
11187TIP3    H154976   0.984   3.765  16.085 -1.2817  1.0956 -0.5642
11187TIP3    H254977   1.064   3.877  16.149 -1.1155  0.1071  1.0122
11188TIP3   OH254978   1.361   0.536   5.479 -0.5494  0.5699 -0.2358
11188TIP3    H154979   1.292   0.471   5.482  2.0046 -2.3718 -0.1915
11188TIP3    H254980   1.366   0.561   5.387 -1.4851  0.6408 -0.2758
11189TIP3   OH254981   4.315   5.290   4.346  0.2203  0.1945  0.4707
11189TIP3    H154982   4.378   5.218   4.346 -0.0811 -0.4176  5.1891
11189TIP3    H254983   4.368   5.369   4.356  0.3871  0.1246  0.1389
11190TIP3   OH254984   6.402   5.452   2.147 -0.1129 -0.0676 -0.1298
11190TIP3    H154985   6.471   5.413   2.201 -1.0613 -0.4233  0.8588
11190TIP3    H254986   6.415   5.547   2.157  1.8610 -0.0572 -2.1088
11191TIP3   OH254987   5.653   5.394   3.012  0.3137 -0.0413 -0.3281
11191TIP3    H154988   5.663   5.415   3.105  2.1572  0.6542 -0.6434
11191TIP3    H254989   5.678   5.302   3.005 -2.2656 -0.8706  0.1861
11192TIP3   OH254990   5.643   5.587  11.273  0.3995 -0.6558  0.2289
11192TIP3    H154991   5.565   5.593  11.327  0.0640  0.9074 -0.3625
11192TIP3    H254992   5.707   5.541  11.327 -0.8644 -1.8541  0.7691
11193TIP3   OH254993   0.124   0.023  11.468  0.5671  0.3728 -0.3992
11193TIP3    H154994   0.048   0.006  11.525  0.3713  0.1109 -0.7372
11193TIP3    H254995   0.085   0.042  11.383  0.8869  0.2241 -0.5757
11194TIP3   OH254996   6.194   0.511  13.048  0.0832  0.7205  0.3631
11194TIP3    H154997   6.186   0.454  12.972  0.7712  2.3562 -0.9823
11194TIP3    H254998   6.111   0.559  13.051  0.0826  0.7071  0.6181
11195TIP3   OH254999   3.512   0.706  13.103  0.2044 -0.9410  0.0913
11195TIP3    H155000   3.537   0.623  13.144  2.0086 -1.0971 -1.1905
11195TIP3    H255001   3.596   0.748  13.081 -0.6826  0.3151 -1.0611
11196TIP3   OH255002   1.641   3.799  11.613  0.0681 -0.5607 -0.5765
11196TIP3    H155003   1.662   3.847  11.533 -0.0957  0.4287 -0.0436
11196TIP3    H255004   1.656   3.862  11.683 -0.8225 -1.0688  0.0947
11197TIP3   OH255005   3.932   5.732  11.419  0.6969  0.2741 -0.1175
11197TIP3    H155006   3.983   5.658  11.452  0.0277  0.3518  1.1205
11197TIP3    H255007   3.998   5.792  11.382  1.3170 -0.5142 -0.3026
11198TIP3   OH255008   4.123   6.141   0.642  0.5351 -0.0463 -0.2108
11198TIP3    H155009   4.130   6.098   0.727 -0.6697  3.1218  1.6847
11198TIP3    H255010   4.063   6.214   0.657  0.5105  0.8574 -3.7431
11199TIP3   OH255011   4.864   5.658  11.727 -0.1184  0.1958 -0.2668
11199TIP3    H155012   4.813   5.577  11.734  1.0461 -0.5933 -0.6531
11199TIP3    H255013   4.944   5.640  11.777  0.2462  1.0414 -0.5324
11200TIP3   OH255014   6.511   1.489  11.850  0.6086  0.1110  0.2235
11200TIP3    H155015   6.509   1.584  11.859  1.8693  0.0026  2.3053
11200TIP3    H255016   6.422   1.461  11.868  0.5365  0.8219  1.0209
11201TIP3   OH255017   4.730   2.100  12.215 -0.2907 -0.0313 -0.5401
11201TIP3    H155018   4.678   2.180  12.222  0.5702  0.4041  1.6643
11201TIP3    H255019   4.760   2.083  12.305  3.0806 -0.4446 -1.6148
11202TIP3   OH255020   1.366   5.786   4.272 -0.5292  0.2156 -0.0238
11202TIP3    H155021   1.426   5.715   4.291  1.9812  1.9022 -1.1766
11202TIP3    H255022   1.286   5.764   4.320  0.8900 -2.2581  1.3468
11203TIP3   OH255023   2.885   5.984  12.366 -0.7957  0.5996 -0.2701
11203TIP3    H155024   2.945   6.055  12.388 -1.6110  1.1137  0.3807
11203TIP3    H255025   2.927   5.905  12.399  0.7158  0.5710 -2.1234
11204TIP3   OH255026   2.663   3.777  14.087 -0.2696  0.2407 -0.1370
11204TIP3    H155027   2.582   3.818  14.115  0.7559 -0.0127  3.7520
11204TIP3    H255028   2.652   3.684  14.107  0.4343 -0.0474 -1.0034
11205TIP3   OH255029   2.922   2.295  15.256  0.4313  0.1177  0.1364
11205TIP3    H155030   2.839   2.253  15.232  0.3490 -1.1641  2.4466
11205TIP3    H255031   2.896   2.367  15.314  0.8845  0.2893  0.1286
11206TIP3   OH255032   1.423   1.592   4.988  0.1892 -0.3767  0.2894
11206TIP3    H155033   1.348   1.597   5.047  0.4461 -0.6658  0.6490
11206TIP3    H255034   1.484   1.657   5.021  0.4308 -0.7004  0.4881
11207TIP3   OH255035   6.037   4.918   2.023 -0.5079 -0.0329  0.2980
11207TIP3    H155036   5.964   4.978   2.035 -0.3670  0.2544 -0.2251
11207TIP3    H255037   6.016   4.871   1.942  0.1106  0.3848 -0.1128
11208TIP3   OH255038   6.153   2.502  16.867 -0.0189  0.2835 -0.0318
11208TIP3    H155039   6.178   2.427  16.813 -2.0314  0.4905 -1.3617
11208TIP3    H255040   6.177   2.578  16.814 -2.8265  0.4893 -1.1916
11209TIP3   OH255041   5.304   1.681  16.940  1.0262 -0.3861 -0.8324
11209TIP3    H155042   5.216   1.707  16.968  1.7298  1.9525 -0.5203
11209TIP3    H255043   5.319   1.596  16.980 -0.2828  0.1662  0.9207
11210TIP3   OH255044   5.422   6.131  15.128 -0.2274  0.5038  0.3429
11210TIP3    H155045   5.348   6.180  15.163  0.2356  1.4858 -0.0267
11210TIP3    H255046   5.387   6.087  15.050 -0.2813  1.4523 -0.1774
11211TIP3   OH255047   3.962   1.981   1.053  0.3386 -0.3946  0.0058
11211TIP3    H155048   4.031   1.963   0.988  1.4018  1.0867  0.6859
11211TIP3    H255049   3.992   1.936   1.132 -0.3984 -1.2409 -0.1719
11212TIP3   OH255050   1.100   1.723   0.360  0.0235  0.1746 -0.0648
11212TIP3    H155051   1.025   1.742   0.417 -1.3703 -1.0862 -1.3634
11212TIP3    H255052   1.118   1.630   0.375 -1.7498 -0.8031 -3.0393
11213TIP3   OH255053   5.761   1.763   0.849  0.2590  0.0732 -0.5554
11213TIP3    H155054   5.669   1.741   0.863  0.4228  0.0609  0.5499
11213TIP3    H255055   5.764   1.792   0.758 -0.9883  0.8525 -0.3785
11214TIP3   OH255056   3.395   3.356  15.009  0.2088 -0.3663  0.5324
11214TIP3    H155057   3.423   3.313  14.928  1.0791 -0.4886  0.8936
11214TIP3    H255058   3.329   3.296  15.045  0.4887 -0.7671  0.3885
11215TIP3   OH255059   0.449   5.649   1.178 -0.1476 -0.1738 -0.2220
11215TIP3    H155060   0.433   5.556   1.193 -0.7725  0.0869  0.8404
11215TIP3    H255061   0.442   5.660   1.083  1.0215 -1.3940 -0.4704
11216TIP3   OH255062   0.346   6.371  11.960  0.0724  0.3581 -0.1603
11216TIP3    H155063   0.437   6.345  11.944 -0.0507  0.5762 -1.3301
11216TIP3    H255064   0.333   6.448  11.904 -1.1734 -0.3613 -0.8938
11217TIP3   OH255065   6.012   1.341  16.049  0.0887 -0.0392 -0.5170
11217TIP3    H155066   6.043   1.275  16.111 -0.7323  0.1931  0.1476
11217TIP3    H255067   5.949   1.393  16.098  1.3532  1.8061 -0.7551
11218TIP3   OH255068   1.177   4.109  12.476 -0.1488 -0.5416  0.3244
11218TIP3    H155069   1.221   4.089  12.559 -1.7451 -0.9432  1.1029
11218TIP3    H255070   1.224   4.056  12.411  1.9036  0.6938  0.7156
11219TIP3   OH255071   1.068   6.009  11.082 -0.5529 -0.4403  0.8384
11219TIP3    H155072   1.064   5.921  11.044  0.2806 -0.5441  0.9734
11219TIP3    H255073   1.090   6.066  11.009 -0.6850 -0.3944  0.8329
11220TIP3   OH255074   1.672   6.752  14.646 -0.2536  0.3708 -0.6847
11220TIP3    H155075   1.644   6.665  14.674 -0.0823  0.5639  0.1307
11220TIP3    H255076   1.766   6.744  14.633  0.1876  0.9489  1.6213
11221TIP3   OH255077   1.440   1.215  13.568 -0.5547 -0.3698  0.3866
11221TIP3    H155078   1.463   1.122  13.574 -1.9958 -0.9444 -1.8955
11221TIP3    H255079   1.471   1.243  13.482  0.2118  1.4246  1.1909
11222TIP3   OH255080   5.676   3.886  12.218  0.4834  0.3234 -0.0386
11222TIP3    H155081   5.699   3.827  12.146 -0.0025  2.7696 -2.3368
11222TIP3    H255082   5.758   3.930  12.240  0.4247  0.2997  0.2354
11223TIP3   OH255083   2.075   1.078   5.712  0.1061 -0.0594 -0.3259
11223TIP3    H155084   2.024   1.030   5.778 -0.1931  0.7542  0.0402
11223TIP3    H255085   2.047   1.040   5.629 -0.0039 -0.6396 -0.0326
11224TIP3   OH255086   3.908   5.801   1.195 -0.2343 -0.0218 -0.1947
11224TIP3    H155087   3.858   5.883   1.197  0.1897  0.2317  0.8304
11224TIP3    H255088   3.850   5.737   1.237 -1.0849 -0.5829 -2.1340
11225TIP3   OH255089   4.087   5.262  11.127  0.0249  0.5265  0.3359
11225TIP3    H155090   4.052   5.248  11.215 -0.4263 -0.6877 -0.0155
11225TIP3    H255091   4.011   5.285  11.074  0.2573  1.0142  0.2065
11226TIP3   OH255092   4.558   6.338  15.438  0.3311  0.0429 -0.5105
11226TIP3    H155093   4.487   6.365  15.379 -0.7815  1.2126  1.2534
11226TIP3    H255094   4.513   6.306  15.517  1.7666 -0.7934  0.0092
11227TIP3   OH255095   2.961   5.353  15.321  0.6039 -0.4588 -0.4044
11227TIP3    H155096   2.879   5.386  15.286 -0.0510 -1.3976  0.1873
11227TIP3    H255097   3.019   5.430  15.324  0.0973  0.0056 -1.7699
11228TIP3   OH255098   0.597   4.800  16.266  0.4207  0.3443 -0.1851
11228TIP3    H155099   0.547   4.828  16.190 -0.5404 -0.1960  0.2239
11228TIP3    H255100   0.623   4.881  16.310 -2.5734  0.7148  1.1609
11229TIP3   OH255101   2.786   0.316  16.116 -0.1141 -0.3061 -0.4855
11229TIP3    H155102   2.695   0.294  16.135  0.0364  0.3312  1.1099
11229TIP3    H255103   2.829   0.232  16.098 -0.8313 -0.6775 -0.4676
11230TIP3   OH255104   6.049   3.536  16.388  0.1107  0.4256  0.1931
11230TIP3    H155105   6.096   3.598  16.444  1.7415 -0.5995  0.0477
11230TIP3    H255106   5.971   3.512  16.438 -0.1025  1.9094  0.6214
11231TIP3   OH255107   1.263   0.254  11.478  0.1441  0.2951  0.3497
11231TIP3    H155108   1.358   0.257  11.477  0.1619 -0.3640 -0.6914
11231TIP3    H255109   1.237   0.342  11.508  1.0445  1.4890 -2.1375
11232TIP3   OH255110   1.200   2.975  11.674 -0.0957  0.1467  0.4701
11232TIP3    H155111   1.210   2.948  11.765  0.0526 -2.3018 -0.2202
11232TIP3    H255112   1.117   2.935  11.646  0.6247 -0.4425 -0.9069
11233TIP3   OH255113   2.303   2.514   4.075 -0.3941  0.2356 -0.1833
11233TIP3    H155114   2.379   2.488   4.126  0.6790  4.2123  0.6234
11233TIP3    H255115   2.324   2.491   3.985  0.3012 -1.5479  0.3957
11234TIP3   OH255116   0.638   1.913   5.378  0.1231  0.1765  0.1610
11234TIP3    H155117   0.566   1.876   5.327  0.8049  0.9625 -1.4508
11234TIP3    H255118   0.641   2.006   5.353  1.0518  0.3969  0.9767
11235TIP3   OH255119   3.451   1.819   1.732 -0.3566  0.2330  0.2731
11235TIP3    H155120   3.426   1.910   1.746  0.9376  0.4950  0.9962
11235TIP3    H255121   3.488   1.791   1.815  0.3478 -0.5954 -0.3026
11236TIP3   OH255122   6.498   0.626   2.591  0.2273 -0.2257 -0.1874
11236TIP3    H155123   6.487   0.716   2.621 -0.0143 -1.0336  2.3591
11236TIP3    H255124   6.410   0.596   2.571  0.1705 -0.2872  0.1597
11237TIP3   OH255125   4.285   4.813  15.421  0.3257  0.2886 -0.2262
11237TIP3    H155126   4.268   4.745  15.486 -0.8555  1.6931  1.0102
11237TIP3    H255127   4.337   4.878  15.468  2.5263 -0.2674 -1.7365
11238TIP3   OH255128   3.827   4.210  16.818  0.0072  0.1187 -0.4445
11238TIP3    H155129   3.755   4.204  16.755 -0.0303  0.4763 -0.4358
11238TIP3    H255130   3.901   4.168  16.772  0.0224  0.5180 -0.7935
11239TIP3   OH255131   3.461   0.426  10.443  0.1297 -0.0065  0.2131
11239TIP3    H155132   3.443   0.345  10.491 -0.7921 -1.4493 -2.4255
11239TIP3    H255133   3.375   0.468  10.434  0.3624  0.4632  0.1629
11240TIP3   OH255134   0.683   5.749  13.776  0.4069  0.4045  0.2624
11240TIP3    H155135   0.715   5.663  13.804 -0.7378  0.0109  0.3833
11240TIP3    H255136   0.611   5.769  13.835 -0.7950  0.4303 -1.1602
11241TIP3   OH255137   0.871   3.310  14.391 -0.0478 -0.1359 -0.0894
11241TIP3    H155138   0.886   3.405  14.397  0.0051 -0.1230 -0.3794
11241TIP3    H255139   0.895   3.276  14.476  0.8172 -0.0046 -0.2781
11242TIP3   OH255140   4.230   1.376  14.415  0.2695  0.2391  0.2688
11242TIP3    H155141   4.216   1.449  14.355 -2.2377  0.1466  0.6137
11242TIP3    H255142   4.172   1.395  14.489  0.6711 -1.3681  1.0488
11243TIP3   OH255143   6.044   5.770  16.914  0.4685 -0.0663  0.7943
11243TIP3    H155144   6.115   5.706  16.911 -0.0805 -0.9036  3.1932
11243TIP3    H255145   6.066   5.834  16.847  0.4723 -3.2735 -2.6214
11244TIP3   OH255146   2.463   4.189   0.776 -0.2478 -0.1856 -0.3168
11244TIP3    H155147   2.390   4.131   0.753 -1.9217  0.7929  2.1173
11244TIP3    H255148   2.424   4.253   0.835  1.6165  3.1478 -2.4158
11245TIP3   OH255149   4.023   3.428  10.148 -0.1840 -0.3484  0.4085
11245TIP3    H155150   3.943   3.399  10.191 -0.3195 -1.2855 -0.4389
11245TIP3    H255151   4.006   3.519  10.124 -0.8137 -0.3977  0.6476
11246TIP3   OH255152   4.581   4.778  15.744 -0.6795  0.4747  0.8091
11246TIP3    H155153   4.499   4.787  15.793 -0.3670  1.1633  1.2227
11246TIP3    H255154   4.568   4.832  15.666 -0.6896  0.4458  0.7912
11247TIP3   OH255155   3.089   0.937  16.001  0.0341 -0.6224 -0.3007
11247TIP3    H155156   3.150   0.995  16.046  0.1167 -0.3885 -0.7064
11247TIP3    H255157   3.143   0.884  15.943 -0.1424 -0.4413 -0.6338
11248TIP3   OH255158   2.875   4.919   0.677  0.2258 -0.2985 -0.6950
11248TIP3    H155159   2.831   4.898   0.759 -0.2076 -0.3961 -0.9469
11248TIP3    H255160   2.901   5.010   0.686 -0.4301 -0.1037 -0.7138
11249TIP3   OH255161   6.540   3.718  14.568  0.6150 -0.8005 -0.3485
11249TIP3    H155162   6.452   3.746  14.593  1.2738  1.4667 -0.4167
11249TIP3    H255163   6.539   3.720  14.472  0.9838  0.1225 -0.3433
11250TIP3   OH255164   2.714   1.847  14.787 -0.1589  0.6580 -0.2642
11250TIP3    H155165   2.742   1.937  14.805  0.5089  0.5522 -0.7434
11250TIP3    H255166   2.753   1.826  14.702 -0.9591  0.1849 -0.5229
11251TIP3   OH255167   3.894   1.214  16.381 -0.4031 -0.3193  0.1630
11251TIP3    H155168   3.848   1.189  16.302  0.3198  0.7005 -0.6108
11251TIP3    H255169   3.837   1.185  16.453 -1.7023 -0.0674 -0.7342
11252TIP3   OH255170   4.791   5.276  16.358 -0.3011 -0.1344 -0.1130
11252TIP3    H155171   4.739   5.246  16.432 -0.3686  0.6831  0.1819
11252TIP3    H255172   4.877   5.234  16.370 -0.6059 -0.7654 -0.1097
11253TIP3   OH255173   0.107   1.834  12.343 -0.1051  0.7117 -0.2889
11253TIP3    H155174   0.189   1.859  12.299 -0.3009  1.5192 -0.2066
11253TIP3    H255175   0.038   1.856  12.280 -0.4152  2.2408  0.5531
11254TIP3   OH255176   1.446   1.312  11.977 -0.1191 -0.1168  0.5040
11254TIP3    H155177   1.472   1.269  11.895 -2.1257  0.0464 -0.2868
11254TIP3    H255178   1.528   1.328  12.023  0.9229 -2.1146 -0.5109
11255TIP3   OH255179   6.533   3.817   3.841 -0.3996 -0.4284 -0.2351
11255TIP3    H155180   6.509   3.757   3.911 -2.4539 -0.8907 -1.2823
11255TIP3    H255181   6.477   3.893   3.855  0.7510  0.4183 -0.1146
11256TIP3   OH255182   3.729   1.092  15.010 -0.0798  0.2346  0.3647
11256TIP3    H155183   3.700   1.141  14.933  1.6862  0.7739 -0.0182
11256TIP3    H255184   3.787   1.152  15.057  2.0785 -1.3798 -0.0590
11257TIP3   OH255185   1.182   1.857   5.709  0.8827 -0.9290  0.8247
11257TIP3    H155186   1.142   1.867   5.795 -0.4582  1.8520 -0.0224
11257TIP3    H255187   1.226   1.940   5.693  1.6163 -1.6088 -0.9592
11258TIP3   OH255188   5.841   4.201  11.660  0.0120  0.0815  0.4054
11258TIP3    H155189   5.848   4.174  11.569  0.5409  0.1457  0.4258
11258TIP3    H255190   5.824   4.120  11.708 -1.0665  0.1459  0.1712
11259TIP3   OH255191   0.995   0.721   2.992  0.0743  0.0335  1.1045
11259TIP3    H155192   0.984   0.814   3.012  0.4951 -0.0388  1.6876
11259TIP3    H255193   0.933   0.677   3.050 -0.7666 -0.0082  0.2078
11260TIP3   OH255194   4.441   0.654  15.142 -0.3549  0.1938 -0.0718
11260TIP3    H155195   4.528   0.665  15.102 -0.3520  0.4982  0.0193
11260TIP3    H255196   4.401   0.583  15.091  0.3741 -0.7254  0.6053
11261TIP3   OH255197   6.012   0.132   1.056 -0.4054  0.4043  0.1038
11261TIP3    H155198   6.031   0.163   1.145  0.2388 -1.3528  0.6343
11261TIP3    H255199   6.090   0.153   1.006 -0.3000  0.3757  0.2538
11262TIP3   OH255200   5.090   1.352  14.727  0.5120  0.4257 -0.0807
11262TIP3    H155201   5.039   1.357  14.646 -0.8179  0.4399  0.7347
11262TIP3    H255202   5.179   1.334  14.697  0.3972  2.1101 -1.6406
11263TIP3   OH255203   1.569   0.216  11.560 -0.5965 -0.1504  0.4685
11263TIP3    H155204   1.586   0.128  11.525  0.8110  0.5099 -0.6030
11263TIP3    H255205   1.597   0.211  11.652  1.2024 -0.3775 -0.0460
11264TIP3   OH255206   2.433   1.158   5.296  0.6269  0.0711 -0.4490
11264TIP3    H155207   2.451   1.108   5.376 -0.7484 -0.2350 -0.3165
11264TIP3    H255208   2.503   1.225   5.294  1.6579 -0.9545  0.1028
11265TIP3   OH255209   0.327   5.784  16.665  0.0736  0.3385 -0.5121
11265TIP3    H155210   0.310   5.817  16.753  1.4584  0.8824 -0.4165
11265TIP3    H255211   0.240   5.766  16.629 -0.5956  1.4984  0.4350
11266TIP3   OH255212   2.930   3.417   3.161 -0.6104 -0.0400  0.0438
11266TIP3    H155213   2.980   3.348   3.117 -0.2742 -1.0687  1.8963
11266TIP3    H255214   2.965   3.418   3.250 -1.9461  1.2176  0.5973
11267TIP3   OH255215   3.044   1.228  12.941 -0.4265 -0.9850  0.0419
11267TIP3    H155216   3.085   1.314  12.929 -0.1846 -1.2221 -0.9090
11267TIP3    H255217   3.085   1.173  12.874  1.1934 -2.4801  2.1198
11268TIP3   OH255218   2.311   3.952  15.050 -0.4082  0.2152 -0.9913
11268TIP3    H155219   2.382   3.996  15.002 -0.5091  1.6266  0.0775
11268TIP3    H255220   2.284   4.016  15.116 -0.4237 -1.5576  0.8014
11269TIP3   OH255221   1.507   5.689  11.965 -0.2875 -0.2270  0.0208
11269TIP3    H155222   1.598   5.712  11.982  1.5056 -4.3287 -2.5111
11269TIP3    H255223   1.489   5.725  11.879 -0.5277 -0.7360 -0.1435
11270TIP3   OH255224   3.795   1.200  17.039  0.2283  0.3749  0.1055
11270TIP3    H155225   3.778   1.289  17.007  0.2449  0.8755  1.4210
11270TIP3    H255226   3.860   1.165  16.978 -0.7502  0.7606 -1.2179
11271TIP3   OH255227   1.921   0.414  12.468 -0.0202  0.3316 -0.3661
11271TIP3    H155228   1.858   0.467  12.419 -2.8747 -2.0099  0.4304
11271TIP3    H255229   1.939   0.464  12.547 -1.8099  0.6198 -0.1008
11272TIP3   OH255230   1.943   1.401   3.544  0.6855 -0.0500  0.0793
11272TIP3    H155231   1.915   1.410   3.636  0.4837  0.2749 -0.0126
11272TIP3    H255232   2.003   1.326   3.545 -0.3550 -0.9135  0.2525
11273TIP3   OH255233   1.313   2.052   3.986 -0.9149  0.1530 -0.4220
11273TIP3    H155234   1.317   2.106   4.065 -1.0569 -0.3748 -0.0569
11273TIP3    H255235   1.387   1.993   3.993 -1.1899 -0.1968 -0.4694
11274TIP3   OH255236   5.119   3.546  11.201 -0.1363  0.4051 -0.3327
11274TIP3    H155237   5.160   3.610  11.142 -0.6321  0.6540 -0.4127
11274TIP3    H255238   5.028   3.575  11.207 -0.0623  0.4565  0.6601
11275TIP3   OH255239   1.529   2.663  12.163  0.1712 -0.0542  0.4292
11275TIP3    H155240   1.514   2.612  12.083  0.6495  0.2581  0.1366
11275TIP3    H255241   1.513   2.601  12.234 -1.6215  0.0181  0.1375
11276TIP3   OH255242   6.086   4.263   0.575  0.2464  0.2130 -0.2167
11276TIP3    H155243   5.997   4.284   0.549 -0.2699  1.7485  2.4602
11276TIP3    H255244   6.076   4.198   0.645  1.3879 -1.2970 -1.3806
11277TIP3   OH255245   0.144   1.498  14.924  0.1200  0.1103  0.1511
11277TIP3    H155246   0.123   1.463  15.011 -0.2682 -0.2651 -0.0902
11277TIP3    H255247   0.067   1.549  14.899 -0.1031 -0.4389 -0.3078
11278TIP3   OH255248   5.156   6.302  12.871 -0.3918  0.3524 -1.1074
11278TIP3    H155249   5.168   6.216  12.829 -1.8664  0.7438 -2.4128
11278TIP3    H255250   5.064   6.323  12.857 -1.0448  0.4723  2.5669
11279TIP3   OH255251   2.430   1.025  12.586  0.0419 -0.2529  0.3193
11279TIP3    H155252   2.355   1.008  12.643  0.0437  1.5220  0.8844
11279TIP3    H255253   2.414   1.111  12.550  1.7283  0.0908  0.3222
11280TIP3   OH255254   1.434   1.107   2.985 -0.4107 -0.1588  0.4297
11280TIP3    H155255   1.488   1.070   3.055  2.5298 -0.4204 -1.7808
11280TIP3    H255256   1.360   1.047   2.978  1.2168 -2.3516  0.7988
11281TIP3   OH255257   5.764   1.426  13.716  0.0006 -0.0204  0.0008
11281TIP3    H155258   5.857   1.442  13.699  0.0611 -0.9832 -0.6589
11281TIP3    H255259   5.752   1.333  13.698 -0.6682 -0.3900  2.0726
11282TIP3   OH255260   6.645   5.433  15.569  0.3044  0.1315  0.6322
11282TIP3    H155261   6.588   5.360  15.593  0.0827  0.2381  0.4436
11282TIP3    H255262   6.709   5.396  15.508 -1.0927  0.4948 -1.1672
11283TIP3   OH255263   4.500   5.611   3.376  0.7059  0.5279  0.5682
11283TIP3    H155264   4.575   5.665   3.398  0.3559  1.4884 -0.4810
11283TIP3    H255265   4.536   5.535   3.331  1.0204  1.1863 -0.2942
11284TIP3   OH255266   6.135   4.273  13.821 -0.0273  0.5642  0.4523
11284TIP3    H155267   6.124   4.181  13.799 -1.8631  0.8859 -0.1338
11284TIP3    H255268   6.062   4.293  13.879 -0.9943  2.1640 -1.2109
11285TIP3   OH255269   3.940   4.569  14.736 -0.1914 -0.0032 -0.1348
11285TIP3    H155270   3.964   4.477  14.751  0.0682  0.1351  0.3207
11285TIP3    H255271   3.845   4.571  14.749  0.0493  0.1973  2.1457
11286TIP3   OH255272   3.294   0.481   1.598  0.1447  0.8612  0.3461
11286TIP3    H155273   3.227   0.526   1.546  0.8240  0.6499 -0.7547
11286TIP3    H255274   3.376   0.526   1.575  0.1650  2.5326  3.2699
11287TIP3   OH255275   6.188   3.087  16.465  1.0087  0.2187  0.6699
11287TIP3    H155276   6.252   3.016  16.464  0.0002 -0.7315  0.9973
11287TIP3    H255277   6.224   3.154  16.407  1.3025 -1.1872 -0.8210
11288TIP3   OH255278   0.977   4.239  15.080 -0.2783 -0.7889  0.7758
11288TIP3    H155279   1.006   4.315  15.030 -1.2311 -0.4568  0.7087
11288TIP3    H255280   0.882   4.251  15.089 -0.4597 -2.0477  0.6380
11289TIP3   OH255281   2.660   5.043  12.743  0.1332 -0.0680  0.1878
11289TIP3    H155282   2.683   5.129  12.707 -0.1735 -0.9650 -2.3791
11289TIP3    H255283   2.744   5.004  12.766  0.3090  0.7314  0.9572
11290TIP3   OH255284   1.369   0.562   0.577  0.2530  0.3645  0.3622
11290TIP3    H155285   1.449   0.581   0.529  1.5056 -2.9313  0.8604
11290TIP3    H255286   1.394   0.569   0.669 -0.3981  0.5879  0.5280
11291TIP3   OH255287   5.802   3.753  11.263  0.2122 -0.3266  0.0618
11291TIP3    H155288   5.758   3.755  11.348  0.2499  2.5502  0.1072
11291TIP3    H255289   5.733   3.733  11.200 -0.3627  0.1837  0.5248
11292TIP3   OH255290   3.455   1.235  15.918  0.0615 -0.2428 -0.8255
11292TIP3    H155291   3.388   1.239  15.986  1.0120 -0.6680  0.1766
11292TIP3    H255292   3.430   1.161  15.863 -0.1065 -0.6134 -0.2560
11293TIP3   OH255293   0.857   4.522  15.922  0.4917  0.4206 -0.2580
11293TIP3    H155294   0.928   4.477  15.877 -0.3735  0.7436 -2.0226
11293TIP3    H255295   0.808   4.452  15.966  2.1000  0.2422  1.3781
11294TIP3   OH255296   6.463   1.327   1.517 -0.3195  0.5985 -1.2039
11294TIP3    H155297   6.446   1.421   1.516  0.3548  0.7582 -0.0360
11294TIP3    H255298   6.376   1.287   1.522 -0.5695  1.2865  1.3764
11295TIP3   OH255299   0.578   3.541  14.101 -0.1470  0.1506  0.3573
11295TIP3    H155300   0.624   3.505  14.025 -0.4166  0.8059 -0.1291
11295TIP3    H255301   0.492   3.568  14.066  0.1273  1.4566  0.6454
11296TIP3   OH255302   6.731   0.075   3.697 -0.1703 -0.6362 -0.3492
11296TIP3    H155303   6.647   0.072   3.742  0.5463  1.8548  1.3642
11296TIP3    H255304   6.796   0.082   3.766  1.2898 -0.3305 -1.6838
11297TIP3   OH255305   6.735   4.651  13.067 -0.1322  0.3667  0.3217
11297TIP3    H155306   6.730   4.677  12.975  1.1588  0.8732  0.3749
11297TIP3    H255307   6.702   4.561  13.068 -0.5923  0.5186 -0.5641
11298TIP3   OH255308   3.508   5.115  10.675  0.1609  0.2071  0.1511
11298TIP3    H155309   3.483   5.207  10.670 -1.5447 -0.2686 -1.1125
11298TIP3    H255310   3.439   5.074  10.728  2.3434  0.0382  3.1039
11299TIP3   OH255311   5.689   0.369  17.025  0.2657  0.3530  0.2280
11299TIP3    H155312   5.612   0.416  16.992 -1.5007 -0.4596  2.8789
11299TIP3    H255313   5.724   0.426  17.093 -1.1529 -1.4448  2.6104
11300TIP3   OH255314   1.772   1.435   6.248  0.3840  0.1687  0.0943
11300TIP3    H155315   1.858   1.398   6.268  0.0195 -0.7784 -0.0503
11300TIP3    H255316   1.723   1.363   6.209  0.4789  1.4940 -2.6376
11301TIP3   OH255317   6.673   3.432   3.286  0.1483 -0.0365 -0.6045
11301TIP3    H155318   6.693   3.381   3.207  0.8517 -1.0335  0.2027
11301TIP3    H255319   6.657   3.367   3.354 -3.0431  0.7157 -0.4551
11302TIP3   OH255320   1.252   1.326  14.592  0.3399  0.1108  0.0213
11302TIP3    H155321   1.265   1.418  14.569  2.1697 -0.1777 -0.3057
11302TIP3    H255322   1.178   1.298  14.538 -0.8751  1.6099  0.8356
11303TIP3   OH255323   1.873   0.922   5.589  0.9570 -0.6652 -0.3857
11303TIP3    H155324   1.785   0.960   5.584  1.2851  0.0819 -0.6561
11303TIP3    H255325   1.880   0.890   5.678  0.5004 -0.4991 -0.2851
11304TIP3   OH255326   6.070   6.761   0.559  0.2100 -0.4134  0.1854
11304TIP3    H155327   6.097   6.679   0.516 -1.3429  0.1681 -2.0812
11304TIP3    H255328   6.150   6.813   0.563  0.9080 -1.4625  0.2998
11305TIP3   OH255329   2.064   5.469  11.436 -0.2250  0.0967 -0.3564
11305TIP3    H155330   2.025   5.552  11.410 -0.3048 -0.1162 -0.9568
11305TIP3    H255331   1.994   5.405  11.422 -0.3597  0.0124  0.6933
11306TIP3   OH255332   0.081   5.651  11.675 -0.1123 -0.1525  0.1021
11306TIP3    H155333   0.048   5.566  11.644 -0.0828 -0.6777  1.4555
11306TIP3    H255334   0.127   5.687  11.600  0.2487 -1.5397 -0.3735
11307TIP3   OH255335   0.175   4.351  12.565  0.1926 -0.3771 -0.1428
11307TIP3    H155336   0.124   4.273  12.586  0.5945 -0.3717  0.9170
11307TIP3    H255337   0.260   4.318  12.536 -0.1311 -0.3646 -1.1259
11308TIP3   OH255338   3.903   5.467  14.899 -0.1142  0.6370 -0.3102
11308TIP3    H155339   3.881   5.375  14.906  0.3493  0.4451 -1.2193
11308TIP3    H255340   3.985   5.476  14.948  2.5569 -0.4857 -4.1046
11309TIP3   OH255341   4.840   0.106   2.610  0.0896 -0.2689 -0.3140
11309TIP3    H155342   4.923   0.133   2.571  0.0198  1.2010  0.4700
11309TIP3    H255343   4.865   0.049   2.683  0.2608 -2.1036 -1.7484
11310TIP3   OH255344   2.242   0.873   6.219 -0.6095 -0.0541  0.7536
11310TIP3    H155345   2.279   0.919   6.295 -0.9508 -0.5670  1.2381
11310TIP3    H255346   2.158   0.917   6.203  0.5198  1.6471 -0.8532
11311TIP3   OH255347   6.798   5.883   0.920 -0.2027 -0.4915 -0.2355
11311TIP3    H155348   6.707   5.855   0.929 -0.3127  0.2473  1.2055
11311TIP3    H255349   6.805   5.910   0.828 -0.9319 -2.2046 -0.8365
11312TIP3   OH255350   5.330   4.082  13.123 -0.7031 -0.2829 -0.2901
11312TIP3    H155351   5.329   4.005  13.180  1.1625  0.2506  0.5473
11312TIP3    H255352   5.407   4.131  13.151 -0.6577  0.8386 -2.2026
11313TIP3   OH255353   1.434   2.209  10.995  0.9611  0.3654  0.1754
11313TIP3    H155354   1.377   2.285  11.007 -0.5865 -0.9075  1.2431
11313TIP3    H255355   1.471   2.192  11.082  0.0319 -1.0416  0.3159
11314TIP3   OH255356   5.150   6.136  14.544  0.1778  0.8181  0.5617
11314TIP3    H155357   5.186   6.224  14.532 -0.2943  1.4811  3.3163
11314TIP3    H255358   5.227   6.078  14.542  0.6308  1.4158  0.0608
11315TIP3   OH255359   1.119   6.506   0.306  0.3197  0.0493 -0.1016
11315TIP3    H155360   1.169   6.526   0.227  0.1996  0.3743 -0.0950
11315TIP3    H255361   1.153   6.421   0.335  1.1713  0.4618  0.1455
11316TIP3   OH255362   3.543   2.904   4.622 -0.0716 -0.5176  0.0078
11316TIP3    H155363   3.598   2.831   4.652 -0.6160 -0.6286  0.7867
11316TIP3    H255364   3.581   2.981   4.663 -0.9111 -0.6900  1.1545
11317TIP3   OH255365   0.959   3.129  10.455  0.0032  0.2763  0.1783
11317TIP3    H155366   1.040   3.078  10.460 -0.5624 -1.1874 -2.9083
11317TIP3    H255367   0.987   3.217  10.431  0.7147 -0.6370 -2.6814
11318TIP3   OH255368   1.626   0.180  11.811  0.0459 -0.0434 -0.5620
11318TIP3    H155369   1.716   0.185  11.844 -0.2517  0.8107  0.1486
11318TIP3    H255370   1.595   0.093  11.839  0.5064 -0.1785 -0.4627
11319TIP3   OH255371   0.009   6.098   4.986 -0.0230  0.1717 -0.2360
11319TIP3    H155372   0.036   6.012   4.955  0.5225  0.0027  0.6821
11319TIP3    H255373  -0.014   6.085   5.078 -1.3687  0.7081 -0.4684
11320TIP3   OH255374   1.620   2.620  12.522 -0.2676 -0.0426  0.1137
11320TIP3    H155375   1.587   2.578  12.442  1.2183  0.5125 -0.8367
11320TIP3    H255376   1.654   2.548  12.574  1.5787 -0.1599 -1.1684
11321TIP3   OH255377   4.467   5.933  13.885  0.0279 -0.2376 -0.2388
11321TIP3    H155378   4.439   5.850  13.847  0.6085 -0.5462 -0.0066
11321TIP3    H255379   4.448   5.924  13.979  1.8774 -0.8935  0.1159
11322TIP3   OH255380   5.270   2.637   3.428  0.2771 -0.1049 -0.1521
11322TIP3    H155381   5.194   2.600   3.383 -0.5330  1.5969 -0.2886
11322TIP3    H255382   5.340   2.574   3.414 -0.8064 -1.1570 -1.0263
11323TIP3   OH255383   6.022   4.783  15.743  0.1156 -0.0700  0.0567
11323TIP3    H155384   5.955   4.715  15.741  0.1973 -0.1612  0.4014
11323TIP3    H255385   6.028   4.813  15.652 -0.9778  0.5263  0.1631
11324TIP3   OH255386   4.838   4.407   0.277  0.1072 -0.8308 -0.0910
11324TIP3    H155387   4.751   4.442   0.295 -0.3002 -1.5085 -0.7126
11324TIP3    H255388   4.882   4.475   0.226  0.6355  0.3390  1.8021
11325TIP3   OH255389   2.941   4.869   1.659 -0.4810 -0.0512  0.9362
11325TIP3    H155390   3.014   4.808   1.645  0.0838  0.4398  1.7021
11325TIP3    H255391   2.982   4.955   1.665 -1.2303  0.3707  0.3166
11326TIP3   OH255392   2.768   2.720  12.967  0.0895  0.0177  0.1510
11326TIP3    H155393   2.677   2.689  12.967  0.6416 -1.6839  0.5233
11326TIP3    H255394   2.780   2.759  13.053  0.0191 -0.7551  0.5207
11327TIP3   OH255395   3.253   0.965   4.709 -0.2228 -0.1485  0.2796
11327TIP3    H155396   3.171   0.994   4.750 -0.0190  1.0600 -0.1196
11327TIP3    H255397   3.300   0.919   4.778 -1.5134 -1.4884  0.3426
11328TIP3   OH255398   2.145   4.241   4.220 -0.4097  0.9470 -0.1787
11328TIP3    H155399   2.094   4.197   4.288 -0.3537  1.6063  0.3025
11328TIP3    H255400   2.145   4.333   4.246  1.1852  0.9443 -0.0588
11329TIP3   OH255401   2.638   6.424   0.675  0.5812 -0.0516 -0.4726
11329TIP3    H155402   2.621   6.459   0.762  0.2255  2.2632 -1.3884
11329TIP3    H255403   2.655   6.501   0.621  1.1297 -1.4298 -2.3993
11330TIP3   OH255404   4.609   4.605  12.467  0.0877  0.4002  0.2650
11330TIP3    H155405   4.617   4.518  12.507  1.0610 -0.2523 -1.2295
11330TIP3    H255406   4.695   4.622  12.428  0.5060  2.8820  2.0648
11331TIP3   OH255407   2.022   4.052   3.221  0.6474 -0.1462 -0.4058
11331TIP3    H155408   2.013   3.984   3.155 -0.2967 -0.1595 -0.2868
11331TIP3    H255409   1.959   4.028   3.289  1.2590  0.1289  0.2733
11332TIP3   OH255410   5.293   2.888  13.261 -0.6705 -0.3707  0.0880
11332TIP3    H155411   5.317   2.919  13.349 -0.1485  1.5374 -0.6747
11332TIP3    H255412   5.339   2.805  13.252  4.2386  2.0613 -0.4886
11333TIP3   OH255413   2.059   5.910  15.700  0.1393  0.3705 -0.1208
11333TIP3    H155414   2.044   5.880  15.790 -1.5189 -0.5727 -0.6664
11333TIP3    H255415   2.049   6.005  15.705  1.6732  0.5087  0.9549
11334TIP3   OH255416   3.163   0.037   1.970  0.3692  0.1067  0.3249
11334TIP3    H155417   3.138   0.018   2.060 -0.4717  0.6242  0.2204
11334TIP3    H255418   3.230   0.106   1.977  1.6507 -1.1282  0.6034
11335TIP3   OH255419   4.488   6.102  12.638 -0.4741 -0.0017  0.2971
11335TIP3    H155420   4.574   6.078  12.603 -0.4092 -1.2180  1.1920
11335TIP3    H255421   4.492   6.197  12.649 -0.4520  0.4495 -2.7498
11336TIP3   OH255422   4.620   2.333  12.260  0.5326 -0.1611  0.0103
11336TIP3    H155423   4.576   2.385  12.327  0.4641  1.2300 -1.0669
11336TIP3    H255424   4.602   2.380  12.178  1.8345 -1.0048 -0.7906
11337TIP3   OH255425   2.971   2.941  13.866  0.3523  0.3149  0.5285
11337TIP3    H155426   2.963   2.984  13.951  0.0706 -1.9935  1.7761
11337TIP3    H255427   2.914   2.864  13.873  0.1845  0.1445 -1.8395
11338TIP3   OH255428   4.767   0.806  16.911 -0.4746 -0.8231  0.0462
11338TIP3    H155429   4.797   0.814  16.821 -1.7820  0.9075 -0.3019
11338TIP3    H255430   4.814   0.874  16.959 -0.3403 -1.2365  0.5107
11339TIP3   OH255431   4.688   2.113  15.087 -0.1052  0.4938  1.0318
11339TIP3    H155432   4.750   2.091  15.017 -1.1564 -3.9679  1.1992
11339TIP3    H255433   4.740   2.106  15.167 -0.1841 -0.5007  1.0081
11340TIP3   OH255434   2.916   1.274   1.559  0.3840  0.3339 -0.4890
11340TIP3    H155435   2.858   1.341   1.596  0.7749  0.2523  0.2888
11340TIP3    H255436   2.971   1.323   1.497  1.2767  0.9195  0.7406
11341TIP3   OH255437   2.226   4.793  10.501 -0.3655  0.1224  0.1473
11341TIP3    H155438   2.276   4.718  10.534 -0.2419 -0.2860 -0.9247
11341TIP3    H255439   2.248   4.865  10.560  0.7302 -0.2940  0.2664
11342TIP3   OH255440   3.943   4.417  16.599 -0.0269 -0.0775  0.5833
11342TIP3    H155441   4.039   4.416  16.605 -0.0115  1.7898  1.3157
11342TIP3    H255442   3.914   4.443  16.686 -1.0107  2.7674 -0.5003
11343TIP3   OH255443   2.159   0.016   0.129 -0.3714  0.3039  0.2051
11343TIP3    H155444   2.240   0.048   0.167  0.1320 -0.0030 -0.5902
11343TIP3    H255445   2.132  -0.056   0.186 -0.4181  0.8050  0.8226
11344TIP3   OH255446   0.413   6.697  12.228 -0.4267  0.2229 -0.2303
11344TIP3    H155447   0.398   6.781  12.271  1.4939  1.1171 -1.1868
11344TIP3    H255448   0.356   6.698  12.151  0.5980  1.2970 -1.0020
11345TIP3   OH255449   2.963   0.187  14.568 -0.3712 -0.3408  0.1794
11345TIP3    H155450   3.021   0.185  14.644  0.1744  0.7150 -0.1791
11345TIP3    H255451   2.875   0.175  14.604 -0.1704  0.6625  1.0428
11346TIP3   OH255452   3.123   4.185   3.715 -0.4256  0.3979 -0.3896
11346TIP3    H155453   3.059   4.117   3.735  2.4615 -2.3413  0.4476
11346TIP3    H255454   3.108   4.253   3.780  0.0453 -2.0844  2.5297
11347TIP3   OH255455   0.587   3.526   3.831  0.5499 -0.1838 -0.0362
11347TIP3    H155456   0.588   3.444   3.783  1.5692 -0.6647  0.7608
11347TIP3    H255457   0.539   3.507   3.911 -0.7448  0.4902 -0.6225
11348TIP3   OH255458   2.183   4.628  15.867  0.6920  0.1781 -0.1328
11348TIP3    H155459   2.172   4.533  15.873  0.2772  0.2619  0.5212
11348TIP3    H255460   2.158   4.649  15.777 -0.0800 -0.2228 -0.0233
11349TIP3   OH255461   6.333   1.557   5.977 -0.5667  0.1568 -0.9113
11349TIP3    H155462   6.245   1.521   5.984  0.1736 -1.7176 -0.6542
11349TIP3    H255463   6.390   1.491   6.017  0.7575  2.3077  0.9874
11350TIP3   OH255464   0.510   6.156  15.523  0.9325  0.1660 -0.5460
11350TIP3    H155465   0.573   6.199  15.580 -1.2950  3.4035 -0.2326
11350TIP3    H255466   0.530   6.189  15.435  1.8264 -1.6586 -1.0927
11351TIP3   OH255467   2.577   2.489   1.869  0.6414 -0.0797 -0.5814
11351TIP3    H155468   2.672   2.497   1.873  0.5107  1.8399  2.6958
11351TIP3    H255469   2.547   2.575   1.839 -0.0910 -0.0855  0.1120
11352TIP3   OH255470   5.645   5.359  14.287  0.4668  0.1213 -0.2917
11352TIP3    H155471   5.611   5.304  14.358  1.3708 -0.7835 -0.5421
11352TIP3    H255472   5.738   5.368  14.306  0.5829  0.4392 -1.0054
11353TIP3   OH255473   5.375   4.706   1.138  0.9454 -0.2696  0.4147
11353TIP3    H155474   5.281   4.697   1.156  0.8584  1.1255  0.7214
11353TIP3    H255475   5.381   4.714   1.043  0.8003 -0.6841  0.3652
11354TIP3   OH255476   1.705   4.146   2.949  0.0939  1.3163 -0.4829
11354TIP3    H155477   1.657   4.154   3.031 -0.1782  2.0182 -0.7014
11354TIP3    H255478   1.783   4.095   2.972 -1.7194 -1.6891 -0.5717
11355TIP3   OH255479   3.059   4.957   3.289 -0.2029 -0.2371 -0.4427
11355TIP3    H155480   3.142   4.952   3.242  0.9433  0.8711  1.3517
11355TIP3    H255481   2.992   4.947   3.221  1.3762 -1.3285 -1.9109
11356TIP3   OH255482   2.589   3.762   4.706  0.0709  0.1108 -0.2643
11356TIP3    H155483   2.638   3.843   4.689  1.4847 -0.5850  0.3778
11356TIP3    H255484   2.553   3.774   4.794  0.1398  0.1014 -0.2350
11357TIP3   OH255485   5.137   6.286   4.096  0.1163  0.0417  0.1072
11357TIP3    H155486   5.140   6.218   4.029  1.7108 -0.7270  0.9066
11357TIP3    H255487   5.064   6.259   4.153  0.2487 -0.5873 -0.0089
11358TIP3   OH255488   5.189   0.389  12.950  0.0666 -0.0371 -0.5405
11358TIP3    H155489   5.176   0.481  12.926  0.2175 -0.1631 -1.1252
11358TIP3    H255490   5.243   0.353  12.880 -0.5186 -0.7290 -0.6505
11359TIP3   OH255491   1.842   0.982  12.883 -0.0130 -0.4530  0.0380
11359TIP3    H155492   1.892   0.902  12.899  1.8624 -0.0660 -2.9722
11359TIP3    H255493   1.765   0.952  12.834  1.6184 -0.4327 -2.7823
11360TIP3   OH255494   2.707   5.642   2.131 -0.0166  0.3537 -0.1983
11360TIP3    H155495   2.732   5.624   2.040 -0.0784  0.4767 -0.2391
11360TIP3    H255496   2.634   5.703   2.124 -1.3670 -1.1706 -0.1479
11361TIP3   OH255497   4.523   1.511   2.144  0.4722  0.0997 -0.3535
11361TIP3    H155498   4.441   1.559   2.134  1.1337  1.2685 -0.4862
11361TIP3    H255499   4.511   1.431   2.094 -0.3675  0.5408 -0.8880
11362TIP3   OH255500   4.962   5.384  12.045  0.5112 -0.0543  0.2405
11362TIP3    H155501   4.971   5.305  12.099 -0.9683  0.0722  0.7360
11362TIP3    H255502   5.029   5.444  12.078 -0.6259  0.1820  2.2921
11363TIP3   OH255503   4.639   4.520   6.026  0.1190  0.1350  0.2730
11363TIP3    H155504   4.667   4.479   5.945  1.1275 -0.2818  0.8098
11363TIP3    H255505   4.667   4.460   6.095  0.0846  0.8995  0.9842
11364TIP3   OH255506   4.512   1.914  14.460 -0.1105 -0.7970 -0.4833
11364TIP3    H155507   4.509   1.819  14.458  1.2831 -0.8501 -1.6404
11364TIP3    H255508   4.551   1.939  14.376 -0.1240  0.7765 -0.0623
11365TIP3   OH255509   2.924   1.738   4.564 -0.1973 -0.1967 -0.1584
11365TIP3    H155510   2.944   1.654   4.522  0.3412 -0.0508 -0.1952
11365TIP3    H255511   2.877   1.713   4.644 -1.6077 -0.4555 -1.0310
11366TIP3   OH255512   4.439   3.124  15.879  0.1559 -0.5070  0.2182
11366TIP3    H155513   4.435   3.198  15.939  1.2749 -0.8684  0.7705
11366TIP3    H255514   4.528   3.090  15.889 -0.9088 -3.2056  1.5239
11367TIP3   OH255515   5.969   6.469  17.199 -0.4161 -0.2455  0.0887
11367TIP3    H155516   6.005   6.388  17.164 -0.3209 -0.1729  0.0169
11367TIP3    H255517   6.045   6.527  17.208 -0.2897 -0.5852  1.3404
11368TIP3   OH255518   3.541   2.699  12.159  0.2106 -0.1582  0.0873
11368TIP3    H155519   3.556   2.793  12.154 -0.7645  0.1134  1.4595
11368TIP3    H255520   3.628   2.661  12.167  0.5383  0.8016  1.4537
11369TIP3   OH255521   4.046   3.942   6.163  0.0932  0.0322 -0.3518
11369TIP3    H155522   4.043   3.957   6.257  0.3419  0.3496 -0.3915
11369TIP3    H255523   3.969   3.988   6.129 -0.1711 -0.3494 -0.2682
11370TIP3   OH255524   0.006   3.271  16.123  0.2409 -0.2544 -0.3136
11370TIP3    H155525  -0.054   3.212  16.168  2.0566 -2.0935 -0.1404
11370TIP3    H255526   0.090   3.257  16.167  0.8444  2.2258 -0.5333
11371TIP3   OH255527   5.758   5.424   4.004  0.1594  0.5011  0.0846
11371TIP3    H155528   5.784   5.481   4.076  0.1269 -0.3475  0.7732
11371TIP3    H255529   5.793   5.468   3.926 -0.5850  1.8965  0.5064
11372TIP3   OH255530   1.175   5.719   4.561 -0.5468 -0.6767 -0.4767
11372TIP3    H155531   1.115   5.647   4.579  0.4583 -1.2016  0.8915
11372TIP3    H255532   1.138   5.761   4.483 -2.7781 -0.8602  0.4028
11373TIP3   OH255533   4.663   2.518  13.756  0.0989  0.1655 -0.4383
11373TIP3    H155534   4.682   2.442  13.702  2.5104  0.9408 -0.8092
11373TIP3    H255535   4.637   2.482  13.841  0.4633 -1.0631 -0.8353
11374TIP3   OH255536   4.485   1.717  14.069  0.3459  0.0351  0.0850
11374TIP3    H155537   4.546   1.646  14.089  0.8027  1.2274  3.5521
11374TIP3    H255538   4.404   1.691  14.113  0.5233  1.5837  1.4185
11375TIP3   OH255539   2.651   0.195   3.149  0.0403 -0.1367 -0.2581
11375TIP3    H155540   2.588   0.124   3.144 -0.9952  0.8248 -3.3527
11375TIP3    H255541   2.621   0.249   3.223 -1.0259 -1.2183  0.1238
11376TIP3   OH255542   2.399   5.827  11.585  0.7397 -0.6043 -0.1990
11376TIP3    H155543   2.331   5.878  11.540 -0.1714 -1.0501  0.6200
11376TIP3    H255544   2.466   5.811  11.518 -0.7939 -1.6800 -1.5693
11377TIP3   OH255545   2.924   0.362   1.811 -0.7787 -0.2081  0.6086
11377TIP3    H155546   2.941   0.457   1.812  0.2205 -0.3774  0.2465
11377TIP3    H255547   2.914   0.340   1.719  2.6295 -1.0425  0.3108
11378TIP3   OH255548   1.498   2.847   3.313  0.1885 -0.6460 -0.1145
11378TIP3    H155549   1.570   2.878   3.259  0.0820  0.9823  0.6431
11378TIP3    H255550   1.431   2.819   3.249  0.2919  0.6876 -0.8384
11379TIP3   OH255551   1.608   6.578  12.766 -0.1435  0.6768  0.0460
11379TIP3    H155552   1.701   6.603  12.758 -0.1546  0.6761 -0.0814
11379TIP3    H255553   1.560   6.658  12.744 -0.1907  0.3413 -1.0984
11380TIP3   OH255554   6.384   1.241   2.804  0.4189 -0.0650  0.1205
11380TIP3    H155555   6.293   1.212   2.809 -0.4000  1.9675 -1.6342
11380TIP3    H255556   6.414   1.243   2.895 -1.0461 -1.4156  0.6727
11381TIP3   OH255557   4.216   2.624   5.684 -0.1055 -0.3820 -0.3807
11381TIP3    H155558   4.127   2.633   5.648 -0.3234 -1.3524 -0.1276
11381TIP3    H255559   4.229   2.702   5.738 -0.9634 -0.4235 -0.1004
11382TIP3   OH255560   2.248   3.822  15.384  0.2166 -0.0369  0.4596
11382TIP3    H155561   2.234   3.791  15.473  2.0805 -0.5833  0.5957
11382TIP3    H255562   2.277   3.745  15.335 -0.6694  0.2784 -0.6111
11383TIP3   OH255563   3.682   1.443  16.783 -0.2556  0.1337 -0.0763
11383TIP3    H155564   3.716   1.531  16.765  0.6242 -0.4311 -1.3072
11383TIP3    H255565   3.743   1.384  16.738  0.0917 -1.2177  2.0507
11384TIP3   OH255566   6.053   6.341   6.658  0.1637  0.4648 -0.0204
11384TIP3    H155567   5.979   6.388   6.619 -0.1418 -0.6374 -0.8395
11384TIP3    H255568   6.033   6.336   6.751 -0.4639  0.7746 -0.1346
11385TIP3   OH255569   2.605   4.709  11.583  0.2341  0.3827 -0.0819
11385TIP3    H155570   2.651   4.632  11.548  1.3994  0.4764  1.1804
11385TIP3    H255571   2.519   4.675  11.608  0.5873 -0.4307  0.0817
11386TIP3   OH255572   5.084   5.670   0.365 -0.3844  0.0666 -0.6925
11386TIP3    H155573   5.165   5.635   0.327 -0.3612  0.5768 -1.1260
11386TIP3    H255574   5.021   5.598   0.360  0.2807 -0.6302  0.4580
11387TIP3   OH255575   4.659   5.648  16.733  0.2123  0.2390  0.3385
11387TIP3    H155576   4.616   5.715  16.786  0.3028  0.1634  0.5059
11387TIP3    H255577   4.608   5.647  16.651 -0.1570  0.0978  0.5646
11388TIP3   OH255578   6.618   4.172  16.733 -1.0112  0.6283  0.3371
11388TIP3    H155579   6.673   4.133  16.801 -0.2304  0.8214 -0.1695
11388TIP3    H255580   6.609   4.264  16.758 -0.7352  0.6963  0.1854
11389TIP3   OH255581   2.247   0.882   4.982 -0.4834  0.0609 -0.3500
11389TIP3    H155582   2.276   0.960   4.935  1.6959 -0.4883 -0.0262
11389TIP3    H255583   2.282   0.892   5.070 -1.4769 -0.6021  0.1418
11390TIP3   OH255584   6.201   2.758  11.468 -0.3740  0.0452 -0.1671
11390TIP3    H155585   6.164   2.699  11.403  2.0391 -0.1849 -1.4227
11390TIP3    H255586   6.170   2.845  11.443  0.0498 -0.1172 -1.2923
11391TIP3   OH255587   5.616   6.364  12.319 -0.8846  0.2910 -0.8346
11391TIP3    H155588   5.542   6.323  12.363 -1.3530  1.1461 -0.8049
11391TIP3    H255589   5.615   6.454  12.351  0.8804  0.0342  0.0885
11392TIP3   OH255590   3.779   6.656  14.831 -0.1173  0.8270 -0.1604
11392TIP3    H155591   3.793   6.751  14.825 -1.7013  1.1258  0.4362
11392TIP3    H255592   3.800   6.624  14.743  0.3969  1.7257 -0.3868
11393TIP3   OH255593   3.742   1.768   5.888  0.4422 -0.3994 -0.3581
11393TIP3    H155594   3.818   1.714   5.911  2.6376  2.3702 -0.5226
11393TIP3    H255595   3.723   1.818   5.968 -2.4340 -2.2027  0.2408
11394TIP3   OH255596   3.747   3.723  10.767 -0.2450 -0.3018 -0.7765
11394TIP3    H155597   3.810   3.659  10.800  1.6571  1.6903 -0.3110
11394TIP3    H255598   3.662   3.680  10.776  0.7538 -2.0033  1.3714
11395TIP3   OH255599   4.544   2.450  12.641  0.1774 -0.1077  0.6219
11395TIP3    H155600   4.631   2.469  12.604  0.1160  2.0768  1.4493
11395TIP3    H255601   4.562   2.400  12.721  0.5451 -1.1316 -0.0797
11396TIP3   OH255602   2.993   4.496  16.726 -0.4756 -0.0514  0.1343
11396TIP3    H155603   2.967   4.410  16.692 -0.9208  0.2104 -0.2127
11396TIP3    H255604   2.915   4.528  16.771  0.4955 -0.9542  2.6398
11397TIP3   OH255605   1.977   2.591   4.575 -0.2275 -0.8942 -0.0213
11397TIP3    H155606   2.027   2.511   4.591  0.2133 -0.5038  0.6187
11397TIP3    H255607   1.899   2.562   4.529  1.2841 -1.3401 -2.4775
11398TIP3   OH255608   4.921   6.684  10.575 -0.3146  0.1778 -0.4368
11398TIP3    H155609   4.988   6.731  10.527  0.0049 -0.2699 -0.4349
11398TIP3    H255610   4.909   6.734  10.656 -0.8709  0.9435 -0.9864
11399TIP3   OH255611   3.909   5.601   3.105 -0.2602 -0.1183 -0.9418
11399TIP3    H155612   3.900   5.573   3.196 -0.1200 -1.0081 -1.2003
11399TIP3    H255613   3.974   5.671   3.109  0.5473 -0.8750 -0.4840
11400TIP3   OH255614   1.291   4.284   4.693 -0.2017  0.1121  0.1366
11400TIP3    H155615   1.246   4.322   4.617  0.5735  0.0111 -0.3909
11400TIP3    H255616   1.221   4.249   4.748 -0.7211 -2.8510 -2.1348
11401TIP3   OH255617   1.140   3.933  10.606 -0.2816 -0.3255 -0.2851
11401TIP3    H155618   1.159   3.850  10.650 -1.5556  0.0546  1.0604
11401TIP3    H255619   1.145   3.912  10.513 -0.6388 -1.9338  0.0225
11402TIP3   OH255620   1.381   2.845  12.850  0.5928 -0.4390 -0.1413
11402TIP3    H155621   1.425   2.893  12.780 -0.0008  0.5672  0.1449
11402TIP3    H255622   1.450   2.824  12.913  0.5731  2.0316  0.8159
11403TIP3   OH255623   3.007   5.925  16.492  0.2549 -0.5014 -0.2768
11403TIP3    H155624   3.080   5.894  16.438 -0.5070  0.2844 -1.8298
11403TIP3    H255625   2.934   5.933  16.431 -1.4272 -2.1668  1.4295
11404TIP3   OH255626   5.530   2.198  10.983  0.4690 -0.8914 -0.0049
11404TIP3    H155627   5.594   2.168  10.918  0.4984  0.4553 -0.6255
11404TIP3    H255628   5.527   2.293  10.972 -0.4789 -0.7702  1.1025
11405TIP3   OH255629   4.877   0.154  11.419  0.2538  0.2779 -0.1000
11405TIP3    H155630   4.783   0.153  11.400  0.1404  0.0485  0.4655
11405TIP3    H255631   4.890   0.077  11.474  0.6773  0.6474  0.3103
11406TIP3   OH255632   5.250   5.480  13.218 -0.2908  0.0064 -0.4174
11406TIP3    H155633   5.314   5.492  13.147 -1.6517  1.0268 -1.5384
11406TIP3    H255634   5.184   5.423  13.181  0.0911 -1.3108  0.8459
11407TIP3   OH255635   5.239   4.792  14.980 -0.0115 -0.4218 -0.2976
11407TIP3    H155636   5.316   4.824  14.934 -0.7551 -1.5374 -2.4707
11407TIP3    H255637   5.260   4.802  15.073  1.5598  1.9705 -0.8232
11408TIP3   OH255638   1.553   0.489   3.889  0.5761  0.1403 -0.0146
11408TIP3    H155639   1.531   0.529   3.805  0.9956  2.6175  0.9600
11408TIP3    H255640   1.470   0.460   3.925  0.0529  1.3028 -0.2412
11409TIP3   OH255641   2.847   4.691  13.477  0.3458 -0.4998 -0.2644
11409TIP3    H155642   2.791   4.697  13.554 -0.7741  1.5678 -1.1549
11409TIP3    H255643   2.788   4.700  13.403  1.5643 -0.9109 -1.3294
11410TIP3   OH255644   0.695   4.818   0.670  0.6669  0.1897  0.5026
11410TIP3    H155645   0.704   4.869   0.589 -0.8470 -0.0506  0.1664
11410TIP3    H255646   0.736   4.874   0.737 -0.6635  1.7304  0.0933
11411TIP3   OH255647   0.546   4.596   2.976  0.0254  0.0901  0.0871
11411TIP3    H155648   0.478   4.593   3.044  1.3303 -1.8177  1.3905
11411TIP3    H255649   0.543   4.510   2.934  1.3235  0.1411 -0.1577
11412TIP3   OH255650   6.285   1.302  14.549  0.3118 -0.0150 -0.1255
11412TIP3    H155651   6.313   1.295  14.640 -1.1207 -0.6463  0.3057
11412TIP3    H255652   6.347   1.247  14.500  1.9030  1.3851  0.2469
11413TIP3   OH255653   0.743   5.951  17.205  0.5568  0.1734  0.4439
11413TIP3    H155654   0.838   5.938  17.205  0.5652 -0.1979 -1.5734
11413TIP3    H255655   0.722   5.975  17.295  2.7534  1.7253  0.6428
11414TIP3   OH255656   0.711   0.552   0.326  0.1829  0.3240  0.4710
11414TIP3    H155657   0.757   0.476   0.361  2.1679  1.0134 -0.4777
11414TIP3    H255658   0.674   0.595   0.402 -0.1986 -1.0738  1.1196
11415TIP3   OH255659   4.263   1.850   3.224  0.8337 -0.1589 -0.1779
11415TIP3    H155660   4.275   1.888   3.311  0.6437  1.3518 -0.7880
11415TIP3    H255661   4.168   1.838   3.216  0.7016  1.1342 -0.7394
11416TIP3   OH255662   2.275   6.395  16.535 -0.0762  0.7484 -0.1075
11416TIP3    H155663   2.244   6.330  16.599  1.5475  2.0797  2.1764
11416TIP3    H255664   2.364   6.367  16.515 -0.1631  1.0257 -0.8960
11417TIP3   OH255665   0.341   4.294   5.056  0.1121 -0.1152 -0.2679
11417TIP3    H155666   0.419   4.250   5.090 -0.8284 -1.1106  0.6511
11417TIP3    H255667   0.314   4.352   5.127 -1.2472 -1.4156  0.3188
11418TIP3   OH255668   6.326   6.189  16.601 -0.3758 -0.4420  0.0540
11418TIP3    H155669   6.415   6.156  16.590 -0.4378 -0.6025  0.0348
11418TIP3    H255670   6.278   6.155  16.525 -0.3332  0.0589 -0.2024
11419TIP3   OH255671   4.264   2.843  11.264  0.3874 -0.1560  0.5102
11419TIP3    H155672   4.290   2.911  11.201 -0.7511  0.6540  0.8767
11419TIP3    H255673   4.320   2.769  11.243 -0.3983 -0.1653 -1.9306
11420TIP3   OH255674   1.221   3.693   5.702 -0.6370 -0.5886 -0.1222
11420TIP3    H155675   1.204   3.763   5.639 -1.5834 -0.1912  0.5561
11420TIP3    H255676   1.314   3.703   5.725 -0.8042  0.5751  0.1074
11421TIP3   OH255677   6.140   5.691   2.621 -0.1003 -0.0802  0.1960
11421TIP3    H155678   6.089   5.675   2.542 -1.3626  2.2118  0.4453
11421TIP3    H255679   6.092   5.646   2.690 -0.3500 -0.0814  0.0241
11422TIP3   OH255680   4.452   6.508   6.176  0.9203  0.1141  0.0538
11422TIP3    H155681   4.532   6.514   6.125  1.9977  0.6428  1.7205
11422TIP3    H255682   4.473   6.445   6.245 -0.9409 -1.6397 -0.8791
11423TIP3   OH255683   2.053   3.109  17.146  0.2114  0.3905 -0.3212
11423TIP3    H155684   2.077   3.183  17.090  0.0443  1.4625  0.9684
11423TIP3    H255685   1.999   3.148  17.215 -0.6259 -1.0905 -0.1121
11424TIP3   OH255686   5.343   3.787   4.513  0.1803 -0.3745  0.5990
11424TIP3    H155687   5.418   3.739   4.545 -0.4557 -0.4002  2.1635
11424TIP3    H255688   5.314   3.839   4.588 -0.3837  0.8811 -0.4398
11425TIP3   OH255689   2.632   1.040  16.638 -0.2298 -0.5053  0.3720
11425TIP3    H155690   2.599   1.036  16.548 -0.7597 -0.1634  0.5486
11425TIP3    H255691   2.558   1.012  16.692  0.0269 -0.5185  0.7159
11426TIP3   OH255692   0.719   2.425  14.425 -0.4741  0.1167 -0.0081
11426TIP3    H155693   0.631   2.464  14.423 -0.0802  1.0131 -0.2066
11426TIP3    H255694   0.776   2.493  14.391  0.2995 -0.4899  0.0508
11427TIP3   OH255695   4.800   4.854   4.358  0.2645  0.5765 -0.3064
11427TIP3    H155696   4.854   4.834   4.435  0.0499 -1.0439 -0.5525
11427TIP3    H255697   4.834   4.796   4.289 -1.2276  0.1428 -0.7028
11428TIP3   OH255698   1.833   1.535   0.381  0.0926  0.6864 -0.4211
11428TIP3    H155699   1.860   1.626   0.389 -0.5035  0.9581 -1.2858
11428TIP3    H255700   1.915   1.485   0.382  0.3451  1.0417  1.8967
11429TIP3   OH255701   1.103   5.123   2.851  0.5514 -0.0765  0.1259
11429TIP3    H155702   1.168   5.119   2.920 -0.5502  0.1161  1.2073
11429TIP3    H255703   1.037   5.058   2.877 -1.4422  2.1536  0.9323
11430TIP3   OH255704   4.304   5.694  16.279  0.1843  0.3050 -0.1885
11430TIP3    H155705   4.345   5.699  16.193  0.9117  0.3080  0.1495
11430TIP3    H255706   4.331   5.609  16.314  1.0555  0.8757  0.5957
11431TIP3   OH255707   3.918   3.012   0.429  0.4800 -0.3969  0.2717
11431TIP3    H155708   3.931   2.982   0.519  0.8457  0.9174  0.6877
11431TIP3    H255709   3.889   3.103   0.438  1.5263  0.0895 -0.9594
11432TIP3   OH255710   2.648   6.584   3.033  0.2823  0.6333  0.0587
11432TIP3    H155711   2.611   6.667   3.003 -3.3406 -1.0755 -0.7882
11432TIP3    H255712   2.645   6.590   3.129  1.2880  1.9044  0.0346
11433TIP3   OH255713   5.171   5.384   6.337  0.1269 -0.4178 -0.2628
11433TIP3    H155714   5.121   5.460   6.306  1.1020 -0.3430 -1.7563
11433TIP3    H255715   5.106   5.327   6.377 -1.1439 -0.2271 -1.9370
11434TIP3   OH255716   4.017   1.783   5.476 -0.7916  0.1366  0.1147
11434TIP3    H155717   3.940   1.807   5.527 -1.3472 -0.0968 -0.5843
11434TIP3    H255718   4.081   1.752   5.540 -1.4950 -0.2138  0.6529
11435TIP3   OH255719   4.425   0.860   2.598 -0.3531  0.0273  0.5468
11435TIP3    H155720   4.459   0.900   2.678 -1.2822  0.0475  0.9500
11435TIP3    H255721   4.472   0.777   2.591  0.9486  0.7673  0.1843
11436TIP3   OH255722   1.482   1.893   5.823 -0.8738  0.1327  0.4952
11436TIP3    H155723   1.542   1.941   5.766 -1.2085 -0.3109 -0.2444
11436TIP3    H255724   1.439   1.961   5.875 -1.0448  0.5974 -0.2494
11437TIP3   OH255725   3.250   2.584  16.133 -0.0099  0.0361 -0.2636
11437TIP3    H155726   3.261   2.652  16.199  1.3147  0.6220 -1.0512
11437TIP3    H255727   3.173   2.610  16.083 -0.1519  0.3664  0.1239
11438TIP3   OH255728   2.609   3.584  15.292 -0.1422 -0.1392  0.2020
11438TIP3    H155729   2.559   3.648  15.343  1.6608  1.0384  0.5740
11438TIP3    H255730   2.563   3.580  15.208 -1.0713  0.6243  0.6467
11439TIP3   OH255731   5.999   5.394  13.917 -0.0566 -0.1952  1.0832
11439TIP3    H155732   5.961   5.336  13.983 -2.3168 -0.6659 -0.5237
11439TIP3    H255733   5.946   5.473  13.920  0.2929  0.0785  0.3405
11440TIP3   OH255734   1.363   6.167   5.622  0.3765 -0.0011 -0.0857
11440TIP3    H155735   1.296   6.122   5.674  0.3852 -0.5588 -0.5424
11440TIP3    H255736   1.380   6.107   5.549  1.9407 -0.2293  0.4422
11441TIP3   OH255737   5.178   2.758  16.817  0.7167 -0.5287 -0.1249
11441TIP3    H155738   5.113   2.775  16.885  1.4697 -1.1954  0.7755
11441TIP3    H255739   5.136   2.788  16.736  0.6282  2.4111  0.8706
11442TIP3   OH255740   4.125   3.242  11.390 -0.2022 -0.0206 -0.4410
11442TIP3    H155741   4.209   3.225  11.432 -0.5070  1.1748  0.7073
11442TIP3    H255742   4.073   3.287  11.457 -0.7915  1.7233 -1.9746
11443TIP3   OH255743   2.901   6.467  13.167  0.0279  0.3312 -0.2326
11443TIP3    H155744   2.959   6.484  13.242  0.8024  1.1639 -0.9979
11443TIP3    H255745   2.945   6.397  13.119 -0.4400 -0.1606  0.0361
11444TIP3   OH255746   3.726   3.564   4.888  0.5112  0.2692  0.5078
11444TIP3    H155747   3.639   3.538   4.919  0.1057  2.0580  0.9679
11444TIP3    H255748   3.779   3.485   4.896 -1.1854 -1.0100 -0.2654
11445TIP3   OH255749   4.313   0.170  12.072  0.2174 -0.2452  0.1401
11445TIP3    H155750   4.241   0.156  12.133  1.1548  0.2058  1.3962
11445TIP3    H255751   4.388   0.190  12.128  0.3746  3.7046 -1.2387
11446TIP3   OH255752   1.002   4.094   3.503 -0.3405  0.0105 -0.1274
11446TIP3    H155753   0.998   3.998   3.513 -0.0473 -0.4940 -3.7004
11446TIP3    H255754   1.090   4.117   3.531 -0.8792 -0.4719  2.1730
11447TIP3   OH255755   6.072   3.482  14.791 -1.2087 -0.3196  0.5400
11447TIP3    H155756   6.068   3.386  14.797 -0.8944 -0.2922  1.1833
11447TIP3    H255757   6.048   3.512  14.878  0.6886  0.1483  0.9274
11448TIP3   OH255758   5.619   4.254   4.693  0.1337  0.3253  0.1166
11448TIP3    H155759   5.580   4.302   4.766 -1.8829  0.7285 -1.1456
11448TIP3    H255760   5.701   4.300   4.676  0.1743  0.8140  1.4900
11449TIP3   OH255761   0.482   6.198   2.687 -0.5059  0.1351 -0.6473
11449TIP3    H155762   0.496   6.174   2.778  0.7919  0.7272 -0.6560
11449TIP3    H255763   0.416   6.268   2.690 -2.7404 -1.8637 -0.4587
11450TIP3   OH255764   1.031   6.395   0.644 -0.6544 -0.5095  0.5849
11450TIP3    H155765   1.050   6.356   0.559 -0.9716  1.5742 -0.5268
11450TIP3    H255766   0.969   6.335   0.685  0.1671 -1.9922 -0.2804
11451TIP3   OH255767   3.299   5.108  15.586  0.1141  0.8889 -0.2944
11451TIP3    H155768   3.342   5.098  15.671 -2.1040 -0.7314  0.7418
11451TIP3    H255769   3.226   5.167  15.603  0.1614  1.2484 -1.3039
11452TIP3   OH255770   3.779   4.210  15.766 -0.8685  0.4245  0.0163
11452TIP3    H155771   3.765   4.299  15.797  0.6772  0.5137  0.5346
11452TIP3    H255772   3.799   4.220  15.673 -0.1638  0.6781  0.1914
11453TIP3   OH255773   6.208   2.384  12.795  0.6195  0.0459 -0.0087
11453TIP3    H155774   6.206   2.473  12.759 -1.8130  0.0398 -0.0678
11453TIP3    H255775   6.195   2.327  12.720 -0.9422 -0.1443  0.3541
11454TIP3   OH255776   0.025   0.080  10.335  0.6540  0.6117 -0.4716
11454TIP3    H155777  -0.055   0.111  10.379  0.8710  1.2142 -0.4977
11454TIP3    H255778   0.097   0.115  10.388  0.9378 -1.8000  0.8842
11455TIP3   OH255779   3.939   0.328   4.885 -0.4176  0.8723 -0.2643
11455TIP3    H155780   3.845   0.327   4.867 -0.5869  1.0859  0.5516
11455TIP3    H255781   3.945   0.360   4.975  0.3590 -0.3789  0.1435
11456TIP3   OH255782   2.869   3.187   4.909 -0.3659 -0.4608 -0.5367
11456TIP3    H155783   2.922   3.109   4.927  0.5901  0.1013 -0.8323
11456TIP3    H255784   2.915   3.258   4.952 -0.4097  0.1837 -1.5178
11457TIP3   OH255785   2.597   2.656   3.916 -0.2905  0.6063  0.7164
11457TIP3    H155786   2.679   2.611   3.939 -0.1961  0.2941 -0.1911
11457TIP3    H255787   2.572   2.702   3.996  1.1557  1.2960  0.8071
11458TIP3   OH255788   1.591   3.110   2.233 -0.1748 -0.3118 -0.6010
11458TIP3    H155789   1.663   3.173   2.236 -0.0048 -0.5182 -0.3041
11458TIP3    H255790   1.514   3.161   2.260 -0.0069 -0.2726 -0.1933
11459TIP3   OH255791   0.533   2.741   3.892  0.1017  0.5366  0.8414
11459TIP3    H155792   0.458   2.778   3.937  0.3342 -0.2164  1.8936
11459TIP3    H255793   0.582   2.816   3.859 -1.4046  1.0294 -0.4132
11460TIP3   OH255794   3.930   0.452  15.803 -0.2944 -0.0147  0.1535
11460TIP3    H155795   3.966   0.515  15.865 -0.1751 -0.2618  0.3386
11460TIP3    H255796   4.002   0.433  15.744 -0.2670 -0.1336  0.2237
11461TIP3   OH255797   3.529   1.333   3.847 -0.0432 -0.3377  0.5024
11461TIP3    H155798   3.438   1.314   3.824 -0.1734  1.1448 -0.3269
11461TIP3    H255799   3.523   1.377   3.932 -0.3040  1.2378 -0.2769
11462TIP3   OH255800   2.396   2.267  14.255 -0.3949  0.0109 -0.2167
11462TIP3    H155801   2.453   2.203  14.296 -0.3372  0.9934  1.3266
11462TIP3    H255802   2.434   2.352  14.279 -1.3957  0.6494 -0.8012
11463TIP3   OH255803   1.675   0.575  16.304  0.2907 -0.1281  0.4416
11463TIP3    H155804   1.667   0.578  16.209  1.1504 -1.4005  0.3011
11463TIP3    H255805   1.744   0.639  16.324  0.1869  0.0629  0.1973
11464TIP3   OH255806   6.784   3.895   1.547 -0.5367 -0.5948  0.7352
11464TIP3    H155807   6.827   3.889   1.632 -0.7716  0.2473  0.9298
11464TIP3    H255808   6.841   3.846   1.487 -0.1664 -0.8608  1.2989
11465TIP3   OH255809   2.869   4.563  11.038 -0.2380 -0.1037  0.0614
11465TIP3    H155810   2.945   4.567  10.979 -0.6272  0.0384 -0.4429
11465TIP3    H255811   2.807   4.505  10.993 -0.2730 -0.5428  0.6613
11466TIP3   OH255812   1.658   3.783   3.247  0.4168 -0.2265 -0.4748
11466TIP3    H155813   1.631   3.871   3.270  3.0599  1.4026 -2.9658
11466TIP3    H255814   1.741   3.769   3.293  0.6400 -0.9185 -1.0547
11467TIP3   OH255815   4.629   5.095  14.394 -0.0325 -0.4343  0.2255
11467TIP3    H155816   4.699   5.151  14.427 -0.0224  0.0637 -0.5951
11467TIP3    H255817   4.614   5.126  14.304 -0.9865 -0.8344  0.2307
11468TIP3   OH255818   4.636   2.716  12.430 -0.3474  0.4397  0.2333
11468TIP3    H155819   4.639   2.652  12.359 -0.7732  0.1947  0.4269
11468TIP3    H255820   4.723   2.713  12.469 -0.5178 -0.4120  0.5704
11469TIP3   OH255821   5.518   3.628   1.987  0.2224  0.0992 -0.3993
11469TIP3    H155822   5.565   3.593   2.063  2.1854  1.1005 -1.0828
11469TIP3    H255823   5.442   3.672   2.024  1.3744  0.9548  1.0425
11470TIP3   OH255824   3.197   6.282   6.186 -0.0669  0.2013  0.4368
11470TIP3    H155825   3.106   6.309   6.197  0.1572  1.1569  0.0383
11470TIP3    H255826   3.221   6.244   6.271 -0.1970  1.9083  1.2841
11471TIP3   OH255827   0.615   2.236   3.706  0.0636  0.7797  0.0248
11471TIP3    H155828   0.593   2.326   3.732  1.4199  0.9068  0.8280
11471TIP3    H255829   0.692   2.215   3.759 -1.3353 -1.5427  1.3054
11472TIP3   OH255830   2.496   6.110   0.053 -0.4325  0.1466  0.2955
11472TIP3    H155831   2.500   6.055   0.132 -2.4427 -1.6649 -0.7750
11472TIP3    H255832   2.406   6.104   0.023 -0.0362  1.8279 -1.4693
11473TIP3   OH255833   1.744   5.795  12.595 -0.0856  0.1348 -0.6740
11473TIP3    H155834   1.803   5.870  12.597  0.1086 -0.0123 -0.7356
11473TIP3    H255835   1.660   5.830  12.567  0.1572  0.2318 -1.3039
11474TIP3   OH255836   4.497   5.119  12.490 -0.0822 -0.8498  0.2928
11474TIP3    H155837   4.414   5.114  12.444  0.6174 -1.6637 -0.9331
11474TIP3    H255838   4.521   5.028  12.507  0.6983 -0.6367  0.3737
11475TIP3   OH255839   6.626   0.990  17.151  0.0477 -0.0006  0.3928
11475TIP3    H155840   6.570   0.989  17.074  1.3866 -1.4585 -0.6232
11475TIP3    H255841   6.565   0.985  17.225 -1.3596  3.2527 -0.4053
11476TIP3   OH255842   6.076   3.241  12.631 -0.3532 -0.5376  0.2875
11476TIP3    H155843   6.108   3.277  12.548 -3.0685 -1.9334 -1.5552
11476TIP3    H255844   6.075   3.146  12.616  0.9132 -1.0012  2.7110
11477TIP3   OH255845   4.600   0.256   1.617 -0.0651  0.2005 -0.0083
11477TIP3    H155846   4.663   0.198   1.573 -2.5057 -1.7743 -1.1425
11477TIP3    H255847   4.626   0.344   1.590  0.8280 -0.6894 -2.3401
11478TIP3   OH255848   6.601   1.413  12.919  0.0807 -0.2483  0.1315
11478TIP3    H155849   6.563   1.451  12.840  1.7128  2.9645  0.7059
11478TIP3    H255850   6.694   1.401  12.897  0.1711 -1.1977  0.9628
11479TIP3   OH255851   5.323   1.352  12.348  0.5628 -0.3276  0.3458
11479TIP3    H155852   5.397   1.307  12.306  0.3375 -1.6481  1.2930
11479TIP3    H255853   5.259   1.361  12.278  1.0100 -0.5903 -0.1124
11480TIP3   OH255854   4.652   4.125  15.734 -0.0596 -0.3698 -0.2973
11480TIP3    H155855   4.629   4.130  15.827 -0.3386  0.2539 -0.3899
11480TIP3    H255856   4.665   4.032  15.717  1.0641 -0.4113  0.6201
11481TIP3   OH255857   4.480   6.673   5.020  0.3556  0.4079 -0.1450
11481TIP3    H155858   4.490   6.768   5.012 -0.9765  0.6266  0.6044
11481TIP3    H255859   4.563   6.644   5.056  0.5847  1.3547  0.1297
11482TIP3   OH255860   0.561   0.739   0.815  0.5120 -0.6075  0.2335
11482TIP3    H155861   0.529   0.827   0.795 -0.8845 -0.8392  1.2808
11482TIP3    H255862   0.550   0.730   0.910  2.6520 -1.1633  0.4958
11483TIP3   OH255863   4.586   3.495  16.913 -0.5824 -0.4377 -0.3486
11483TIP3    H155864   4.513   3.441  16.944 -1.5070  1.9162  1.8527
11483TIP3    H255865   4.545   3.578  16.887  0.9471 -0.2695 -2.4688
11484TIP3   OH255866   3.497   3.213   0.636  0.1946  0.5027 -0.3140
11484TIP3    H155867   3.516   3.264   0.557  1.0387  1.2086  0.3156
11484TIP3    H255868   3.525   3.270   0.708 -1.5876  0.3380  0.5613
11485TIP3   OH255869   4.244   1.082  16.853 -0.5018 -0.2726 -0.2832
11485TIP3    H155870   4.241   1.110  16.762  0.0100 -0.3462 -0.3229
11485TIP3    H255871   4.263   1.161  16.902  0.4721 -0.4551 -0.3532
11486TIP3   OH255872   2.387   0.557  11.176  0.1430 -0.7216 -0.1680
11486TIP3    H155873   2.415   0.604  11.097  0.3068  1.3111  1.0294
11486TIP3    H255874   2.292   0.551  11.167  0.1853 -0.7776 -0.6451
11487TIP3   OH255875   0.067   2.217  16.073  0.3319  0.3395 -0.0230
11487TIP3    H155876   0.059   2.139  16.128  0.4768  0.1914 -0.2136
11487TIP3    H255877   0.151   2.255  16.097  0.2911  0.4018  0.0223
11488TIP3   OH255878   3.034   6.123   3.984  0.4851  0.3139 -0.1696
11488TIP3    H155879   2.943   6.147   3.998  0.5476 -0.5683  2.2493
11488TIP3    H255880   3.080   6.207   3.976 -0.3660  0.7906 -0.1181
11489TIP3   OH255881   3.530   2.050  12.927 -0.6052 -1.1681 -0.5552
11489TIP3    H155882   3.472   2.110  12.880 -1.3043 -2.9080 -2.0133
11489TIP3    H255883   3.570   2.104  12.995 -0.8395  1.0567 -2.0819
11490TIP3   OH255884   5.925   2.893   5.029 -0.8574  0.7981  0.5444
11490TIP3    H155885   5.936   2.901   5.124 -1.3493 -4.6973  1.3403
11490TIP3    H255886   6.002   2.847   4.999 -1.2669  1.3839 -1.6182
11491TIP3   OH255887   1.193   1.235   2.420  0.1577  0.2010 -0.2879
11491TIP3    H155888   1.230   1.317   2.386  1.5524 -0.0255  0.6367
11491TIP3    H255889   1.105   1.232   2.382 -0.5121  2.8732  0.8074
11492TIP3   OH255890   1.327   1.981   2.064  0.3167 -0.5387  0.0491
11492TIP3    H155891   1.234   1.957   2.052  0.4999 -1.4126  0.3102
11492TIP3    H255892   1.325   2.055   2.123 -0.2970  0.3560 -1.0436
11493TIP3   OH255893   3.362   5.781   3.229 -0.3545 -0.4543  0.1795
11493TIP3    H155894   3.425   5.756   3.298  0.2985 -0.1803 -0.3073
11493TIP3    H255895   3.285   5.812   3.277  1.0458  2.2249  0.8650
11494TIP3   OH255896   0.389   2.724   4.307  0.0684  0.3978  0.0431
11494TIP3    H155897   0.389   2.744   4.401  1.9815 -1.9427  0.6451
11494TIP3    H255898   0.474   2.683   4.292  0.7307  2.6219 -3.2178
11495TIP3   OH255899   4.379   6.502  11.080  0.3927  0.1260 -0.0149
11495TIP3    H155900   4.405   6.422  11.034 -1.6158  0.4506 -1.9147
11495TIP3    H255901   4.314   6.542  11.022 -2.2196  0.6806  3.0458
11496TIP3   OH255902   4.996   3.596  16.495 -0.1617 -0.3676 -0.2709
11496TIP3    H155903   5.043   3.641  16.424 -0.6728 -0.4594 -0.6754
11496TIP3    H255904   4.991   3.661  16.565 -3.5356  1.4162 -1.9100
11497TIP3   OH255905   2.169   2.801  14.658 -0.0270 -0.0449  0.6852
11497TIP3    H155906   2.178   2.887  14.698  1.0427 -0.4662  1.3893
11497TIP3    H255907   2.219   2.742  14.714  0.2001 -0.9369 -0.4024
11498TIP3   OH255908   0.379   4.024   6.018  0.3272  0.6890 -0.1472
11498TIP3    H155909   0.320   4.055   6.087  1.5426 -0.7153  1.6242
11498TIP3    H255910   0.461   4.070   6.035  1.1483 -0.9147  0.4808
11499TIP3   OH255911   4.187   3.407   1.494 -0.4127 -0.4490  0.1167
11499TIP3    H155912   4.283   3.403   1.490 -0.4408 -0.6114 -0.3994
11499TIP3    H255913   4.165   3.493   1.460 -0.4564 -0.4368  0.1756
11500TIP3   OH255914   4.183   0.888  13.624 -0.1758  0.0779  0.5196
11500TIP3    H155915   4.157   0.851  13.540  0.0911 -1.0335  0.9058
11500TIP3    H255916   4.223   0.815  13.671  3.0674  1.5236  0.2146
11501TIP3   OH255917   0.340   0.053   3.362  0.4258  0.0100  0.3376
11501TIP3    H155918   0.291   0.096   3.432  1.7533  1.7263  0.2535
11501TIP3    H255919   0.360   0.122   3.300  2.7889 -0.6496  0.2797
11502TIP3   OH255920   1.419   0.552   2.149 -0.1661 -0.1310 -0.2853
11502TIP3    H155921   1.422   0.620   2.082 -0.5954  0.6427  0.4575
11502TIP3    H255922   1.456   0.475   2.107 -0.4557  0.3269 -1.4204
11503TIP3   OH255923   3.131   2.386  12.611 -0.3354  0.3903  0.0110
11503TIP3    H155924   3.065   2.414  12.547 -0.4255  0.6483  0.2159
11503TIP3    H255925   3.112   2.437  12.689 -0.4108 -0.1468  0.3483
11504TIP3   OH255926   6.375   0.802   2.300 -0.1059 -0.1677 -0.2340
11504TIP3    H155927   6.441   0.835   2.239 -1.9078  2.3835 -0.9805
11504TIP3    H255928   6.375   0.865   2.372 -2.4375  0.5654 -0.8030
11505TIP3   OH255929   6.024   1.098  15.902 -0.4425 -0.6087 -0.1443
11505TIP3    H155930   6.015   1.193  15.908  2.3441 -0.2981  0.6336
11505TIP3    H255931   5.966   1.064  15.970  1.1246  0.8151  2.0397
11506TIP3   OH255932   4.883   1.373   3.413 -0.1229  0.2227  0.3005
11506TIP3    H155933   4.893   1.284   3.445 -0.3733 -0.3920 -1.2256
11506TIP3    H255934   4.944   1.425   3.465 -0.1267 -0.7939  1.3489
11507TIP3   OH255935   6.743   5.136   3.385  0.0355  0.0354  0.0806
11507TIP3    H155936   6.713   5.217   3.342  0.5974  0.8513  1.1833
11507TIP3    H255937   6.816   5.106   3.331 -0.1499  0.2767 -0.3139
11508TIP3   OH255938   2.411   0.157   5.529 -0.1396 -0.0913  1.4322
11508TIP3    H155939   2.467   0.095   5.576  1.1188  0.8265  1.1884
11508TIP3    H255940   2.472   0.218   5.488 -1.3303  0.9663  1.1796
11509TIP3   OH255941   2.420   2.307  15.907  0.1367  0.3958 -0.3946
11509TIP3    H155942   2.431   2.362  15.984 -2.1503  1.8744 -1.0173
11509TIP3    H255943   2.507   2.302  15.867  1.0609  0.7564  1.4942
11510TIP3   OH255944   4.295   3.766   4.950 -0.0892 -0.4570 -0.0197
11510TIP3    H155945   4.248   3.714   4.884 -1.9066  1.0626 -0.0057
11510TIP3    H255946   4.244   3.755   5.030  0.9636 -0.6562  0.6457
11511TIP3   OH255947   6.598   2.233  14.196  0.4500 -0.4856 -0.2363
11511TIP3    H155948   6.652   2.218  14.118  0.9628 -0.2990  0.0779
11511TIP3    H255949   6.613   2.156  14.251  0.8230 -0.1765  0.0945
11512TIP3   OH255950   4.749   2.897  13.866  0.0408 -1.1078  0.0833
11512TIP3    H155951   4.739   2.974  13.922 -1.9071  0.0232 -1.6756
11512TIP3    H255952   4.669   2.846  13.880  0.6575 -2.1003  0.1330
11513TIP3   OH255953   6.077   0.267  16.881  0.0156 -0.3718 -0.0936
11513TIP3    H155954   6.148   0.299  16.825  0.2001 -1.6089 -0.5965
11513TIP3    H255955   6.119   0.203  16.938 -0.6049 -0.7805 -0.0881
11514TIP3   OH255956   2.455   1.024   3.479  0.4454  0.7934  0.3001
11514TIP3    H155957   2.497   0.987   3.402 -0.1271 -0.4952  0.5608
11514TIP3    H255958   2.361   1.006   3.466  0.1713  1.9799  0.5543
11515TIP3   OH255959   1.315   6.792   2.590 -0.1995 -0.1074 -0.1168
11515TIP3    H155960   1.339   6.821   2.502  0.2326 -0.6235 -0.1717
11515TIP3    H255961   1.380   6.726   2.612 -0.3746 -0.0644  0.5468
11516TIP3   OH255962   2.025   4.286  15.032  0.2058  0.2391 -0.5439
11516TIP3    H155963   1.959   4.343  15.071 -0.1964  0.6085 -1.7142
11516TIP3    H255964   2.099   4.288  15.094 -0.7395  0.0710  0.6201
11517TIP3   OH255965   5.894   1.749   0.306  0.2831 -0.3935 -0.4369
11517TIP3    H155966   5.928   1.696   0.233  0.3443 -0.1679 -0.5735
11517TIP3    H255967   5.860   1.828   0.264 -0.6751 -0.7365 -0.3309
11518TIP3   OH255968   3.307   6.231  10.983 -0.3225 -0.0580 -0.0759
11518TIP3    H155969   3.315   6.317  10.942  1.0139  0.6324  1.5221
11518TIP3    H255970   3.334   6.169  10.916  0.2755  0.9054 -0.7411
11519TIP3   OH255971   5.775   4.713  16.359  0.1903 -0.6549  0.0349
11519TIP3    H155972   5.856   4.760  16.340 -0.7372  0.3352 -1.7506
11519TIP3    H255973   5.710   4.781  16.374 -0.7094 -1.3830 -0.4393
11520TIP3   OH255974   4.610   1.736   1.463 -0.4709  0.4679  0.2280
11520TIP3    H155975   4.585   1.822   1.497  1.0770  1.2155 -0.4228
11520TIP3    H255976   4.635   1.753   1.372  0.5335 -0.5465  0.2966
11521TIP3   OH255977   1.373   5.847  14.985 -0.1254  0.1542  0.2828
11521TIP3    H155978   1.363   5.821  15.077  1.1237 -0.4774  0.2547
11521TIP3    H255979   1.456   5.894  14.982 -0.9210  1.5898 -0.2458
11522TIP3   OH255980   4.240   3.147  14.140  0.1354  0.1718 -0.0279
11522TIP3    H155981   4.267   3.059  14.117  0.6733  0.1881  0.5006
11522TIP3    H255982   4.196   3.181  14.062 -0.5349 -0.7409 -0.0619
11523TIP3   OH255983   5.885   3.838  16.192 -0.7237 -0.2498  0.1982
11523TIP3    H155984   5.906   3.833  16.285 -0.0667  1.3709  0.1679
11523TIP3    H255985   5.927   3.761  16.154  1.0706  0.3290  0.9049
11524TIP3   OH255986   2.140   2.496   5.364  0.2970 -0.1888  0.0194
11524TIP3    H155987   2.225   2.490   5.407 -0.0902 -0.6216  0.7388
11524TIP3    H255988   2.148   2.571   5.305  0.2779  1.5234  2.0947
11525TIP3   OH255989   2.941   0.194  11.380 -0.0901  0.1861  0.5303
11525TIP3    H155990   2.948   0.208  11.285 -1.0578  0.3096  0.4668
11525TIP3    H255991   2.887   0.115  11.389  2.9529 -2.0327  0.9452
11526TIP3   OH255992   4.190   3.703   3.324  0.1031 -0.0357 -0.0356
11526TIP3    H155993   4.276   3.682   3.288  0.3418  1.5291 -0.4579
11526TIP3    H255994   4.201   3.696   3.419  0.9176  0.8968 -0.0486
11527TIP3   OH255995   5.506   3.586   4.571 -0.5384  0.0225  0.1124
11527TIP3    H155996   5.459   3.504   4.586  0.9519 -1.1843 -1.3728
11527TIP3    H255997   5.588   3.559   4.530  0.6451  2.1746  0.9057
11528TIP3   OH255998   6.772   1.418  11.924 -0.5686  0.1701  0.0358
11528TIP3    H155999   6.709   1.401  11.855  0.9574 -2.0415 -0.8909
11528TIP3    H256000   6.723   1.402  12.005 -1.9649  1.4147 -0.4997
11529TIP3   OH256001   0.257   2.426   0.510  0.3357 -0.0171  0.2432
11529TIP3    H156002   0.225   2.516   0.515 -2.3339 -0.9156  1.1041
11529TIP3    H256003   0.198   2.376   0.566  0.9608 -2.5166 -1.1575
11530TIP3   OH256004   3.694   0.970   1.178  0.5685  0.0385  0.0808
11530TIP3    H156005   3.671   1.032   1.247  1.3065  0.3887  0.0194
11530TIP3    H256006   3.654   1.007   1.099 -2.5164 -1.6800  0.6925
11531TIP3   OH256007   1.747   2.763   5.142  0.3620 -0.5754  0.0022
11531TIP3    H156008   1.831   2.794   5.109 -0.2975  0.8585 -0.4285
11531TIP3    H256009   1.713   2.836   5.193 -0.8923 -0.8877 -0.3463
11532TIP3   OH256010   3.319   3.376   3.862 -0.1838  0.3045 -0.0437
11532TIP3    H156011   3.325   3.371   3.957  0.0980  0.6366 -0.0424
11532TIP3    H256012   3.319   3.469   3.842  0.2373  0.2331 -0.3988
11533TIP3   OH256013   2.418   1.777  14.265  0.0136 -0.3551  1.1106
11533TIP3    H156014   2.495   1.812  14.309  0.1606  0.7956  0.0175
11533TIP3    H256015   2.393   1.846  14.203 -0.2140 -1.8402 -0.5375
11534TIP3   OH256016   2.271   2.426   1.113  0.0780 -0.0967 -0.2004
11534TIP3    H156017   2.248   2.511   1.149  0.0063 -0.4566  0.6200
11534TIP3    H256018   2.321   2.382   1.182  2.7498  0.3976 -1.6889
11535TIP3   OH256019   5.201   2.910   4.935  0.5403  0.5166 -0.8343
11535TIP3    H156020   5.158   2.977   4.882  1.2627  1.3349 -0.4205
11535TIP3    H256021   5.277   2.884   4.883  0.8112  0.7502 -0.5627
11536TIP3   OH256022   0.235   6.196  15.476  0.2464 -0.2637  0.9310
11536TIP3    H156023   0.220   6.261  15.407 -0.0606 -1.4594 -0.1798
11536TIP3    H256024   0.329   6.178  15.472  0.2288 -0.3343  0.7949
11537TIP3   OH256025   2.923   1.030   5.140 -0.5258  0.4873  0.1258
11537TIP3    H156026   2.973   1.024   5.221  0.1641  0.7601 -0.2772
11537TIP3    H256027   2.987   1.018   5.070 -1.3656 -1.4006 -0.3733
11538TIP3   OH256028   2.446   5.365  17.049 -0.3114  0.5085  0.2172
11538TIP3    H156029   2.506   5.310  16.999 -2.1371  0.4172 -2.0469
11538TIP3    H256030   2.484   5.452  17.046  0.0590  0.3279 -0.5933
11539TIP3   OH256031   1.806   4.394   2.528  0.2398 -0.4580 -0.6315
11539TIP3    H156032   1.844   4.441   2.602 -1.5894 -0.3816  0.3055
11539TIP3    H256033   1.719   4.369   2.557  0.2368 -2.2782 -2.0167
11540TIP3   OH256034   1.623   6.100  15.628  0.4079  0.5444  0.0260
11540TIP3    H156035   1.564   6.027  15.610  1.6558 -0.2581 -1.0044
11540TIP3    H256036   1.623   6.108  15.724  0.6677 -1.2031  0.2152
11541TIP3   OH256037   2.655   0.849   0.000 -0.4067 -0.5964 -0.3220
11541TIP3    H156038   2.682   0.758  -0.009 -0.2420 -1.0808  3.3029
11541TIP3    H256039   2.719   0.899  -0.050  0.1239 -2.3931 -1.5046
11542TIP3   OH256040   3.744   1.801   0.151  0.6168 -0.5074  0.0817
11542TIP3    H156041   3.814   1.831   0.209 -0.5742  1.6190  0.5555
11542TIP3    H256042   3.680   1.761   0.209 -0.7783  2.0055  0.4616
11543TIP3   OH256043   3.464   3.116  13.950 -0.2824 -0.4476  0.2061
11543TIP3    H156044   3.492   3.070  14.030 -0.9719  0.7105  1.1324
11543TIP3    H256045   3.542   3.114  13.894  0.4416 -0.6553  1.1836
11544TIP3   OH256046   4.207   4.580  16.872 -0.5474  0.3445 -0.3897
11544TIP3    H156047   4.172   4.623  16.794 -2.7635 -0.9277 -0.1958
11544TIP3    H256048   4.133   4.528  16.906  1.3885 -2.0277  0.4947
11545TIP3   OH256049   5.075   5.177  13.761  0.5419 -0.5989 -0.0380
11545TIP3    H156050   4.986   5.167  13.728 -0.1377  0.2665  1.4519
11545TIP3    H256051   5.131   5.150  13.688 -0.9066 -0.0322 -1.4051
11546TIP3   OH256052   4.849   6.354  11.535 -0.5067 -0.0502  0.0839
11546TIP3    H156053   4.783   6.353  11.604 -0.6622  0.1808 -0.0570
11546TIP3    H256054   4.807   6.312  11.460  0.3594 -2.1959  0.7276
11547TIP3   OH256055   3.461   6.163  12.271  0.0914  0.5217 -0.1027
11547TIP3    H156056   3.553   6.165  12.246  0.5070  2.2085  1.3867
11547TIP3    H256057   3.416   6.205  12.197  0.8691  2.1519  0.2964
11548TIP3   OH256058   6.199   3.858   3.601 -0.3574  0.2547 -0.4798
11548TIP3    H156059   6.288   3.839   3.573  0.0200  0.2947  0.6542
11548TIP3    H256060   6.149   3.779   3.578  0.5899 -1.0130  1.5445
11549TIP3   OH256061   3.809   4.675   2.385 -0.0311  0.3775 -0.1164
11549TIP3    H156062   3.881   4.700   2.444 -0.8672  0.4453  0.9066
11549TIP3    H256063   3.783   4.757   2.344  1.2181  0.1764 -1.3844
11550TIP3   OH256064   4.034   0.742  14.437  0.3294 -0.2094 -0.0074
11550TIP3    H156065   4.113   0.785  14.469 -0.2624 -0.1003  1.4157
11550TIP3    H256066   4.030   0.764  14.344  0.1110  2.8211  0.5999
11551TIP3   OH256067   0.371   5.607   0.923  0.2133  0.0166  0.4971
11551TIP3    H156068   0.352   5.616   0.830  0.4883 -0.1378  0.4255
11551TIP3    H256069   0.329   5.524   0.948  2.4936 -1.4207 -0.1285
11552TIP3   OH256070   6.448   0.801  16.968 -0.0687 -0.4492 -0.3841
11552TIP3    H156071   6.490   0.754  17.039  1.0016  2.1649  0.8349
11552TIP3    H256072   6.520   0.842  16.920 -0.8438 -1.2480 -2.3488
11553TIP3   OH256073   4.055   1.770  16.047 -0.3347  0.3835  0.1087
11553TIP3    H156074   4.081   1.793  16.136 -3.3388  1.9246  0.6953
11553TIP3    H256075   4.061   1.852  15.998 -1.1281  0.1096 -0.4636
11554TIP3   OH256076   1.525   3.648   1.855  0.5371  0.3145  0.1449
11554TIP3    H156077   1.484   3.618   1.774  1.3988  0.3049 -0.2988
11554TIP3    H256078   1.472   3.723   1.883  0.5919  0.6965 -0.7570
11555TIP3   OH256079   4.703   1.064   2.521 -0.2885 -0.5727 -0.3481
11555TIP3    H156080   4.797   1.078   2.529 -0.1763 -1.3148 -0.2659
11555TIP3    H256081   4.676   1.031   2.607 -0.0646 -3.2552 -1.1940
11556TIP3   OH256082   3.403   5.319  10.972  0.3463 -0.0846 -0.2432
11556TIP3    H156083   3.497   5.340  10.969  0.6239 -1.1050  0.7987
11556TIP3    H256084   3.393   5.244  10.913  0.2813 -0.3254  0.0747
11557TIP3   OH256085   2.517   0.669   3.967 -0.2141 -0.2419  0.5930
11557TIP3    H156086   2.537   0.596   4.025  0.7022 -0.0202  0.5688
11557TIP3    H256087   2.532   0.635   3.879 -1.5595 -0.5650  0.4654
11558TIP3   OH256088   3.629   2.285  16.736  0.0926 -0.2474  0.1301
11558TIP3    H156089   3.617   2.376  16.763 -1.3896  0.0718 -1.3924
11558TIP3    H256090   3.590   2.234  16.807 -1.8108  0.4741 -0.3294
11559TIP3   OH256091   0.236   6.043   2.107  0.1313  0.4484 -0.2964
11559TIP3    H156092   0.145   6.030   2.132  0.1542 -1.8202 -1.1260
11559TIP3    H256093   0.233   6.057   2.012  0.6590 -0.3146 -0.4403
11560TIP3   OH256094   6.280   0.187  15.356  0.8957 -0.0329  0.5094
11560TIP3    H156095   6.258   0.277  15.380 -0.3300 -0.5807  1.5925
11560TIP3    H256096   6.334   0.195  15.277 -0.6049  1.5887 -0.4236
11561TIP3   OH256097   5.250   3.947  11.401  0.5121  0.0618 -0.1279
11561TIP3    H156098   5.195   3.943  11.323 -1.0684 -0.6837  0.9567
11561TIP3    H256099   5.188   3.943  11.474  2.0301 -1.8642  1.1770
11562TIP3   OH256100   3.591   4.913   0.696  0.2496  0.0140  0.4068
11562TIP3    H156101   3.584   4.818   0.685  1.2112 -0.1302  0.9011
11562TIP3    H256102   3.568   4.949   0.611 -0.3020 -0.6460  0.2599
11563TIP3   OH256103   3.338   2.760   3.984 -0.2371 -0.6738 -0.3657
11563TIP3    H156104   3.401   2.747   4.055 -1.0743 -0.1005  0.5168
11563TIP3    H256105   3.253   2.749   4.026 -0.7680  0.4445 -1.1003
11564TIP3   OH256106   1.745   0.807  13.716 -0.3235  0.5231 -0.0530
11564TIP3    H156107   1.832   0.775  13.740 -0.2432  0.4519 -0.4216
11564TIP3    H256108   1.697   0.812  13.798  0.0935  0.7581  0.1831
11565TIP3   OH256109   0.277   4.131  16.099  0.5887  0.4001 -0.1603
11565TIP3    H156110   0.360   4.096  16.067  0.6593  0.5613 -0.1519
11565TIP3    H256111   0.288   4.137  16.194  0.1244 -0.7554 -0.0242
11566TIP3   OH256112   4.022   1.033   2.027  0.0704  0.7116 -0.6468
11566TIP3    H156113   3.994   1.078   1.947  0.0289  0.9571 -0.4930
11566TIP3    H256114   4.109   0.998   2.005 -1.2612 -2.1144 -1.9641
11567TIP3   OH256115   1.703   5.378   6.759 -0.0429  0.1943  0.1972
11567TIP3    H156116   1.742   5.291   6.753  0.0561  0.1343  1.4768
11567TIP3    H256117   1.777   5.439   6.755  0.0569  0.1407  1.0130
11568TIP3   OH256118   3.304   6.475  14.631  0.2274  0.3768  0.5176
11568TIP3    H156119   3.350   6.433  14.703  0.3088  1.6750  1.2493
11568TIP3    H256120   3.369   6.479  14.560 -0.0180 -1.3890  0.1460
11569TIP3   OH256121   3.451   3.353  14.412  0.1074  0.2904  0.0307
11569TIP3    H156122   3.531   3.385  14.372 -0.2446  0.2491 -0.7146
11569TIP3    H256123   3.387   3.422  14.397 -1.2092 -1.4724 -3.3553
11570TIP3   OH256124   6.691   5.604  13.267  0.5244  0.1361 -0.1336
11570TIP3    H156125   6.653   5.611  13.354  1.6614 -1.4648  0.5551
11570TIP3    H256126   6.714   5.694  13.243  1.4267  0.4854  1.8304
11571TIP3   OH256127   5.639   5.673   4.431 -0.2294  0.0272  0.6475
11571TIP3    H156128   5.603   5.729   4.500  0.6540  1.7609 -0.2280
11571TIP3    H256129   5.563   5.629   4.394 -0.6948 -1.1873  2.8642
11572TIP3   OH256130   2.494   3.978  14.823 -0.3394  0.7204 -0.0396
11572TIP3    H156131   2.451   4.047  14.772 -1.0149 -0.4440 -1.0989
11572TIP3    H256132   2.574   3.959  14.776 -1.9870 -1.8861 -2.0516
11573TIP3   OH256133   5.364   5.875   6.087 -0.0437 -0.1333  0.1260
11573TIP3    H156134   5.276   5.839   6.076 -0.0373 -0.2707  0.4887
11573TIP3    H256135   5.414   5.803   6.127  0.2030 -0.0190  0.0229
11574TIP3   OH256136   0.239   2.227  11.311 -0.1518 -0.6889 -0.6888
11574TIP3    H156137   0.286   2.144  11.302  1.9273  0.3251  0.0551
11574TIP3    H256138   0.215   2.251  11.222 -1.6492 -2.5091 -0.8281
11575TIP3   OH256139   5.675   4.355  10.639 -0.1644 -0.1128 -0.1660
11575TIP3    H156140   5.585   4.329  10.659 -0.4138 -0.4184 -1.5664
11575TIP3    H256141   5.725   4.329  10.716 -1.1011 -0.9714  0.1740
11576TIP3   OH256142   1.522   6.076  13.466 -0.0845 -0.2314  0.3634
11576TIP3    H156143   1.488   6.020  13.397 -3.1273 -0.8738  2.1396
11576TIP3    H256144   1.548   6.016  13.536 -1.6653  0.4104  1.5850
11577TIP3   OH256145   1.879   0.129  13.551 -0.4965  0.4105 -0.5428
11577TIP3    H156146   1.809   0.065  13.566  0.2781 -0.3208 -0.0076
11577TIP3    H256147   1.833   0.213  13.547 -1.4575 -0.0980 -0.6454
11578TIP3   OH256148   3.485   3.613  10.719 -0.2862 -0.2081  0.0269
11578TIP3    H156149   3.506   3.520  10.716 -0.6717 -0.3029  0.2326
11578TIP3    H256150   3.402   3.620  10.671 -0.3310  0.0083  0.1359
11579TIP3   OH256151   5.214   1.007   4.903 -0.3833  0.1070 -0.4925
11579TIP3    H156152   5.193   1.093   4.866  0.1304 -0.2860 -1.7234
11579TIP3    H256153   5.147   0.993   4.969 -1.4639  0.7225 -1.4289
11580TIP3   OH256154   1.251   1.930   4.989  0.4971 -0.0511 -0.5222
11580TIP3    H156155   1.217   1.979   5.064  0.6446 -1.3162  0.4263
11580TIP3    H256156   1.303   1.993   4.940 -0.6601  1.1322 -0.2744
11581TIP3   OH256157   1.532   0.591   0.147  0.1058 -0.0160  0.1915
11581TIP3    H156158   1.534   0.658   0.078  0.9127  1.0387  1.1967
11581TIP3    H256159   1.624   0.570   0.162 -0.1732 -2.3241 -0.9722
11582TIP3   OH256160   6.123   3.156   5.607  0.0643  0.3230 -0.1457
11582TIP3    H156161   6.132   3.121   5.518 -0.2243 -1.1002  0.3586
11582TIP3    H256162   6.213   3.167   5.638  0.1601  0.2910 -0.4110
11583TIP3   OH256163   4.717   6.091  12.921 -0.1130 -0.1812 -0.2105
11583TIP3    H156164   4.719   6.114  12.828 -0.1197 -1.0102 -0.4293
11583TIP3    H256165   4.648   6.024  12.927  0.3479 -0.6157  0.2715
11584TIP3   OH256166   4.094   5.796  10.454  0.1554 -0.2785  0.0864
11584TIP3    H156167   4.067   5.827  10.541 -3.2839 -0.1874 -0.8747
11584TIP3    H256168   4.187   5.778  10.464  0.2987  1.3334  3.3180
11585TIP3   OH256169   1.911   4.749  15.454 -0.1328  0.1523  0.6360
11585TIP3    H156170   1.970   4.781  15.523  1.1977  0.0796 -0.4214
11585TIP3    H256171   1.890   4.828  15.403 -1.1425  0.2140  1.1378
11586TIP3   OH256172   4.092   4.111   1.356  0.7432 -0.8586 -0.0285
11586TIP3    H156173   4.015   4.092   1.301  0.4774 -0.9044  0.3536
11586TIP3    H256174   4.057   4.163   1.429  0.7854 -2.2345  1.0076
11587TIP3   OH256175   4.917   4.885   5.692 -0.1898  0.0598  0.3423
11587TIP3    H156176   4.884   4.908   5.605 -2.0278 -0.4822  0.8503
11587TIP3    H256177   4.846   4.909   5.752  0.9842  0.2926  1.6956
11588TIP3   OH256178   5.693   1.343   5.128 -0.0542  0.1600  0.1183
11588TIP3    H156179   5.731   1.415   5.079  0.0364 -0.5640 -0.8923
11588TIP3    H256180   5.733   1.349   5.215  2.7135 -0.8050 -0.9802
11589TIP3   OH256181   4.661   2.574   5.913  0.8456 -0.9360 -0.4344
11589TIP3    H156182   4.722   2.565   5.986  2.6600  1.4569 -1.4924
11589TIP3    H256183   4.595   2.636   5.944 -0.7441 -2.9475  0.4452
11590TIP3   OH256184   4.568   2.691  16.848  0.1666  0.2754  0.0614
11590TIP3    H156185   4.619   2.661  16.923  0.4752  1.1175  0.1976
11590TIP3    H256186   4.594   2.633  16.776  0.4592 -0.0271  0.4108
11591TIP3   OH256187   4.616   2.531  16.636 -0.0682  0.1994 -0.4746
11591TIP3    H156188   4.565   2.450  16.642 -0.1112  0.2961  0.8650
11591TIP3    H256189   4.594   2.567  16.551 -0.7168 -0.7679 -0.7365
11592TIP3   OH256190   1.725   4.851   3.074 -0.0844  0.2894 -0.2886
11592TIP3    H156191   1.663   4.778   3.074 -1.5297  1.3522 -2.8876
11592TIP3    H256192   1.787   4.829   3.004  0.4126  0.8219 -0.0158
11593TIP3   OH256193   0.233   6.230  11.662 -0.1389 -0.0270 -0.5858
11593TIP3    H156194   0.292   6.267  11.596  1.8636 -2.0743 -0.0975
11593TIP3    H256195   0.291   6.207  11.735 -1.9205 -0.0983  0.8747
11594TIP3   OH256196   2.512   0.351   1.843 -0.1311  0.1455  0.1978
11594TIP3    H156197   2.519   0.439   1.807 -1.6495  1.3204  2.5547
11594TIP3    H256198   2.601   0.328   1.868  0.1380  1.4795  0.5432
11595TIP3   OH256199   6.746   2.590   5.127  0.3228 -0.1413 -0.0411
11595TIP3    H156200   6.726   2.549   5.043 -0.7260  1.4262 -0.6072
11595TIP3    H256201   6.683   2.552   5.188  0.7347 -0.8895 -0.0785
11596TIP3   OH256202   1.185   5.134   0.228 -0.5886  0.3094 -0.2104
11596TIP3    H156203   1.155   5.220   0.197 -0.1962 -0.2109 -2.1594
11596TIP3    H256204   1.279   5.146   0.242 -0.5622  0.2516 -0.3327
11597TIP3   OH256205   5.632   1.648  16.305  0.2458 -0.2686  0.2847
11597TIP3    H156206   5.586   1.580  16.256  0.1562  1.0296 -1.5146
11597TIP3    H256207   5.724   1.638  16.280  0.6082 -1.1323  1.7949
11598TIP3   OH256208   6.146   4.300  14.589  0.0164  0.1566 -0.3883
11598TIP3    H156209   6.188   4.292  14.504 -1.9164 -0.2672 -1.3812
11598TIP3    H256210   6.158   4.214  14.630 -2.3325 -1.0444 -1.9534
11599TIP3   OH256211   4.248   5.915   3.475  0.5013 -0.5071  0.4389
11599TIP3    H156212   4.237   5.982   3.543  0.4101 -1.4136  1.3583
11599TIP3    H256213   4.287   5.841   3.522  2.6385 -0.3633 -0.9713
11600TIP3   OH256214   3.417   0.315   5.701  0.1950 -0.2182 -0.0227
11600TIP3    H156215   3.462   0.370   5.637 -0.7981  0.0896 -0.4654
11600TIP3    H256216   3.481   0.304   5.772  1.3474 -0.6548 -1.0937
11601TIP3   OH256217   6.155   0.085   6.119 -0.0323  0.4903 -0.3796
11601TIP3    H156218   6.152   0.038   6.202  1.7213  3.2903  1.4535
11601TIP3    H256219   6.198   0.024   6.059  0.4848 -0.9105  1.3148
11602TIP3   OH256220   0.805   5.152  13.377 -0.3412  0.6000 -0.1590
11602TIP3    H156221   0.831   5.112  13.459 -0.4216  2.3871  0.7914
11602TIP3    H256222   0.711   5.133  13.369 -0.8933  2.3589  1.4036
11603TIP3   OH256223   2.747   2.526   3.699 -0.0449 -0.1567  0.0746
11603TIP3    H156224   2.838   2.496   3.703 -0.3552 -1.2214 -0.5207
11603TIP3    H256225   2.703   2.477   3.768 -0.0110  1.0305  0.9832
11604TIP3   OH256226   0.896   4.136   5.873  0.2120 -0.4473  0.2549
11604TIP3    H156227   0.946   4.216   5.889 -1.7908  0.8243  0.4515
11604TIP3    H256228   0.930   4.074   5.937  0.5590  0.8259  1.3623
11605TIP3   OH256229   1.490   6.198  16.489  0.1383 -0.0236 -0.1258
11605TIP3    H156230   1.572   6.219  16.533  1.3007 -0.6486 -1.8651
11605TIP3    H256231   1.466   6.280  16.444 -0.0950  0.1106  0.2456
11606TIP3   OH256232   1.378   6.364   0.609 -0.4261 -0.3514 -0.3552
11606TIP3    H156233   1.349   6.297   0.546  1.1427 -0.9832 -0.4614
11606TIP3    H256234   1.435   6.421   0.558  0.2004 -0.3749  0.3080
11607TIP3   OH256235   4.355   3.509   2.330  0.0203  0.3248  0.1185
11607TIP3    H156236   4.294   3.504   2.403  0.5378  0.6420  0.5720
11607TIP3    H256237   4.409   3.430   2.338  0.6357  0.7783  0.5869
11608TIP3   OH256238   6.443   5.882  16.648  0.2159 -0.1924  0.2261
11608TIP3    H156239   6.493   5.813  16.693 -0.5517 -0.3634  0.8555
11608TIP3    H256240   6.509   5.944  16.618  0.9806 -1.4465 -0.8032
11609TIP3   OH256241   4.678   6.733  12.690  0.5107  0.1642  0.0865
11609TIP3    H156242   4.650   6.667  12.627  1.9688 -0.9205  0.5315
11609TIP3    H256243   4.705   6.684  12.767 -0.6293  1.4268  1.3574
11610TIP3   OH256244   0.756   6.023   6.069  0.5314 -0.3797 -0.1816
11610TIP3    H156245   0.833   6.078   6.081 -0.0444  0.8300 -1.7316
11610TIP3    H256246   0.773   5.946   6.124  2.6999 -0.0234 -0.2662
11611TIP3   OH256247   4.942   5.151   1.366 -0.3006 -0.2139  0.2229
11611TIP3    H156248   4.896   5.084   1.416  0.8600 -1.1084  0.1572
11611TIP3    H256249   4.967   5.217   1.430  1.4670 -1.5123  0.9602
11612TIP3   OH256250   2.983   1.565  16.706 -0.4978  0.0420  0.4384
11612TIP3    H156251   3.038   1.493  16.736 -0.9673 -1.2270 -1.5097
11612TIP3    H256252   2.904   1.558  16.759  0.4512  0.7623  2.0171
11613TIP3   OH256253   4.516   1.819  11.996  0.1606 -0.0243 -0.6594
11613TIP3    H156254   4.473   1.904  11.995 -0.4498 -0.2982  0.7415
11613TIP3    H256255   4.459   1.763  12.048  2.0470 -0.4521  1.0925
11614TIP3   OH256256   3.432   2.743   3.393 -0.0653 -0.2311  0.1445
11614TIP3    H156257   3.521   2.735   3.360 -0.5183  1.6464 -1.7682
11614TIP3    H256258   3.417   2.837   3.399 -2.6996 -0.3598 -2.0714
11615TIP3   OH256259   6.328   0.196  15.739  0.0826 -0.0042 -0.2860
11615TIP3    H156260   6.317   0.136  15.813  1.5213  0.4102  0.2986
11615TIP3    H256261   6.347   0.138  15.665 -3.0713 -0.5546 -0.7975
11616TIP3   OH256262   4.305   1.092   1.646  0.5442  0.4780 -0.5530
11616TIP3    H156263   4.257   1.010   1.636  0.6250 -0.3888  3.8992
11616TIP3    H256264   4.393   1.066   1.673  0.5617  1.9676  1.0025
11617TIP3   OH256265   3.373   4.553  14.013 -0.2310 -0.0598 -0.2874
11617TIP3    H156266   3.281   4.526  14.019 -0.7621  1.5014 -1.0499
11617TIP3    H256267   3.418   4.475  13.980 -1.3340 -0.7449 -0.2330
11618TIP3   OH256268   2.059   0.996   2.774 -0.4090  0.0198 -1.0875
11618TIP3    H156269   2.050   0.905   2.743 -2.0908  0.3947 -1.8316
11618TIP3    H256270   1.969   1.027   2.781  0.1638  1.8364 -1.4249
11619TIP3   OH256271   2.130   5.681  14.218 -0.2051 -0.4469  0.9647
11619TIP3    H156272   2.136   5.586  14.226 -0.9593 -0.5975 -0.0695
11619TIP3    H256273   2.092   5.696  14.131  2.5092  0.8748 -0.1296
11620TIP3   OH256274   3.257   0.648  15.149  0.6280  0.0932 -0.4219
11620TIP3    H156275   3.286   0.711  15.083  0.3652  0.4176 -0.2342
11620TIP3    H256276   3.197   0.590  15.103  1.4036 -0.4534 -0.7630
11621TIP3   OH256277   6.349   5.436  15.735  0.1465  0.0250 -0.2082
11621TIP3    H156278   6.272   5.485  15.762  0.3401  0.3140 -0.1736
11621TIP3    H256279   6.378   5.390  15.814 -0.1949 -0.3689 -0.3059
11622TIP3   OH256280   4.772   3.123   1.559 -0.2621  0.1781  0.3366
11622TIP3    H156281   4.693   3.069   1.567  1.4967 -2.6581 -0.0420
11622TIP3    H256282   4.799   3.112   1.467  0.6017  1.0373  0.4783
11623TIP3   OH256283   6.053   2.631   2.329  0.0317 -0.5084  0.0179
11623TIP3    H156284   6.130   2.682   2.303 -0.5534 -0.0586 -0.8751
11623TIP3    H256285   6.071   2.543   2.299 -1.5186  0.3734 -4.0645
11624TIP3   OH256286   2.004   5.493   6.093 -0.3354  0.5034 -0.0347
11624TIP3    H156287   1.957   5.542   6.160  1.0139  0.9581  0.6137
11624TIP3    H256288   2.007   5.403   6.128  0.5958  0.7921  0.6687
11625TIP3   OH256289   0.543   5.682   0.155 -0.1514  0.1381 -0.1038
11625TIP3    H156290   0.634   5.709   0.142  0.1358 -0.1744  1.0791
11625TIP3    H256291   0.492   5.737   0.096  0.8814 -0.3324 -1.4957
11626TIP3   OH256292   0.114   4.983  14.491 -0.0640  0.3812 -0.1520
11626TIP3    H156293   0.171   5.056  14.468 -1.0098  1.0504 -0.4387
11626TIP3    H256294   0.070   4.961  14.409  0.9796 -1.2250 -0.3176
11627TIP3   OH256295   3.501   3.754  13.145  0.2472 -0.1199  0.6347
11627TIP3    H156296   3.527   3.818  13.212 -1.3722  1.1268  0.1248
11627TIP3    H256297   3.483   3.674  13.194 -0.1803  0.5583  1.6191
11628TIP3   OH256298   3.079   1.654  14.768  0.5799 -0.3589  0.6380
11628TIP3    H156299   2.998   1.606  14.781 -0.2394  0.6885 -0.3148
11628TIP3    H256300   3.074   1.684  14.677  1.0807  1.4114  1.1459
11629TIP3   OH256301   4.819   6.428  15.008 -0.0178  0.8783  0.2482
11629TIP3    H156302   4.890   6.473  15.054 -0.8604  2.5112  0.0326
11629TIP3    H256303   4.740   6.473  15.037 -0.7825  0.4060 -1.0126
11630TIP3   OH256304   4.848   2.970   1.841 -0.0781 -0.1088 -0.3828
11630TIP3    H156305   4.797   2.999   1.765 -2.7223  0.6966  1.5491
11630TIP3    H256306   4.939   2.990   1.818 -0.8398  0.7398 -3.0178
11631TIP3   OH256307   4.800   3.472  15.678 -0.2256  0.5346 -0.0285
11631TIP3    H156308   4.768   3.466  15.588  0.2757 -0.8924 -0.1287
11631TIP3    H256309   4.876   3.530  15.673 -0.5965  0.9967 -0.4007
11632TIP3   OH256310   5.665   4.122   6.290  0.4378  1.0560  0.4582
11632TIP3    H156311   5.569   4.118   6.292  0.4440  0.0074  3.0332
11632TIP3    H256312   5.684   4.212   6.264 -1.1638  0.7911 -1.9363
11633TIP3   OH256313   0.137   2.421  12.205  0.2057  0.5323 -0.8256
11633TIP3    H156314   0.134   2.326  12.198 -0.5919  0.4799  0.0014
11633TIP3    H256315   0.047   2.446  12.228  1.1804  1.0772  3.2263
11634TIP3   OH256316   3.595   3.262  13.616 -0.1253  0.2066  0.3652
11634TIP3    H156317   3.510   3.234  13.651 -0.5695  0.1401 -0.7308
11634TIP3    H256318   3.573   3.318  13.542  0.7897  0.1039  0.0067
11635TIP3   OH256319   4.867   3.012   1.338 -0.3262  0.0841 -0.7150
11635TIP3    H156320   4.953   3.054   1.341 -1.3180  2.2036  0.0656
11635TIP3    H256321   4.884   2.922   1.364  2.0153 -0.2930 -3.0543
11636TIP3   OH256322   0.302   3.266  14.604  0.3217  0.4032  0.1705
11636TIP3    H156323   0.335   3.310  14.526 -1.4458  0.7352 -0.4210
11636TIP3    H256324   0.221   3.311  14.626  0.5440  0.0435  1.9691
11637TIP3   OH256325   4.624   5.059  16.937  0.3281  0.0457 -0.1256
11637TIP3    H156326   4.633   5.154  16.925 -0.2499  0.0499 -0.6144
11637TIP3    H256327   4.529   5.046  16.947  0.5932 -0.0616  3.9078
11638TIP3   OH256328   4.779   1.844  12.088  0.0550  0.6687 -0.2067
11638TIP3    H156329   4.805   1.933  12.113 -0.1371  1.5067 -2.7802
11638TIP3    H256330   4.692   1.854  12.049  0.2263 -0.5697 -0.9812
11639TIP3   OH256331   0.141   5.364  16.828 -0.1675  0.3951 -0.6479
11639TIP3    H156332   0.109   5.294  16.771 -1.0616 -0.4088  0.7765
11639TIP3    H256333   0.088   5.356  16.907  1.7863  0.7341  0.7615
11640TIP3   OH256334   5.461   5.364  14.939  0.8548 -0.3580 -0.4132
11640TIP3    H156335   5.405   5.439  14.956  0.3359 -0.2321 -2.3599
11640TIP3    H256336   5.549   5.394  14.959  0.3442 -0.3826  2.1604
11641TIP3   OH256337   4.248   1.909   0.927  0.1020 -0.2941  0.1829
11641TIP3    H156338   4.246   1.814   0.934  0.8291 -0.2945  0.4748
11641TIP3    H256339   4.341   1.931   0.926 -0.0612  0.4261  0.2699
11642TIP3   OH256340   2.906   4.753  12.131  0.0903 -0.0954  0.1941
11642TIP3    H156341   2.896   4.709  12.047  1.4327 -0.9752  0.4553
11642TIP3    H256342   2.852   4.701  12.192  0.1411 -0.2292  0.1262
11643TIP3   OH256343   3.291   2.917  12.085  0.4561  0.5476  0.1527
11643TIP3    H156344   3.385   2.925  12.076  0.8768 -1.8693  1.3217
11643TIP3    H256345   3.279   2.874  12.170 -1.7015  0.8555  0.0666
11644TIP3   OH256346   0.728   6.546   0.930 -0.4276 -0.5432 -0.1820
11644TIP3    H156347   0.718   6.639   0.950  0.0938 -0.5679  0.2114
11644TIP3    H256348   0.823   6.531   0.929 -0.5108 -1.1414  0.0979
11645TIP3   OH256349   6.764   1.373   3.708 -0.5997 -0.5891  0.2057
11645TIP3    H156350   6.779   1.380   3.614 -1.1555 -0.3432  0.1296
11645TIP3    H256351   6.798   1.455   3.744 -0.1776 -0.7799  0.2534
11646TIP3   OH256352   0.154   4.892  15.212  0.4496  0.7398  0.3934
11646TIP3    H156353   0.165   4.842  15.132 -0.0345  0.1411  0.6945
11646TIP3    H256354   0.145   4.983  15.183  0.4441  0.5468 -0.2129
11647TIP3   OH256355   3.402   3.811  16.497 -0.0765  0.0732 -0.4391
11647TIP3    H156356   3.328   3.769  16.452 -0.3144 -0.5385  0.4879
11647TIP3    H256357   3.369   3.828  16.586  0.9227 -0.2950  0.0173
11648TIP3   OH256358   1.162   1.338  14.026 -0.6688 -0.6103  0.0123
11648TIP3    H156359   1.237   1.344  13.968 -0.8772  0.1446 -0.1934
11648TIP3    H256360   1.115   1.260  13.997 -0.0601 -0.9909  0.0361
11649TIP3   OH256361   5.011   5.353   3.800  0.6215 -0.1274  0.4922
11649TIP3    H156362   5.099   5.315   3.801  0.8314  0.3531  1.4379
11649TIP3    H256363   5.019   5.428   3.741  0.2822 -1.3237 -1.1320
11650TIP3   OH256364   1.282   0.228   1.624 -0.2195  0.3175  0.3099
11650TIP3    H156365   1.373   0.257   1.625 -0.4714  1.1312  0.1145
11650TIP3    H256366   1.287   0.133   1.635  0.5815  0.4959  1.6677
11651TIP3   OH256367   0.397   5.369   1.871  0.0933 -0.2797 -0.1685
11651TIP3    H156368   0.421   5.392   1.961 -0.7371  1.1964 -0.2967
11651TIP3    H256369   0.307   5.400   1.862  0.0090 -0.8446 -1.3681
11652TIP3   OH256370   0.706   5.832  16.956 -0.0987  0.1729 -0.6802
11652TIP3    H156371   0.636   5.767  16.966  0.8753 -0.6752  0.7668
11652TIP3    H256372   0.715   5.872  17.042 -1.1950  2.8626 -1.6747
11653TIP3   OH256373   6.794   3.577  13.181  0.1679 -0.1086 -0.2368
11653TIP3    H156374   6.880   3.549  13.211 -0.4446 -0.7355  0.9798
11653TIP3    H256375   6.810   3.660  13.137  1.4229 -0.3289 -0.2299
11654TIP3   OH256376   4.345   3.509  12.623 -0.2774 -0.5363 -0.2328
11654TIP3    H156377   4.307   3.594  12.644 -0.0940 -0.3922 -0.4698
11654TIP3    H256378   4.272   3.448  12.630 -0.0895 -0.6114  1.4854
11655TIP3   OH256379   2.299   2.647  14.870  0.5099  0.1520  0.0406
11655TIP3    H156380   2.312   2.558  14.903 -1.4768 -0.3503 -0.3720
11655TIP3    H256381   2.280   2.700  14.947 -0.8736 -0.3459  0.0665
11656TIP3   OH256382   4.529   3.495  15.950 -0.0784  0.1363  0.1481
11656TIP3    H156383   4.589   3.486  16.024  0.3902 -0.8661 -0.3344
11656TIP3    H256384   4.452   3.445  15.975  0.7172 -1.5979 -0.6594
11657TIP3   OH256385   0.677   5.163   3.751  0.3199 -0.3957 -1.3664
11657TIP3    H156386   0.752   5.150   3.809 -1.6535 -2.1606  0.9864
11657TIP3    H256387   0.677   5.086   3.694  0.9727  0.2485 -2.2768
11658TIP3   OH256388   3.501   1.922  13.677 -0.3990  0.1170 -0.2148
11658TIP3    H156389   3.485   1.985  13.606 -0.1751  0.8910  0.4072
11658TIP3    H256390   3.506   1.837  13.633  1.7915  0.7802 -1.4392
11659TIP3   OH256391   2.838   5.677  12.283 -0.2381 -0.0163 -0.2944
11659TIP3    H156392   2.779   5.745  12.315 -0.4099 -1.2204  2.2275
11659TIP3    H256393   2.922   5.696  12.325  0.2524 -0.2309 -1.1610
11660TIP3   OH256394   4.696   1.511   5.811 -0.1454  0.0220  0.2253
11660TIP3    H156395   4.735   1.587   5.767 -1.7307  1.1146  0.6164
11660TIP3    H256396   4.641   1.549   5.879 -2.6869 -1.3693 -0.9441
11661TIP3   OH256397   3.050   4.876   2.857  0.1035 -0.0742  0.3689
11661TIP3    H156398   3.109   4.901   2.785  0.8740  0.7282  1.2559
11661TIP3    H256399   2.962   4.889   2.821  0.4681  0.0699 -0.5114
11662TIP3   OH256400   3.574   1.389  13.371 -0.2347  1.0522  0.3106
11662TIP3    H156401   3.554   1.461  13.311 -0.7591  2.3218  1.9125
11662TIP3    H256402   3.662   1.361  13.346 -0.6372  1.1697 -1.3657
11663TIP3   OH256403   6.109   0.437  16.566 -0.5458  0.1959 -0.0936
11663TIP3    H156404   6.137   0.346  16.562 -0.1523  0.1887  1.9094
11663TIP3    H256405   6.178   0.481  16.617  0.2459  2.0419 -2.5462
11664TIP3   OH256406   3.300   4.164  15.353  0.3654 -0.0602 -0.1905
11664TIP3    H156407   3.210   4.173  15.384 -0.4781  3.1579 -2.9254
11664TIP3    H256408   3.304   4.076  15.315 -1.2768 -0.6432  0.8912
11665TIP3   OH256409   4.656   3.731   6.284  0.0890  0.2140  0.5321
11665TIP3    H156410   4.587   3.680   6.327  0.3585 -0.3587  0.3002
11665TIP3    H256411   4.732   3.672   6.284  0.3731  0.5788  0.1623
11666TIP3   OH256412   1.035   4.399  13.024  0.0660  0.0786 -0.1204
11666TIP3    H156413   1.011   4.487  13.052  0.1218 -0.2944  1.1781
11666TIP3    H256414   0.963   4.371  12.968 -0.9868  0.1982  1.1201
11667TIP3   OH256415   6.509   5.121   5.718  0.2826 -0.5172  0.2386
11667TIP3    H156416   6.448   5.139   5.790  2.0103  0.4056  1.5618
11667TIP3    H256417   6.596   5.130   5.758  1.3112 -1.8383 -1.5482
11668TIP3   OH256418   0.856   5.234  16.222 -0.0658 -0.1369 -0.0696
11668TIP3    H156419   0.839   5.297  16.293 -3.4877 -1.2905  0.3528
11668TIP3    H256420   0.936   5.189  16.248  1.4473  2.6933  0.5442
11669TIP3   OH256421   5.252   0.485   0.706  0.1844 -0.5950  0.4388
11669TIP3    H156422   5.205   0.564   0.680 -1.9450 -1.7142  0.6036
11669TIP3    H256423   5.250   0.485   0.801  0.0956 -0.8661  0.4401
11670TIP3   OH256424   2.371   2.335   1.352  0.0202 -0.0579 -0.2153
11670TIP3    H156425   2.341   2.417   1.392  0.5608 -0.4586  1.0417
11670TIP3    H256426   2.458   2.321   1.389 -0.5236 -1.7888  0.4559
11671TIP3   OH256427   3.346   2.151   0.797  0.2607 -0.1565  0.0067
11671TIP3    H156428   3.286   2.162   0.723  2.8156 -0.9418 -2.3510
11671TIP3    H256429   3.348   2.057   0.812  1.3202 -0.2046 -0.3653
11672TIP3   OH256430   1.547   6.704  16.817 -0.5516 -0.0634  0.1151
11672TIP3    H156431   1.557   6.735  16.907  0.2033  0.9298 -0.2909
11672TIP3    H256432   1.592   6.770  16.764  0.6269 -1.5810 -0.8454
11673TIP3   OH256433   0.472   3.952  11.721 -0.2610 -0.1548 -0.1071
11673TIP3    H156434   0.461   3.994  11.807 -0.6869  0.2345 -0.3509
11673TIP3    H256435   0.566   3.934  11.716 -0.0039  1.0996 -0.1396
11674TIP3   OH256436   5.484   3.467  11.625  0.6505  0.3902 -0.2675
11674TIP3    H156437   5.459   3.538  11.566  0.7758  1.0096  0.4186
11674TIP3    H256438   5.437   3.390  11.591 -0.1248  0.9691 -0.5342
11675TIP3   OH256439   6.206   3.071   4.147  0.3165 -0.1054  0.5491
11675TIP3    H156440   6.137   3.014   4.113  0.6910 -0.0757 -0.2729
11675TIP3    H256441   6.272   3.011   4.182 -0.0851 -0.1352  1.2757
11676TIP3   OH256442   2.831   1.499   1.693 -0.0979  0.0959  0.9303
11676TIP3    H156443   2.906   1.499   1.752 -0.7530 -0.2337  1.7711
11676TIP3    H256444   2.759   1.464   1.745 -1.0401  1.1628  0.3832
11677TIP3   OH256445   5.682   6.461  13.575  0.2215 -0.4260  0.6004
11677TIP3    H156446   5.693   6.532  13.639  0.0271  1.6962 -1.6024
11677TIP3    H256447   5.768   6.454  13.534 -0.6789  1.2147 -1.7575
11678TIP3   OH256448   1.250   4.363  12.684  0.1402 -0.0904  0.1342
11678TIP3    H156449   1.254   4.273  12.651  1.3844  0.4666 -1.3395
11678TIP3    H256450   1.312   4.364  12.757  2.2092  0.1547 -1.5107
11679TIP3   OH256451   3.592   0.968   5.917 -0.1246 -0.7808  0.1576
11679TIP3    H156452   3.561   1.052   5.883 -0.1904 -1.1366 -0.6684
11679TIP3    H256453   3.687   0.976   5.915 -0.0719 -1.4391 -1.8025
11680TIP3   OH256454   1.248   2.104  16.460 -0.6271 -0.3591 -0.3306
11680TIP3    H156455   1.201   2.091  16.378 -0.2373  3.1962 -1.2519
11680TIP3    H256456   1.319   2.163  16.438 -0.5437  0.7790  2.5839
11681TIP3   OH256457   3.365   1.036  15.258  0.3368  0.4087 -0.0001
11681TIP3    H156458   3.282   0.990  15.269  1.3653 -2.2755 -2.1800
11681TIP3    H256459   3.341   1.120  15.218 -1.3497 -0.1374 -0.1965
11682TIP3   OH256460   1.104   0.551  15.507 -0.2214  0.2138  0.0501
11682TIP3    H156461   1.162   0.477  15.526  0.2649  0.3229 -0.9307
11682TIP3    H256462   1.123   0.614  15.577  1.5777  0.6423 -0.7481
11683TIP3   OH256463   6.463   5.860  11.858 -0.1071  0.3144  0.4168
11683TIP3    H156464   6.485   5.811  11.779 -1.5459 -0.5456  0.5165
11683TIP3    H256465   6.389   5.915  11.833 -0.6200 -0.0198  1.1711
11684TIP3   OH256466   5.300   3.473   2.672 -0.0409 -0.1212  0.2071
11684TIP3    H156467   5.385   3.509   2.696 -0.0637  0.9073 -1.1500
11684TIP3    H256468   5.238   3.544   2.689 -0.5653 -0.6534  0.5980
11685TIP3   OH256469   6.681   5.091  17.030  0.0796  0.4959  0.3912
11685TIP3    H156470   6.616   5.115  16.964  1.5891 -1.6330 -2.0850
11685TIP3    H256471   6.643   5.118  17.113 -2.4699  2.2516 -1.2187
11686TIP3   OH256472   0.068   2.871   5.110 -0.0471 -0.0220 -0.6937
11686TIP3    H156473   0.039   2.928   5.182  0.1291 -0.3751 -0.3440
11686TIP3    H256474   0.020   2.789   5.124  1.3543 -0.7358  0.0816
11687TIP3   OH256475   2.617   3.800  13.331  0.1140 -0.2359 -0.0749
11687TIP3    H156476   2.567   3.874  13.364 -1.2918 -1.1323 -0.1232
11687TIP3    H256477   2.675   3.838  13.265 -0.2074  0.8886  0.2604
11688TIP3   OH256478   3.659   6.096   5.498  0.6327  0.0896  0.3530
11688TIP3    H156479   3.749   6.119   5.521  0.1156  2.5899  0.0890
11688TIP3    H256480   3.635   6.156   5.428 -1.4796 -0.0399  0.8768
11689TIP3   OH256481   3.388   2.881   4.409 -0.5944 -0.0325  0.2310
11689TIP3    H156482   3.434   2.911   4.487 -0.2420  2.6188 -0.8879
11689TIP3    H256483   3.443   2.810   4.375  0.6511  0.5463  0.9685
11690TIP3   OH256484   2.105   6.612   3.957  0.9606 -0.1190 -0.5680
11690TIP3    H156485   2.019   6.629   3.995  1.2876  0.1651  0.0555
11690TIP3    H256486   2.162   6.677   3.998  0.9766  1.5261 -2.9365
11691TIP3   OH256487   0.169   6.520   1.170 -0.3203 -0.3675  0.3609
11691TIP3    H156488   0.213   6.522   1.255  2.2265 -0.7178 -0.8696
11691TIP3    H256489   0.152   6.612   1.150 -2.5095 -0.3435  1.9194
11692TIP3   OH256490   5.060   5.746  13.999  0.1269  0.1338  0.5294
11692TIP3    H156491   4.984   5.792  13.963 -1.2472 -1.3472  1.4011
11692TIP3    H256492   5.093   5.805  14.067 -0.9200  0.3499  0.8760
11693TIP3   OH256493   1.805   0.462   3.128  0.1811 -0.4154  0.1971
11693TIP3    H156494   1.886   0.503   3.158  0.2349 -0.4573  0.1074
11693TIP3    H256495   1.826   0.425   3.043  0.8030 -2.6898  1.2699
11694TIP3   OH256496   5.973   5.827  14.562  0.1337 -0.5614 -0.2608
11694TIP3    H156497   5.997   5.756  14.622 -1.1730 -1.0221 -0.2619
11694TIP3    H256498   5.879   5.817  14.549 -0.1356  1.3475 -0.0441
11695TIP3   OH256499   6.543   0.463   0.028 -0.1506 -0.1259 -0.2389
11695TIP3    H156500   6.498   0.544   0.007 -0.2372  0.4000  1.8374
11695TIP3    H256501   6.578   0.433  -0.057  0.0689  2.1546 -1.0356
11696TIP3   OH256502   1.188   4.178  13.098  0.0282 -0.0590 -0.3673
11696TIP3    H156503   1.126   4.248  13.076 -0.3737 -0.3881 -0.2958
11696TIP3    H256504   1.218   4.199  13.186 -2.1407 -1.4016  0.7710
11697TIP3   OH256505   5.844   0.863   4.799  0.0849  0.0381  0.3991
11697TIP3    H156506   5.897   0.798   4.845  1.0415  0.4352 -0.1072
11697TIP3    H256507   5.877   0.862   4.709 -0.3587  0.7186  0.2177
11698TIP3   OH256508   4.091   2.404  14.320 -0.6900 -1.2158  0.0340
11698TIP3    H156509   4.133   2.450  14.393  0.3249 -1.6688 -0.2528
11698TIP3    H256510   4.015   2.361  14.359 -0.4445 -1.0425  0.7166
11699TIP3   OH256511   1.112   3.038  13.030  0.1313  0.3633  0.0890
11699TIP3    H156512   1.073   3.060  12.946  0.8279  2.2244  0.2076
11699TIP3    H256513   1.092   2.945  13.043 -1.2434  0.4207 -1.4272
11700TIP3   OH256514   2.238   4.569   4.782  0.0489  0.1499  0.2114
11700TIP3    H156515   2.195   4.633   4.838  1.4748 -0.5540  2.2602
11700TIP3    H256516   2.195   4.486   4.803  0.3942 -0.0744  0.0433
11701TIP3   OH256517   3.818   0.963  15.864  1.1002  0.4912  0.1145
11701TIP3    H156518   3.729   0.955  15.898  1.3721 -1.5024  0.4654
11701TIP3    H256519   3.832   1.057  15.857 -0.8866  0.8547  0.4183
11702TIP3   OH256520   0.684   4.927   5.979 -0.3306  0.0599  0.3718
11702TIP3    H156521   0.625   4.883   6.040 -0.0960  0.1804  0.6876
11702TIP3    H256522   0.626   4.979   5.923 -0.4521  1.0131  1.3613
11703TIP3   OH256523   2.970   3.448   2.327 -0.4540  0.7918 -0.1393
11703TIP3    H156524   3.048   3.491   2.292  0.2465  0.5981  1.1228
11703TIP3    H256525   2.952   3.377   2.265  0.8659  0.3370 -0.0308
11704TIP3   OH256526   4.391   6.712   0.450  0.8700 -0.3304  0.2559
11704TIP3    H156527   4.372   6.785   0.392  0.2580 -1.3464 -0.8805
11704TIP3    H256528   4.486   6.715   0.463  0.8296  0.7487  0.3744
11705TIP3   OH256529   6.393   2.336  14.392 -0.1006  0.2601 -0.0187
11705TIP3    H156530   6.440   2.389  14.456  0.5023 -0.2473 -0.0325
11705TIP3    H256531   6.461   2.305  14.332 -0.5530  0.1036 -0.4586
11706TIP3   OH256532   3.426   2.560  12.942 -0.4368 -0.1278 -0.2622
11706TIP3    H156533   3.340   2.535  12.907 -0.4816 -0.9958  0.4391
11706TIP3    H256534   3.486   2.494  12.906 -0.5526 -1.3267  1.6085
11707TIP3   OH256535   3.467   4.241   1.301  0.2900 -0.1643 -0.1646
11707TIP3    H156536   3.490   4.262   1.391  2.1807 -0.3173 -0.5596
11707TIP3    H256537   3.505   4.155   1.286 -0.0151 -0.1488 -1.1024
11708TIP3   OH256538   4.812   1.492   6.371 -0.0808 -0.3578  0.0439
11708TIP3    H156539   4.754   1.566   6.389  0.8239 -0.0623  1.9315
11708TIP3    H256540   4.783   1.423   6.431  0.3447 -0.8449 -0.3000
11709TIP3   OH256541   0.349   0.498   4.860 -0.2696 -0.0904 -0.3347
11709TIP3    H156542   0.346   0.488   4.955  1.7560 -1.2599 -0.3443
11709TIP3    H256543   0.364   0.592   4.846 -0.9335  0.1452  0.4627
11710TIP3   OH256544   6.072   0.290   5.650  0.1232 -0.0059  0.1079
11710TIP3    H156545   6.087   0.221   5.715  2.8513 -1.2293 -1.6329
11710TIP3    H256546   5.991   0.264   5.605 -0.0953 -0.8187  0.9487
11711TIP3   OH256547   0.384   3.128  15.852  0.0247  0.4925  0.0928
11711TIP3    H156548   0.445   3.106  15.781  1.0555 -0.5302  1.2466
11711TIP3    H256549   0.417   3.210  15.888 -0.5067  1.0200 -0.5791
11712TIP3   OH256550   2.103   3.354   0.181 -0.1268  0.1847 -0.2822
11712TIP3    H156551   2.037   3.318   0.240  0.5499  2.3353  1.9313
11712TIP3    H256552   2.176   3.291   0.185 -0.3458 -0.0266  0.7213
11713TIP3   OH256553   1.962   5.663   5.880  0.4436 -0.3860 -0.1437
11713TIP3    H156554   2.006   5.614   5.950 -0.2422  0.3288  0.8097
11713TIP3    H256555   1.881   5.694   5.920 -0.2956 -0.5432 -1.4785
11714TIP3   OH256556   5.922   6.117  11.854  0.3516 -0.1086 -0.2379
11714TIP3    H156557   5.878   6.147  11.774 -2.4780 -3.1484  0.0082
11714TIP3    H256558   5.890   6.176  11.922  0.1573  0.4133 -0.7623
11715TIP3   OH256559   3.326   1.977  15.378 -0.4128  0.4581  0.1653
11715TIP3    H156560   3.336   1.888  15.413  0.0740 -0.2147 -1.5491
11715TIP3    H256561   3.232   1.985  15.361 -0.8407  1.2038  2.4943
11716TIP3   OH256562   3.925   0.111  15.188 -0.2709 -0.0447  0.4111
11716TIP3    H156563   3.956   0.131  15.276 -2.4312  0.7265  1.0715
11716TIP3    H256564   3.975   0.169  15.131  0.6407 -0.0326  1.1955
11717TIP3   OH256565   2.761   5.373  13.128 -0.5163 -0.3650  0.3360
11717TIP3    H156566   2.830   5.377  13.194 -0.1462  0.6684 -0.0937
11717TIP3    H256567   2.749   5.464  13.100 -0.2842 -0.8350 -1.4162
11718TIP3   OH256568   4.983   5.131  14.324  0.1363 -0.5420 -0.6298
11718TIP3    H156569   5.020   5.167  14.404 -1.6039 -0.0161 -0.0234
11718TIP3    H256570   4.974   5.206  14.265 -2.6536 -0.0129  0.3134
11719TIP3   OH256571   6.325   0.547   6.561  0.2850  0.0829  0.4006
11719TIP3    H156572   6.267   0.505   6.624  1.1957 -0.5442  0.8541
11719TIP3    H256573   6.317   0.493   6.482 -0.4878  0.5836  0.1279
11720TIP3   OH256574   3.449   1.548   3.099  0.1579  0.9545 -0.1628
11720TIP3    H156575   3.429   1.629   3.052  0.4110 -0.1657 -2.3026
11720TIP3    H256576   3.365   1.517   3.132 -0.4100  0.6172 -1.8456
11721TIP3   OH256577   5.892   0.600   0.989  0.6104  0.0988 -0.2677
11721TIP3    H156578   5.823   0.660   0.960  0.8433  0.9015  0.7754
11721TIP3    H256579   5.960   0.657   1.025  1.5212 -0.7262 -0.6391
11722TIP3   OH256580   5.384   4.597   4.521 -0.2825  0.4817  0.1383
11722TIP3    H156581   5.340   4.513   4.534 -0.2831  0.4461 -0.0975
11722TIP3    H256582   5.362   4.623   4.432  2.1120 -0.6956 -0.8785
11723TIP3   OH256583   4.322   1.391  16.401  0.6860  0.1191 -0.2814
11723TIP3    H156584   4.345   1.318  16.343  0.5911  0.3371 -0.5970
11723TIP3    H256585   4.273   1.451  16.345  1.7684  0.9775 -0.3298
11724TIP3   OH256586   3.778   4.734  11.470 -0.0359  0.0740 -0.0587
11724TIP3    H156587   3.688   4.704  11.463  0.2680 -1.5801  1.9480
11724TIP3    H256588   3.831   4.654  11.472  1.2440  0.8840  1.1244
11725TIP3   OH256589   0.933   5.008  13.868  0.3610 -0.8262  0.2501
11725TIP3    H156590   0.849   5.010  13.912  0.3778 -1.0264  0.2952
11725TIP3    H256591   0.993   4.970  13.932  0.0267 -2.7931 -0.5015
11726TIP3   OH256592   4.642   0.426   2.313  0.4940 -0.0005  0.2293
11726TIP3    H156593   4.601   0.430   2.399 -1.9327  0.4090 -0.8692
11726TIP3    H256594   4.648   0.332   2.293 -0.2855 -0.0556  0.2433
11727TIP3   OH256595   5.551   6.481   4.914 -0.2309  0.4097 -0.1161
11727TIP3    H156596   5.477   6.514   4.965  0.1241  1.7790 -0.4483
11727TIP3    H256597   5.618   6.460   4.979 -0.6701 -0.2369  0.1399
11728TIP3   OH256598   0.904   4.836   6.110 -0.4004  0.0977  0.0648
11728TIP3    H156599   0.957   4.916   6.111  1.2639 -0.9540  1.3975
11728TIP3    H256600   0.840   4.851   6.041  2.4570  0.8984 -2.6177
11729TIP3   OH256601   5.983   2.190  13.018  0.3677 -0.3659 -0.0856
11729TIP3    H156602   6.062   2.242  13.034  1.7098 -2.8063  1.8780
11729TIP3    H256603   5.916   2.255  12.997  2.4051  1.9676  0.1492
11730TIP3   OH256604   3.129   0.150  14.775  0.5933  0.6677  0.1180
11730TIP3    H156605   3.116   0.207  14.851 -0.4269  0.1642  0.3394
11730TIP3    H256606   3.136   0.062  14.813 -2.2194  0.0860 -0.4559
11731TIP3   OH256607   3.754   2.937   1.455 -1.1693  0.2732  0.7027
11731TIP3    H156608   3.694   2.880   1.503 -1.8651  1.7355  1.6444
11731TIP3    H256609   3.698   2.997   1.406 -0.4643  0.4716  0.1062
11732TIP3   OH256610   3.960   4.040   3.285  0.5862 -0.2459 -0.5839
11732TIP3    H156611   3.890   4.103   3.267 -0.4083 -1.6046 -1.5816
11732TIP3    H256612   4.011   4.081   3.355  0.4191  2.0205 -1.6865
11733TIP3   OH256613   4.064   2.899   3.691  0.2580  0.5848 -0.6709
11733TIP3    H156614   4.124   2.873   3.761  1.0500  0.7743 -1.2575
11733TIP3    H256615   4.119   2.949   3.630 -0.5324  0.8830 -1.1590
11734TIP3   OH256616   0.251   1.053   1.831 -0.5241 -0.0649  1.2397
11734TIP3    H156617   0.328   1.108   1.847 -0.8062  0.5593  0.5076
11734TIP3    H256618   0.264   0.976   1.887  1.6207 -0.9172 -0.2857
11735TIP3   OH256619   5.833   6.776   5.219  0.7540 -0.0705 -0.1088
11735TIP3    H156620   5.744   6.805   5.199 -0.5298 -2.9974  0.8283
11735TIP3    H256621   5.860   6.725   5.143  0.6459 -1.1403  0.5418
11736TIP3   OH256622   3.368   6.707  13.488  0.3238  0.3283 -0.8885
11736TIP3    H156623   3.351   6.664  13.404  0.5309  0.2936 -0.9139
11736TIP3    H256624   3.281   6.729  13.522  0.0916 -1.6603 -0.0637
11737TIP3   OH256625   3.115   0.665   1.722 -0.3042  0.4117 -0.1175
11737TIP3    H156626   3.179   0.595   1.728 -0.8910 -0.0160  2.1903
11737TIP3    H256627   3.158   0.734   1.672  1.4099 -0.4120  0.1723
11738TIP3   OH256628   1.150   2.507   4.727 -0.3846  0.0774  0.2291
11738TIP3    H156629   1.192   2.587   4.760  1.4368 -0.2062 -1.2164
11738TIP3    H256630   1.214   2.438   4.742 -1.6160 -0.9888  0.7342
11739TIP3   OH256631   4.084   3.032   2.944 -0.3442  0.2514 -0.2727
11739TIP3    H156632   4.116   3.011   3.032 -1.0661 -0.7170 -0.2233
11739TIP3    H256633   4.132   2.973   2.886  0.5899  1.3207 -0.6210
11740TIP3   OH256634   6.025   1.576   1.308  0.1905  0.3469 -0.3803
11740TIP3    H156635   5.975   1.620   1.239  1.9368 -1.0488 -2.6763
11740TIP3    H256636   5.974   1.497   1.327 -1.3082  1.6672  1.4624
11741TIP3   OH256637   5.747   1.381   5.396  0.7014 -0.0233 -0.8887
11741TIP3    H156638   5.748   1.476   5.380 -1.5463  0.1477 -0.3662
11741TIP3    H256639   5.819   1.366   5.457  0.6676  1.4702 -0.4374
11742TIP3   OH256640   5.593   3.591  13.972 -0.0055  0.3775  0.1152
11742TIP3    H156641   5.593   3.680  14.006  0.9676  0.1258  0.8137
11742TIP3    H256642   5.611   3.600  13.879  0.7017  0.8786  0.2941
11743TIP3   OH256643   5.006   3.352   4.114  0.2704 -0.6773  0.3078
11743TIP3    H156644   4.985   3.301   4.192  0.1473 -0.3084  0.5175
11743TIP3    H256645   4.948   3.428   4.119  0.6722 -0.3566  0.1590
11744TIP3   OH256646   3.141   0.438  17.040  0.3858 -0.2363 -0.3468
11744TIP3    H156647   3.149   0.343  17.044 -0.3513 -0.3144 -0.4657
11744TIP3    H256648   3.222   0.468  16.999  0.5958 -0.8167 -0.3584
11745TIP3   OH256649   1.352   3.862   2.979 -0.4894  0.2563 -0.4205
11745TIP3    H156650   1.441   3.865   3.014 -1.1382 -2.3461  1.7935
11745TIP3    H256651   1.298   3.903   3.047 -1.3408 -1.3194 -0.1018
11746TIP3   OH256652   4.200   1.671   1.384 -0.1890  0.3362  0.3899
11746TIP3    H156653   4.117   1.641   1.348  0.0122 -0.5173  0.6152
11746TIP3    H256654   4.256   1.683   1.308  0.0828 -0.9945  0.3510
11747TIP3   OH256655   3.395   6.663  16.915  0.2602 -0.2873 -0.2534
11747TIP3    H156656   3.435   6.578  16.932  1.2132  0.2838  0.5005
11747TIP3    H256657   3.459   6.726  16.948 -0.3888  0.7288 -0.8735
11748TIP3   OH256658   3.318   6.382   2.623  0.3972  0.4925 -0.0699
11748TIP3    H156659   3.365   6.453   2.668  0.5738 -0.1180  0.7369
11748TIP3    H256660   3.226   6.400   2.640  0.4994 -0.6502  2.0523
11749TIP3   OH256661   4.058   4.749   0.208 -0.1715  0.6449 -0.0167
11749TIP3    H156662   4.107   4.751   0.125 -1.3440  1.5337 -0.7224
11749TIP3    H256663   4.037   4.656   0.221  1.5300  0.2659  0.2308
11750TIP3   OH256664   6.663   6.496   4.838  0.1364 -0.4542 -0.7125
11750TIP3    H156665   6.712   6.487   4.756  2.0090  1.3059  0.0926
11750TIP3    H256666   6.628   6.585   4.835  2.5129  0.6728  1.4336
11751TIP3   OH256667   1.896   5.857   1.290  0.0634 -0.0298 -0.1154
11751TIP3    H156668   1.831   5.855   1.360  1.7293 -0.8349  1.4999
11751TIP3    H256669   1.967   5.911   1.324  2.2469 -2.8491  0.1795
11752TIP3   OH256670   2.189   0.762  14.263 -0.1536  0.3618  0.0025
11752TIP3    H156671   2.268   0.761  14.210 -0.6438  0.9065 -0.7632
11752TIP3    H256672   2.127   0.816  14.213 -1.2824 -0.7216  0.1826
11753TIP3   OH256673   4.957   5.290   4.732 -0.2479 -0.1761 -0.0495
11753TIP3    H156674   4.979   5.266   4.642 -0.7355  3.7927 -1.4211
11753TIP3    H256675   5.041   5.289   4.779  0.1011 -1.6577 -0.6331
11754TIP3   OH256676   3.555   3.762   2.000  0.4218 -0.4617 -0.1819
11754TIP3    H156677   3.627   3.786   1.942 -1.0195 -0.7292 -2.1432
11754TIP3    H256678   3.510   3.844   2.018  0.7366 -0.4133  0.4204
11755TIP3   OH256679   4.268   5.444  14.455 -0.4527  0.5003  0.1871
11755TIP3    H156680   4.301   5.365  14.413 -1.1635  1.5712 -2.6290
11755TIP3    H256681   4.173   5.431  14.458 -0.6141  1.3827 -0.6776
11756TIP3   OH256682   6.054   2.579   5.465 -0.2646 -0.3703 -0.4961
11756TIP3    H156683   6.073   2.488   5.491  0.8130  0.0332  0.2322
11756TIP3    H256684   6.051   2.627   5.548 -0.7205  0.2763 -0.8831
11757TIP3   OH256685   2.678   5.658   1.817  0.1488 -0.0165 -0.1204
11757TIP3    H156686   2.621   5.606   1.760  0.2001 -0.3649  0.1358
11757TIP3    H256687   2.624   5.731   1.845 -0.6313 -1.0319  1.1631
11758TIP3   OH256688   4.615   1.801   5.073 -0.0052 -0.2563  0.0704
11758TIP3    H156689   4.682   1.850   5.120 -1.3557  1.7309  0.0476
11758TIP3    H256690   4.594   1.855   4.997  0.0578 -2.0151 -1.2743
11759TIP3   OH256691   6.645   6.069  11.299  0.5246  0.4280  0.7727
11759TIP3    H156692   6.551   6.052  11.300  0.6135 -0.1429  1.7903
11759TIP3    H256693   6.668   6.074  11.207 -0.1811 -1.3572  0.4525
11760TIP3   OH256694   2.775   1.487  15.894 -0.3866  0.0404 -0.1941
11760TIP3    H156695   2.806   1.396  15.893  1.4148  0.5939  1.1030
11760TIP3    H256696   2.720   1.494  15.816  1.0229 -1.6183 -1.4086
11761TIP3   OH256697   3.284   5.599  15.168 -0.2047 -0.5587 -0.0439
11761TIP3    H156698   3.292   5.537  15.095  0.0133 -0.2165 -0.3156
11761TIP3    H256699   3.341   5.672  15.143  1.3769 -1.2575  1.3187
11762TIP3   OH256700   6.673   4.104   5.491 -0.3568  0.2173  0.3910
11762TIP3    H156701   6.743   4.047   5.521 -1.3986 -1.9717 -1.0495
11762TIP3    H256702   6.712   4.159   5.423  0.2232 -0.1509  0.4295
11763TIP3   OH256703   2.862   0.463   5.932 -0.7234  0.7374  0.0219
11763TIP3    H156704   2.820   0.380   5.910  3.0265 -0.7075 -2.7385
11763TIP3    H256705   2.877   0.458   6.027  1.2701 -2.8952 -0.3025
11764TIP3   OH256706   2.001   0.224   3.988  0.6058  0.1353 -0.3573
11764TIP3    H156707   1.951   0.303   3.967  0.7160 -0.4137 -3.0423
11764TIP3    H256708   2.042   0.199   3.905  1.8106 -1.9052  0.7703
11765TIP3   OH256709   1.169   4.191   0.211 -0.8912  0.1564  0.0136
11765TIP3    H156710   1.255   4.232   0.204 -1.5224  1.8578  1.4603
11765TIP3    H256711   1.109   4.255   0.171 -1.8246  0.4498  1.7688
11766TIP3   OH256712   6.677   5.559  17.019  0.0769  0.0484 -0.0411
11766TIP3    H156713   6.714   5.486  17.069  0.7848  0.9261  0.7752
11766TIP3    H256714   6.582   5.549  17.027  0.1747  0.2205  1.6034
11767TIP3   OH256715   4.790   0.667  13.973  0.6329 -0.0443  0.7382
11767TIP3    H156716   4.701   0.653  13.938  0.7472 -1.0601  0.8343
11767TIP3    H256717   4.779   0.736  14.039  0.0658  0.4505  0.1423
11768TIP3   OH256718   6.578   6.751   4.766  0.4221 -0.0649 -0.6858
11768TIP3    H156719   6.541   6.745   4.678  1.2632  0.0363 -1.0482
11768TIP3    H256720   6.641   6.823   4.761  2.3384 -1.6867 -0.6890
11769TIP3   OH256721   1.568   2.395   1.566  0.1980 -0.8982  0.5054
11769TIP3    H156722   1.615   2.382   1.648  0.1275  0.3360  0.7655
11769TIP3    H256723   1.630   2.442   1.510 -0.4151 -0.0067  0.5528
11770TIP3   OH256724   5.052   5.522   3.130  0.2597 -0.2664 -0.1595
11770TIP3    H156725   5.064   5.461   3.203 -0.3244  0.8995  0.9431
11770TIP3    H256726   4.958   5.518   3.111  0.0021  1.1433  0.7167
11771TIP3   OH256727   2.736   6.037  16.004 -0.1201 -0.0597 -0.4476
11771TIP3    H156728   2.717   5.949  15.972 -1.6250  0.8350 -2.1668
11771TIP3    H256729   2.688   6.095  15.945  1.3186  1.9591  0.2648
11772TIP3   OH256730   4.598   3.786   0.895 -0.4590  0.0954  0.2385
11772TIP3    H156731   4.680   3.812   0.854  1.4543 -3.7453  1.1183
11772TIP3    H256732   4.607   3.813   0.986  0.1173 -0.7526  0.4471
11773TIP3   OH256733   2.946   1.806   2.046 -0.1648 -0.1370 -0.4792
11773TIP3    H156734   2.943   1.831   1.954 -1.3113  0.4380 -0.2938
11773TIP3    H256735   2.859   1.772   2.065  0.1189 -0.4289  0.3537
11774TIP3   OH256736   0.507   5.809  16.343 -0.1826 -0.0041 -0.1702
11774TIP3    H156737   0.442   5.782  16.407 -0.5239 -0.3418 -0.6446
11774TIP3    H256738   0.580   5.844  16.394 -0.0144 -1.2109  0.4487
11775TIP3   OH256739   2.660   2.348   2.979 -0.0713  0.1712 -0.7122
11775TIP3    H156740   2.741   2.346   3.029  0.3228  3.2915 -1.0060
11775TIP3    H256741   2.667   2.275   2.917  0.4928 -2.2764  2.0531
11776TIP3   OH256742   3.583   3.162  11.159 -0.1729 -0.0902 -0.1707
11776TIP3    H156743   3.525   3.181  11.085 -0.5525 -0.4311  0.0317
11776TIP3    H256744   3.524   3.160  11.235  0.5509  2.8691  0.5823
11777TIP3   OH256745   0.361   2.023   2.311  0.4230 -0.1278 -0.6779
11777TIP3    H156746   0.342   2.001   2.220 -0.0879  0.5443 -0.7405
11777TIP3    H256747   0.318   2.107   2.325  1.0995  0.1139 -0.0151
11778TIP3   OH256748   2.407   2.402  12.335 -0.3610 -0.4780  0.0894
11778TIP3    H156749   2.422   2.489  12.298 -0.8161 -0.4971 -0.1391
11778TIP3    H256750   2.495   2.365  12.344  0.0651  0.8578  2.3367
11779TIP3   OH256751   3.478   1.000   6.253 -0.0235  0.0422  0.1637
11779TIP3    H156752   3.436   0.923   6.215 -1.9415  1.1521 -0.0756
11779TIP3    H256753   3.422   1.025   6.327  1.1720  0.5759  0.9246
11780TIP3   OH256754   0.830   2.390  16.202 -0.1459  0.6566  0.2777
11780TIP3    H156755   0.889   2.336  16.151  0.0824  0.4168  0.7862
11780TIP3    H256756   0.847   2.479  16.174 -1.4653  0.3894 -1.5477
11781TIP3   OH256757   6.022   4.096   0.202 -0.0380  0.2992  0.0309
11781TIP3    H156758   5.957   4.129   0.264 -1.0570 -3.9685  1.5164
11781TIP3    H256759   6.098   4.074   0.256  0.8719  0.7462 -1.0037
11782TIP3   OH256760   5.366   0.765   6.020 -0.2408 -0.4043  0.6900
11782TIP3    H156761   5.289   0.708   6.012 -0.1439 -0.3523 -1.0735
11782TIP3    H256762   5.437   0.706   6.046 -0.9927 -0.3149  3.1813
11783TIP3   OH256763   1.887   6.045  11.537  0.7228 -0.0252  0.5923
11783TIP3    H156764   1.825   5.994  11.485 -0.0434  1.2583  0.1929
11783TIP3    H256765   1.834   6.081  11.608  1.6727 -1.4172  2.0797
11784TIP3   OH256766   1.922   6.191   4.500  0.5549  0.5365 -0.4489
11784TIP3    H156767   1.992   6.156   4.444  0.6177 -0.0442 -0.0230
11784TIP3    H256768   1.967   6.221   4.578  0.2183 -1.0396  0.3909
11785TIP3   OH256769   4.012   2.985   2.194 -0.5541 -0.4677  0.2076
11785TIP3    H156770   4.041   2.912   2.140  2.0448 -0.8367  1.9469
11785TIP3    H256771   3.943   2.948   2.250 -0.8781 -0.9533 -0.5022
11786TIP3   OH256772   2.560   2.723   1.734  0.1074 -0.7858  0.0102
11786TIP3    H156773   2.476   2.767   1.742  0.8589  0.3818  3.0561
11786TIP3    H256774   2.619   2.789   1.698  0.0872 -1.0975 -0.6108
11787TIP3   OH256775   1.790   3.114  15.165 -0.0979  0.3621 -0.6378
11787TIP3    H156776   1.794   3.150  15.077 -3.6393 -1.1996 -1.6021
11787TIP3    H256777   1.824   3.025  15.156 -1.2352 -0.0904 -0.6951
11788TIP3   OH256778   0.859   4.104   4.063 -0.1833  0.3480  0.3319
11788TIP3    H156779   0.879   4.081   3.972 -2.6906  1.3943 -0.5665
11788TIP3    H256780   0.906   4.039   4.115  1.5260 -0.1152 -1.6867
11789TIP3   OH256781   5.463   2.973  11.426  0.0239 -0.2750  0.0544
11789TIP3    H156782   5.407   2.902  11.456 -0.6446 -0.1525 -0.8658
11789TIP3    H256783   5.542   2.965  11.479 -0.4761 -1.0341  0.7126
11790TIP3   OH256784   6.706   1.046  10.733 -0.6303 -0.5298 -0.3177
11790TIP3    H156785   6.671   1.110  10.795  1.0545 -0.1201  0.2557
11790TIP3    H256786   6.694   1.086  10.647 -0.2594  0.2270 -0.0215
11791TIP3   OH256787   3.478   6.106  11.624 -0.0023  0.0883  0.3132
11791TIP3    H156788   3.442   6.194  11.611 -0.4857 -0.2066 -0.4363
11791TIP3    H256789   3.403   6.048  11.613  0.5027 -0.4757 -0.2080
11792TIP3   OH256790   2.310   4.806   3.988 -0.7229 -0.0601  0.1535
11792TIP3    H156791   2.266   4.852   4.059 -0.9404  0.0762 -0.0634
11792TIP3    H256792   2.398   4.844   3.984 -0.3020 -0.9171  1.1309
11793TIP3   OH256793   4.611   4.074   2.526  0.1233  0.2392  0.3003
11793TIP3    H156794   4.662   4.005   2.569 -0.3755  0.9007  2.0379
11793TIP3    H256795   4.549   4.027   2.471  1.1626 -0.6282 -0.1871
11794TIP3   OH256796   1.885   4.261  14.574 -0.2891  0.2275 -0.1734
11794TIP3    H156797   1.885   4.342  14.523  2.2256  0.6766  0.4094
11794TIP3    H256798   1.854   4.194  14.512 -1.1505  1.3817 -1.0444
11795TIP3   OH256799   6.277   2.632   2.609 -0.7892  0.1244  0.2471
11795TIP3    H156800   6.235   2.584   2.681 -0.6129  1.1530  1.0517
11795TIP3    H256801   6.216   2.703   2.589 -0.4794  0.2927 -0.1069
11796TIP3   OH256802   4.572   5.668   0.720  0.3331  0.1771 -0.1888
11796TIP3    H156803   4.514   5.676   0.645  0.4485  2.8008 -0.0653
11796TIP3    H256804   4.539   5.592   0.768  1.1104 -2.5405 -3.5303
11797TIP3   OH256805   0.534   5.599  11.396  0.0690  0.0711  0.0401
11797TIP3    H156806   0.452   5.648  11.399  0.8188  1.3550  0.1743
11797TIP3    H256807   0.548   5.581  11.304 -1.9047 -2.9103  0.1979
11798TIP3   OH256808   1.373   1.624   4.534 -0.2398 -0.4544 -0.4433
11798TIP3    H156809   1.410   1.575   4.607 -0.4539 -1.6841 -1.1419
11798TIP3    H256810   1.280   1.631   4.555 -0.2492 -0.5450 -0.4548
11799TIP3   OH256811   5.824   5.566   2.274 -0.2074  0.2871 -0.1945
11799TIP3    H156812   5.756   5.545   2.210 -0.2398  1.0020 -0.4029
11799TIP3    H256813   5.778   5.568   2.358  0.2136 -2.8869  0.2502
11800TIP3   OH256814   2.528   3.874   1.098 -0.0534 -0.5149 -0.2973
11800TIP3    H156815   2.470   3.825   1.039 -0.5899 -0.2873  0.0278
11800TIP3    H256816   2.532   3.819   1.177 -1.0468  0.1630  0.2584
11801TIP3   OH256817   0.608   1.428  14.743 -0.1113  0.2004  0.2633
11801TIP3    H156818   0.539   1.398  14.802  0.0842 -3.0676 -0.9484
11801TIP3    H256819   0.563   1.443  14.660  0.4938 -1.7705 -0.4812
11802TIP3   OH256820   0.643   5.210   0.266  0.4648  0.9605  0.7889
11802TIP3    H156821   0.607   5.130   0.229  1.3342  0.8517  0.1384
11802TIP3    H256822   0.602   5.280   0.216  1.4256  0.8249 -0.2311
11803TIP3   OH256823   5.746   1.896  11.983  0.4410 -0.2552  0.1346
11803TIP3    H156824   5.666   1.949  11.983  0.6036 -0.0103 -0.0695
11803TIP3    H256825   5.750   1.861  12.072 -0.8257 -1.6935 -0.3275
11804TIP3   OH256826   1.090   6.030  12.897 -0.2603  0.0070 -0.8047
11804TIP3    H156827   1.149   6.083  12.845 -0.7055 -0.3951 -1.7452
11804TIP3    H256828   1.034   6.093  12.942  1.6645  0.4547  1.1385
11805TIP3   OH256829   0.390   3.357  15.150 -0.1340  0.6056 -0.5029
11805TIP3    H156830   0.297   3.379  15.162 -0.0804 -0.0776  1.3540
11805TIP3    H256831   0.415   3.407  15.072 -1.6366  2.1155 -0.0974
11806TIP3   OH256832   4.239   3.813  14.425 -0.3592  0.0215 -0.1094
11806TIP3    H156833   4.202   3.845  14.343  0.3480 -1.2549 -0.9651
11806TIP3    H256834   4.257   3.892  14.476 -0.4962  0.8590 -1.3186
11807TIP3   OH256835   4.690   1.200  12.693 -0.8158  0.4878 -0.6299
11807TIP3    H156836   4.638   1.133  12.738  1.9874 -0.5810  1.2787
11807TIP3    H256837   4.645   1.282  12.714 -1.6705 -0.3513  1.0578
11808TIP3   OH256838   0.689   4.737   0.109  0.3979 -0.1629  0.4251
11808TIP3    H156839   0.622   4.670   0.124  0.2351 -0.1187 -0.1023
11808TIP3    H256840   0.771   4.694   0.134  0.1439 -0.1127  1.3672
11809TIP3   OH256841   3.940   2.068   6.740  0.0901  0.0274  0.0103
11809TIP3    H156842   3.924   1.994   6.798 -3.8617  2.4947  2.5227
11809TIP3    H256843   4.023   2.105   6.770  1.8300 -2.7881 -0.9013
11810TIP3   OH256844   0.931   1.215  11.991 -0.3155  0.1568  0.4152
11810TIP3    H156845   0.992   1.285  11.968  2.0071 -0.9760  2.5908
11810TIP3    H256846   0.892   1.244  12.073 -0.3580 -0.4998  0.6302
11811TIP3   OH256847   3.041   4.441  14.731 -0.6250  0.2196  0.2202
11811TIP3    H156848   3.043   4.349  14.757  0.1480 -0.5418 -2.2539
11811TIP3    H256849   2.969   4.447  14.668  0.4808  0.8230 -1.0523
11812TIP3   OH256850   4.684   3.715  15.099 -0.1949 -0.2276  0.2540
11812TIP3    H156851   4.670   3.777  15.027 -0.2918 -0.2746  0.2310
11812TIP3    H256852   4.595   3.694  15.129 -0.1670  2.6330  2.8604
11813TIP3   OH256853   2.541   2.300   1.681  0.4055  0.0275 -0.1199
11813TIP3    H156854   2.557   2.355   1.758 -1.7663  0.2799  0.1975
11813TIP3    H256855   2.604   2.228   1.691  1.6602  1.1786  0.7021
11814TIP3   OH256856   4.804   1.321  11.576  0.0984  0.1140 -0.1280
11814TIP3    H156857   4.851   1.382  11.633  0.2011  1.1442 -1.2718
11814TIP3    H256858   4.826   1.235  11.611  2.8082  0.5384 -0.5552
11815TIP3   OH256859   3.297   1.985  11.657 -0.6529  0.0349 -0.0923
11815TIP3    H156860   3.277   1.924  11.586  0.4264 -2.3453  1.5267
11815TIP3    H256861   3.387   2.012  11.641 -0.6991  0.1779 -0.1094
11816TIP3   OH256862   4.345   5.845   4.269 -0.6667 -0.5252  0.3049
11816TIP3    H156863   4.317   5.757   4.244 -0.1151 -0.0776 -2.1393
11816TIP3    H256864   4.264   5.891   4.290 -0.9375 -1.6480  1.9066
11817TIP3   OH256865   3.074   3.756  12.096 -0.4473 -0.0225 -0.2869
11817TIP3    H156866   3.100   3.796  12.013 -0.9634  1.3963  0.2064
11817TIP3    H256867   3.148   3.699  12.119 -1.3117 -2.4221 -2.8979
11818TIP3   OH256868   3.786   1.130  15.357 -0.4308  0.3966 -0.2957
11818TIP3    H156869   3.811   1.067  15.289  0.2674  0.1504  0.1784
11818TIP3    H256870   3.869   1.170  15.384 -0.3662 -1.1828  2.0632
11819TIP3   OH256871   6.401   4.069   3.852 -0.3652 -0.7588  0.5447
11819TIP3    H156872   6.422   4.162   3.863 -0.2847 -1.0049  3.4458
11819TIP3    H256873   6.319   4.068   3.804 -0.9804  0.8852  1.4797
11820TIP3   OH256874   3.762   5.837  14.018 -0.6305 -0.2339 -0.0710
11820TIP3    H156875   3.683   5.890  14.033 -1.3657 -1.7200  1.5444
11820TIP3    H256876   3.731   5.765  13.963  0.4219  1.0159 -2.4753
11821TIP3   OH256877   3.291   0.849   1.282 -0.6307 -0.3106 -0.0403
11821TIP3    H156878   3.311   0.943   1.288  1.6826 -0.8205  1.7041
11821TIP3    H256879   3.376   0.806   1.293 -1.9864 -2.6407  2.5027
11822TIP3   OH256880   3.444   4.442   6.091 -0.3165  0.1164 -0.1585
11822TIP3    H156881   3.404   4.355   6.090  0.4611 -0.2470 -0.6546
11822TIP3    H256882   3.391   4.493   6.152 -0.6388 -0.7782  0.3152
11823TIP3   OH256883   3.262   5.364  12.767  0.3112 -0.4441  0.5321
11823TIP3    H156884   3.246   5.362  12.862 -0.2836 -2.6466  0.4504
11823TIP3    H256885   3.357   5.361  12.758  0.3945  0.3992  1.0430
11824TIP3   OH256886   3.378   0.459   1.257  0.1092  0.3102  0.0355
11824TIP3    H156887   3.431   0.427   1.330 -0.3671  1.5702  0.9587
11824TIP3    H256888   3.398   0.398   1.185  1.1572 -0.5085  0.9775
11825TIP3   OH256889   5.363   1.808   2.257 -0.3950 -0.2432  0.0499
11825TIP3    H156890   5.434   1.871   2.266  0.1299 -0.6879 -0.8323
11825TIP3    H256891   5.408   1.723   2.252 -0.8241 -0.3910 -2.4830
11826TIP3   OH256892   6.153   0.547  13.542  0.7225  0.3988 -0.3779
11826TIP3    H156893   6.190   0.500  13.468  0.8268 -1.6308  0.8595
11826TIP3    H256894   6.223   0.548  13.608  0.1952  0.9031  0.1943
11827TIP3   OH256895   6.269   5.866   1.017  0.2978  0.1647 -0.1650
11827TIP3    H156896   6.264   5.836   0.926 -1.4784  2.2604 -0.8458
11827TIP3    H256897   6.265   5.961   1.010 -1.3709  0.3372  2.1588
11828TIP3   OH256898   1.685   2.869  16.383 -0.1610 -0.3911 -0.1944
11828TIP3    H156899   1.695   2.964  16.387 -0.3947 -0.3720 -0.0455
11828TIP3    H256900   1.774   2.835  16.383  0.0137 -0.0977 -2.2620
11829TIP3   OH256901   4.575   4.565   0.232  0.0970  0.2302 -0.3880
11829TIP3    H156902   4.486   4.531   0.244  0.3561 -0.0375  0.9222
11829TIP3    H256903   4.566   4.659   0.240 -0.1884  0.2673 -1.0978
11830TIP3   OH256904   3.544   2.999  10.796 -0.5293 -0.0937 -0.2803
11830TIP3    H156905   3.523   2.927  10.855 -0.2027 -0.0149 -0.0667
11830TIP3    H256906   3.524   3.078  10.846  0.0115 -0.0224 -0.1723
11831TIP3   OH256907   6.522   0.587   4.492 -0.2590 -0.0330  0.0988
11831TIP3    H156908   6.551   0.636   4.569 -0.5956 -1.0552  0.8990
11831TIP3    H256909   6.457   0.644   4.451  1.0766  1.2304 -0.3651
11832TIP3   OH256910   1.936   5.932   1.004  0.0406 -0.7283 -0.3852
11832TIP3    H156911   1.939   5.892   1.091  3.4560  0.1536  0.0349
11832TIP3    H256912   1.843   5.946   0.988 -0.7656 -1.5885  2.7974
11833TIP3   OH256913   5.529   5.537  11.914  0.3330  0.3871 -0.0326
11833TIP3    H156914   5.483   5.594  11.852  0.8416  0.4452 -0.3619
11833TIP3    H256915   5.523   5.450  11.876 -0.8041  0.1316  0.6767
11834TIP3   OH256916   3.607   1.586   4.026 -0.6457 -0.0319  0.2823
11834TIP3    H156917   3.648   1.627   3.950 -0.3097 -0.8302  0.0204
11834TIP3    H256918   3.518   1.621   4.028 -0.4629  0.4633 -0.1147
11835TIP3   OH256919   5.800   1.270  13.056  0.9169 -0.5839 -0.3093
11835TIP3    H156920   5.734   1.292  13.122 -0.3051 -2.2605 -0.9211
11835TIP3    H256921   5.859   1.346  13.055 -0.6268  0.6891  0.7026
11836TIP3   OH256922   0.142   4.146  11.348  0.3559  0.9093  0.1549
11836TIP3    H156923   0.198   4.123  11.422 -0.8581  0.4204  0.9530
11836TIP3    H256924   0.088   4.068  11.335  0.3410  1.1105 -1.0580
11837TIP3   OH256925   4.664   2.388  15.041 -0.6002 -0.4977  0.2484
11837TIP3    H156926   4.690   2.417  14.953  1.1235 -1.2268  0.4766
11837TIP3    H256927   4.686   2.294  15.042  2.4432  0.0802  2.4383
11838TIP3   OH256928   3.930   4.312  13.879  0.1471 -0.5151  0.5413
11838TIP3    H156929   3.879   4.392  13.885 -0.4631 -0.8963  0.5108
11838TIP3    H256930   3.918   4.282  13.789  3.2552  1.2178 -0.6068
11839TIP3   OH256931   3.999   6.707   5.102  0.3680 -0.3372 -0.0887
11839TIP3    H156932   4.008   6.769   5.029  1.4547 -1.3803 -0.8846
11839TIP3    H256933   4.048   6.630   5.074  0.6597 -0.8466  1.6820
11840TIP3   OH256934   2.175   3.131   1.061 -0.4669 -0.5158 -0.0756
11840TIP3    H156935   2.082   3.134   1.081 -0.4735  0.5704 -0.2530
11840TIP3    H256936   2.217   3.106   1.144 -0.7640  0.8036  0.4924
11841TIP3   OH256937   5.832   3.824  17.175  0.4162 -0.4940 -0.1677
11841TIP3    H156938   5.919   3.856  17.152 -0.9944  2.3948 -2.2189
11841TIP3    H256939   5.814   3.754  17.113  0.4647  0.4562 -1.2823
11842TIP3   OH256940   4.032   2.605  13.878 -0.2664 -0.3901 -0.1007
11842TIP3    H156941   3.976   2.666  13.926 -1.7636 -0.9387 -1.0743
11842TIP3    H256942   4.049   2.649  13.794 -3.2861 -2.1258 -1.7913
11843TIP3   OH256943   4.078   2.125   5.664  0.3753  0.4167 -0.5267
11843TIP3    H156944   4.073   2.212   5.623 -1.2954  1.8064  2.2940
11843TIP3    H256945   4.162   2.124   5.709 -0.5633  1.6182  1.3682
11844TIP3   OH256946   5.215   1.590  12.442  0.2197 -0.2155 -0.2116
11844TIP3    H156947   5.133   1.546  12.465  0.9920 -1.2745  0.6369
11844TIP3    H256948   5.260   1.528  12.385  1.1952 -0.4226  0.7502
11845TIP3   OH256949   5.438   1.757   3.966  0.0683  0.3475  0.3595
11845TIP3    H156950   5.374   1.776   3.897  0.0098  1.1795  0.6371
11845TIP3    H256951   5.519   1.800   3.936 -0.1342  1.2728  1.1143
11846TIP3   OH256952   4.782   3.175  17.071 -0.1455  0.7341 -0.1724
11846TIP3    H156953   4.815   3.182  16.981  0.2704  0.3661 -0.0469
11846TIP3    H256954   4.743   3.261  17.088 -0.4910  0.7126 -0.8067
11847TIP3   OH256955   1.134   1.478   2.790  0.1846  0.0694  0.5715
11847TIP3    H156956   1.097   1.563   2.812  0.3763 -0.0705  1.4500
11847TIP3    H256957   1.217   1.498   2.747  1.7715  0.3203  3.5292
11848TIP3   OH256958   3.122   3.487  13.680  0.4311  0.2268  0.5978
11848TIP3    H156959   3.030   3.485  13.705  0.4270 -0.9884  0.5463
11848TIP3    H256960   3.169   3.495  13.763  0.2871  0.3401  0.6684
11849TIP3   OH256961   2.475   5.935  14.498 -0.1766  0.1220  0.7395
11849TIP3    H156962   2.552   5.881  14.517 -1.1092 -0.6914  2.3931
11849TIP3    H256963   2.401   5.886  14.534 -1.1346  2.2102  1.7507
11850TIP3   OH256964   6.444   0.593   5.729  0.1939  0.5002 -0.5029
11850TIP3    H156965   6.479   0.664   5.784  0.8529  1.0728 -1.6277
11850TIP3    H256966   6.399   0.638   5.658  0.4464 -0.2212 -1.1260
11851TIP3   OH256967   3.502   1.113  14.355 -0.3557 -0.5964 -0.3127
11851TIP3    H156968   3.462   1.037  14.312  0.6449  0.2028 -2.8467
11851TIP3    H256969   3.472   1.188  14.304  0.3250  0.5248  0.8672
11852TIP3   OH256970   4.366   6.378  11.933  0.5747 -0.2509  0.3730
11852TIP3    H156971   4.367   6.332  12.017 -0.6290 -2.5825 -0.7901
11852TIP3    H256972   4.274   6.397  11.916  0.7755  0.0347 -0.4902
11853TIP3   OH256973   3.307   2.095  11.253  0.1289 -0.1024 -0.5621
11853TIP3    H156974   3.326   2.170  11.197 -0.1350 -1.9414 -3.3643
11853TIP3    H256975   3.305   2.020  11.192  1.0860 -2.5029  2.1222
11854TIP3   OH256976   2.415   0.455  12.306 -0.0884  0.1092 -0.1535
11854TIP3    H156977   2.450   0.385  12.361  2.3993 -0.6511 -2.4802
11854TIP3    H256978   2.460   0.534  12.337  1.3995 -0.3359 -1.0273
11855TIP3   OH256979   5.652   3.191   3.565  0.7256 -0.1364 -0.3064
11855TIP3    H156980   5.661   3.120   3.628 -0.8203 -0.5586 -0.5348
11855TIP3    H256981   5.559   3.193   3.542  1.2572 -0.1751 -2.7952
11856TIP3   OH256982   0.383   0.229  16.487  0.0064 -0.4721 -0.6128
11856TIP3    H156983   0.316   0.291  16.515  0.1969 -1.1958  1.5972
11856TIP3    H256984   0.418   0.267  16.406  0.4907  2.5823  0.8908
11857TIP3   OH256985   0.722   4.726  13.763  0.0880 -0.7575 -0.5587
11857TIP3    H156986   0.777   4.721  13.684 -0.0206 -1.9780 -0.5702
11857TIP3    H256987   0.779   4.695  13.834 -0.1381 -0.6371 -0.3214
11858TIP3   OH256988   3.689   5.172   5.192 -0.3116  0.2821  0.4746
11858TIP3    H156989   3.618   5.196   5.132 -1.5216  0.2548  1.8595
11858TIP3    H256990   3.703   5.078   5.176 -0.2115  0.3943 -0.1521
11859TIP3   OH256991   2.837   5.211  13.452 -0.4112  0.7138  0.3175
11859TIP3    H156992   2.775   5.196  13.523 -0.5084  0.1321  0.1150
11859TIP3    H256993   2.880   5.126  13.438  1.5681  1.4563  1.5012
11860TIP3   OH256994   4.515   6.439  14.943 -0.0718  0.5726  0.1564
11860TIP3    H156995   4.448   6.425  14.876 -0.4315 -1.7087  0.9211
11860TIP3    H256996   4.568   6.511  14.908  0.5887 -1.3759 -3.2982
11861TIP3   OH256997   1.295   3.428   4.581 -0.3279  0.2903  0.5727
11861TIP3    H156998   1.348   3.475   4.516 -2.2439 -0.7747 -1.9143
11861TIP3    H256999   1.335   3.341   4.586  0.1116  0.5227  1.2367
11862TIP3   OH257000   4.654   3.549   6.032 -0.0142  0.1020  0.2497
11862TIP3    H157001   4.666   3.470   6.085  0.4899 -0.8880 -1.2566
11862TIP3    H257002   4.600   3.607   6.085  2.1431  0.0348  2.7073
11863TIP3   OH257003   3.685   2.831  16.645 -0.0675  0.2971 -0.2260
11863TIP3    H157004   3.663   2.809  16.555  0.3080 -0.6534 -0.0908
11863TIP3    H257005   3.734   2.756  16.678  3.5592  2.2542 -0.5489
11864TIP3   OH257006   6.722   5.956  16.796  0.0448 -0.3124 -0.0447
11864TIP3    H157007   6.781   5.955  16.871 -0.2340  0.0347  0.1827
11864TIP3    H257008   6.635   5.970  16.833 -0.1715 -0.7131 -0.3864
11865TIP3   OH257009   5.851   2.631   4.569  0.0008  0.1674  0.4557
11865TIP3    H157010   5.759   2.627   4.597  0.1527 -0.3607  0.8989
11865TIP3    H257011   5.892   2.691   4.631  0.9657 -3.0951  3.3410
11866TIP3   OH257012   5.286   5.104  16.899 -0.2419  0.2575 -0.2298
11866TIP3    H157013   5.267   5.037  16.965 -0.7457  0.7486  0.1254
11866TIP3    H257014   5.373   5.136  16.922  0.1154 -0.4549 -0.5592
11867TIP3   OH257015   2.399   2.690  15.648  0.0934  0.2476 -0.0764
11867TIP3    H157016   2.464   2.637  15.695 -0.4102 -0.3914 -0.0678
11867TIP3    H257017   2.315   2.657  15.680 -0.2380  0.8970 -0.2608
11868TIP3   OH257018   1.748   0.689   4.182  0.8901 -0.0099  0.4708
11868TIP3    H157019   1.811   0.708   4.252 -0.6532 -2.2028  2.6198
11868TIP3    H257020   1.707   0.607   4.208  0.2152 -0.9893 -3.0986
11869TIP3   OH257021   4.236   0.453  13.873 -0.4916 -0.2171  1.2095
11869TIP3    H157022   4.180   0.529  13.856  1.8559  1.5800  1.0052
11869TIP3    H257023   4.224   0.435  13.966 -0.6993  0.7113  1.3707
11870TIP3   OH257024   1.144   2.722   1.886  0.2512  0.1935 -0.2664
11870TIP3    H157025   1.142   2.816   1.871  1.1871  0.0847 -1.1370
11870TIP3    H257026   1.158   2.684   1.799 -0.6539 -0.7848 -0.0107
11871TIP3   OH257027   4.492   4.652  16.538  0.3932  0.4044  0.0978
11871TIP3    H157028   4.534   4.652  16.452 -1.1113 -0.3475 -0.6729
11871TIP3    H257029   4.515   4.567  16.576  0.9714  0.6943  0.4121
11872TIP3   OH257030   0.988   3.624  12.179  0.2686 -0.0298  0.0391
11872TIP3    H157031   0.909   3.591  12.224  0.9614 -0.6113  0.8647
11872TIP3    H257032   0.957   3.698  12.128 -0.6064  0.5398  1.3347
11873TIP3   OH257033   1.365   3.841   4.804  0.2983 -0.4646  0.2497
11873TIP3    H157034   1.420   3.769   4.835  0.3091 -0.3024  0.6183
11873TIP3    H257035   1.385   3.914   4.864  1.0718  0.1735 -0.7565
11874TIP3   OH257036   1.038   4.543   4.399 -0.3007  0.6718  0.2820
11874TIP3    H157037   1.105   4.609   4.384 -1.6859  1.9802 -0.4656
11874TIP3    H257038   1.031   4.496   4.316  0.8123 -0.5945  0.8677
11875TIP3   OH257039   0.172   3.617   0.652  0.0805 -0.4635  0.4422
11875TIP3    H157040   0.132   3.657   0.575 -0.5967 -0.3770  0.8321
11875TIP3    H257041   0.265   3.609   0.629 -0.2494 -1.1997 -0.6905
11876TIP3   OH257042   2.210   0.580  11.422  0.1143  0.1503 -0.3887
11876TIP3    H157043   2.221   0.616  11.334  1.7749  3.6803  1.0839
11876TIP3    H257044   2.294   0.593  11.465  0.3242 -4.1287  1.0019
11877TIP3   OH257045   2.983   3.616   0.570  0.0613  0.1270 -0.6261
11877TIP3    H157046   2.944   3.625   0.657  1.6788  0.6312  0.0736
11877TIP3    H257047   3.036   3.694   0.558  1.4149 -0.8393 -1.2527
11878TIP3   OH257048   1.013   1.700   3.252  0.0050 -0.0244  0.2176
11878TIP3    H157049   1.048   1.669   3.335  0.7895  2.6136  0.9745
11878TIP3    H257050   1.068   1.658   3.185  1.4861  0.2824  1.2003
11879TIP3   OH257051   5.153   0.087  13.905  0.0198 -0.8033  0.5528
11879TIP3    H157052   5.198   0.104  13.822 -1.8174 -1.8796 -0.7428
11879TIP3    H257053   5.204   0.016  13.945 -0.1427 -1.6317 -0.6263
11880TIP3   OH257054   3.535   5.926  16.414  0.0008  0.6993 -0.3144
11880TIP3    H157055   3.597   5.861  16.447  1.4911  2.0506 -0.3096
11880TIP3    H257056   3.503   5.888  16.332  0.4940 -0.2367 -0.0977
11881TIP3   OH257057   5.859   0.514   0.017  0.1415  0.2589  0.2214
11881TIP3    H157058   5.908   0.530  -0.064  2.0740  2.5892  1.7026
11881TIP3    H257059   5.906   0.442   0.059  1.5800  1.5795  0.9869
11882TIP3   OH257060   1.764   4.385   4.081 -0.5993  0.6261 -0.5404
11882TIP3    H157061   1.676   4.362   4.111 -0.6096  1.0772 -0.2199
11882TIP3    H257062   1.804   4.301   4.058 -0.6300  0.2690  0.6363
11883TIP3   OH257063   0.631   2.816   6.356 -0.0016 -0.0674 -0.1182
11883TIP3    H157064   0.586   2.733   6.377 -0.6643  0.2975 -0.0627
11883TIP3    H257065   0.724   2.792   6.352 -0.2359 -0.9572 -0.7925
11884TIP3   OH257066   4.035   2.602   0.940 -0.1892  0.3306  0.2744
11884TIP3    H157067   3.969   2.538   0.913  0.2536 -0.2334  0.5236
11884TIP3    H257068   4.088   2.616   0.861 -0.3970  0.5308  0.1689
11885TIP3   OH257069   1.132   3.905   2.128  0.1113 -0.0744 -0.0178
11885TIP3    H157070   1.038   3.885   2.121  0.0428 -0.1483  1.0162
11885TIP3    H257071   1.149   3.963   2.054 -0.6732 -0.3510 -0.4244
11886TIP3   OH257072   3.071   6.237   0.755  0.0760 -0.1199 -0.2953
11886TIP3    H157073   2.985   6.199   0.741 -0.1365  0.3831 -0.3907
11886TIP3    H257074   3.065   6.325   0.717 -0.2724  1.0114  2.2056
11887TIP3   OH257075   4.793   4.791  16.249 -0.1070  0.3898  0.0225
11887TIP3    H157076   4.709   4.758  16.219  0.9211 -1.1294 -1.3405
11887TIP3    H257077   4.780   4.885  16.259 -1.4731  0.4784 -2.0127
11888TIP3   OH257078   5.304   2.041   5.230 -0.3502 -0.4257  0.0073
11888TIP3    H157079   5.358   1.977   5.276  0.8589  1.2295  0.9704
11888TIP3    H257080   5.325   2.125   5.271 -2.2322  0.5500 -0.9009
11889TIP3   OH257081   6.291   6.775   3.522  0.1232  0.0037  0.0266
11889TIP3    H157082   6.233   6.730   3.461 -0.1596 -1.1699  1.1126
11889TIP3    H257083   6.351   6.825   3.466 -0.7414 -0.2455 -1.1639
11890TIP3   OH257084   0.363   6.571   0.830  0.2132 -0.1414  0.1120
11890TIP3    H157085   0.299   6.561   0.759  0.1111  0.9238  0.0336
11890TIP3    H257086   0.353   6.662   0.858  2.7035  0.5200 -0.8973
11891TIP3   OH257087   1.025   6.097   0.199  0.4710 -0.4077  0.3924
11891TIP3    H157088   1.061   6.145   0.124 -0.1905 -0.9870 -0.3227
11891TIP3    H257089   1.102   6.065   0.246  0.9047 -0.6591 -0.4632
11892TIP3   OH257090   3.588   0.515   4.448  0.1001 -0.3919 -0.6096
11892TIP3    H157091   3.552   0.428   4.430  0.4969 -0.6322 -0.2605
11892TIP3    H257092   3.515   0.575   4.431 -0.3059 -0.8267 -0.4224
11893TIP3   OH257093   5.583   0.866  13.788 -0.5516 -0.0112 -0.1306
11893TIP3    H157094   5.516   0.881  13.722 -0.2092 -0.6809 -0.6434
11893TIP3    H257095   5.549   0.793  13.841 -0.2009 -0.4045 -0.4398
11894TIP3   OH257096   2.689   6.122  16.505 -0.1439 -0.4394 -1.1592
11894TIP3    H157097   2.685   6.203  16.557 -2.6597 -0.3426 -1.3654
11894TIP3    H257098   2.767   6.077  16.537 -0.0433  0.9284  0.7094
11895TIP3   OH257099   0.541   6.650   0.298  0.0336 -0.2049 -0.3306
11895TIP3    H157100   0.560   6.690   0.213  0.4227 -2.0247 -1.1602
11895TIP3    H257101   0.604   6.578   0.305 -1.0437 -1.0886  0.7528
11896TIP3   OH257102   2.063   4.713  12.866  0.1105 -0.1561 -0.0663
11896TIP3    H157103   2.042   4.681  12.954  3.0451 -2.0072  0.1102
11896TIP3    H257104   2.081   4.806  12.877 -0.0307 -0.2697  1.2068
11897TIP3   OH257105   0.758   4.678  14.057  0.6898  0.3390  0.0453
11897TIP3    H157106   0.836   4.638  14.094  0.0174  0.2499  1.4584
11897TIP3    H257107   0.705   4.702  14.134  0.0407  1.8298 -0.8166
11898TIP3   OH257108   0.765   2.919  11.200 -0.0426  0.2392  0.0279
11898TIP3    H157109   0.686   2.954  11.242 -1.2416 -0.9732 -1.1271
11898TIP3    H257110   0.817   2.997  11.178 -0.2252  0.9931  2.0293
11899TIP3   OH257111   4.167   1.946   1.645 -0.1485 -0.2273  0.2080
11899TIP3    H157112   4.172   1.860   1.604  0.3634 -0.1716  0.1519
11899TIP3    H257113   4.226   2.001   1.593 -1.7627  0.6026 -0.8354
11900TIP3   OH257114   3.152   5.431  11.735  0.0564  0.3246 -0.0827
11900TIP3    H157115   3.073   5.381  11.714 -0.7356  1.0708  1.0164
11900TIP3    H257116   3.178   5.471  11.652 -0.2081 -0.6319 -0.6380
11901TIP3   OH257117   3.438   2.237   6.178  0.2883  0.0695  0.2479
11901TIP3    H157118   3.365   2.273   6.129  1.8079 -0.6763 -2.7999
11901TIP3    H257119   3.398   2.192   6.253 -2.1333  1.4749 -0.1177
11902TIP3   OH257120   2.991   3.803  12.586  0.1722 -0.4279  0.2775
11902TIP3    H157121   2.935   3.882  12.587  1.0938  0.3824 -2.4255
11902TIP3    H257122   2.936   3.735  12.623 -0.8398  1.3578  2.2836
11903TIP3   OH257123   6.160   5.864  15.069 -0.0002 -0.1722  0.0600
11903TIP3    H157124   6.208   5.817  15.137  1.2988  0.0033 -0.7078
11903TIP3    H257125   6.173   5.812  14.990  0.4268  0.8043 -0.5316
11904TIP3   OH257126   0.815   0.703  12.190  0.0262  0.1472 -0.0565
11904TIP3    H157127   0.750   0.718  12.121  0.0737  1.0459  0.0802
11904TIP3    H257128   0.878   0.774  12.178  0.7801 -0.4935  0.0548
11905TIP3   OH257129   5.488   6.180   3.175  0.2143 -0.2072  0.2234
11905TIP3    H157130   5.530   6.262   3.203  1.8668 -1.2484  0.9040
11905TIP3    H257131   5.435   6.154   3.251  0.4705 -0.2684  0.3840
11906TIP3   OH257132   2.200   6.227  13.186  0.0224  0.2576  0.8102
11906TIP3    H157133   2.216   6.238  13.093 -0.6224 -0.8556  0.5492
11906TIP3    H257134   2.117   6.272  13.202  0.6316  1.3211  1.0655
11907TIP3   OH257135   2.719   2.160  16.040 -0.0404  0.2688  0.0538
11907TIP3    H157136   2.702   2.096  16.109  0.4491  1.9546  1.8128
11907TIP3    H257137   2.748   2.238  16.086  0.2445  1.4988 -2.0808
11908TIP3   OH257138   0.754   4.395  10.700  0.2209  0.0039  0.4939
11908TIP3    H157139   0.839   4.423  10.667 -0.6950 -0.0071 -2.0717
11908TIP3    H257140   0.768   4.304  10.726  0.7983 -0.3150 -0.8378
11909TIP3   OH257141   6.389   3.648  15.535 -0.2572  0.3495 -0.0273
11909TIP3    H157142   6.462   3.687  15.487 -0.5212  1.1504  0.1923
11909TIP3    H257143   6.322   3.717  15.536  0.1471  0.8013  2.4075
11910TIP3   OH257144   2.314   4.417  16.375  0.1374 -0.6271 -0.8835
11910TIP3    H157145   2.402   4.434  16.410  0.1938  1.6494 -1.9440
11910TIP3    H257146   2.322   4.333  16.331  0.9371 -1.9703  1.5848
11911TIP3   OH257147   0.239   5.538  13.546 -0.2191  0.0879  0.5918
11911TIP3    H157148   0.184   5.616  13.535  1.2920  1.0851 -0.2975
11911TIP3    H257149   0.230   5.491  13.463 -0.7053 -0.4100  0.9238
11912TIP3   OH257150   4.730   5.906   5.697  0.0211  0.3441  0.5072
11912TIP3    H157151   4.717   6.001   5.693 -3.4202  0.0737  1.7283
11912TIP3    H257152   4.686   5.880   5.778  0.5920 -2.3737  0.0320
11913TIP3   OH257153   3.496   4.546   2.107  0.4156  0.4451 -0.2379
11913TIP3    H157154   3.494   4.639   2.128  0.1863  0.3201  0.2909
11913TIP3    H257155   3.405   4.524   2.083  0.6182  0.5303 -1.1401
11914TIP3   OH257156   3.729   4.970  10.260 -0.1730 -0.6017 -0.5956
11914TIP3    H157157   3.819   4.939  10.253  0.3423  0.9423 -1.1243
11914TIP3    H257158   3.709   5.007  10.174 -2.5398 -3.9416 -1.6768
11915TIP3   OH257159   4.227   6.566   3.242  0.0101 -0.0877  0.5111
11915TIP3    H157160   4.319   6.541   3.244  0.1122  0.2083 -0.2073
11915TIP3    H257161   4.185   6.499   3.188 -0.4737 -1.0490  2.0102
11916TIP3   OH257162   0.853   6.290   1.722  0.1964 -0.0568  0.5212
11916TIP3    H157163   0.804   6.229   1.777  0.5745 -0.0455  0.8739
11916TIP3    H257164   0.814   6.375   1.740 -0.7268 -0.2623 -0.4125
11917TIP3   OH257165   5.699   0.429  13.726 -0.3223  0.5404 -0.0968
11917TIP3    H157166   5.679   0.337  13.711 -1.4479  0.6132  0.8382
11917TIP3    H257167   5.794   0.431  13.742 -0.3458 -0.5018  0.2050
11918TIP3   OH257168   4.900   5.707  16.630  0.2618 -0.1601 -0.6353
11918TIP3    H157169   4.821   5.685  16.679  0.8816 -1.3184 -0.1248
11918TIP3    H257170   4.972   5.689  16.690  1.0011 -0.8154 -1.6779
11919TIP3   OH257171   5.096   0.602  15.844  0.2859  0.1858 -0.8445
11919TIP3    H157172   5.115   0.521  15.892  0.1187 -0.7014 -2.2170
11919TIP3    H257173   5.038   0.651  15.902 -0.1078 -0.9575 -0.2385
11920TIP3   OH257174   2.331   3.149   0.621 -0.4980  0.4509 -0.4912
11920TIP3    H157175   2.395   3.216   0.600 -1.5392  0.8509 -2.7529
11920TIP3    H257176   2.250   3.197   0.637 -0.6197 -0.1297  0.7852
11921TIP3   OH257177   1.628   4.082  14.232  0.2259  0.3491  0.5083
11921TIP3    H157178   1.716   4.113  14.255  1.0186 -0.8310 -0.7724
11921TIP3    H257179   1.618   4.000  14.280 -0.3956  0.7308  1.0455
11922TIP3   OH257180   3.709   4.150   3.770  0.1639 -0.1587 -0.5133
11922TIP3    H157181   3.653   4.201   3.712  0.0080  0.3372  0.0530
11922TIP3    H257182   3.750   4.216   3.827  1.2762 -0.5167 -0.8743
11923TIP3   OH257183   2.222   5.427  13.004 -0.2593  0.3210  0.5027
11923TIP3    H157184   2.243   5.499  13.064  0.7698  0.4311  0.0370
11923TIP3    H257185   2.304   5.412  12.956 -0.3874 -1.3135  0.7519
11924TIP3   OH257186   5.919   4.451   2.662  0.4206  0.0344 -0.2540
11924TIP3    H157187   5.861   4.463   2.738  1.6916  0.5675  0.6778
11924TIP3    H257188   5.994   4.508   2.681  1.2015 -0.5563 -1.4731
11925TIP3   OH257189   1.893   0.662  11.897 -0.0190  0.6861  0.0370
11925TIP3    H157190   1.878   0.746  11.941  1.1934  0.0293  1.8411
11925TIP3    H257191   1.890   0.683  11.804 -0.2561  2.6383  0.4307
11926TIP3   OH257192   3.233   3.102   0.041 -0.3208  0.1978  0.1161
11926TIP3    H157193   3.251   3.177   0.096  0.5133 -0.5117  0.8376
11926TIP3    H257194   3.266   3.126  -0.045  3.2607 -0.5959  1.1027
11927TIP3   OH257195   5.574   2.054   0.774 -0.0343  0.6951 -0.2838
11927TIP3    H157196   5.558   2.147   0.783 -0.4676  0.6242 -0.2893
11927TIP3    H257197   5.509   2.024   0.711 -1.6756 -0.0844  1.6590
11928TIP3   OH257198   0.212   1.385   4.437  0.6779 -0.2210  0.0939
11928TIP3    H157199   0.128   1.342   4.457  0.7598 -0.5949 -0.3536
11928TIP3    H257200   0.277   1.314   4.443  0.7468 -0.2893 -1.1769
11929TIP3   OH257201   6.124   0.429  14.289  0.2556 -0.1430 -0.5995
11929TIP3    H157202   6.123   0.485  14.366 -1.4298 -1.1586  0.1690
11929TIP3    H257203   6.212   0.390  14.289  0.3421  0.0241  0.6870
11930TIP3   OH257204   6.587   1.080   5.262 -0.2630  0.0082 -0.1465
11930TIP3    H157205   6.644   1.003   5.265 -1.1089 -0.7135 -1.5817
11930TIP3    H257206   6.623   1.139   5.329  0.7844 -1.3517  0.5361
11931TIP3   OH257207   6.592   2.888   2.628 -0.3645  0.3225  0.3569
11931TIP3    H157208   6.513   2.901   2.575 -1.5977 -1.5857  1.6456
11931TIP3    H257209   6.645   2.827   2.577 -0.0187  1.0421 -0.1685
11932TIP3   OH257210   5.285   1.942   2.831  0.4086 -0.0100 -0.4053
11932TIP3    H157211   5.339   1.979   2.761 -0.4917  0.3144 -0.9445
11932TIP3    H257212   5.341   1.945   2.909  1.6304 -0.9377 -1.2265
11933TIP3   OH257213   6.051   4.843   2.545 -0.3443  0.5010 -0.3310
11933TIP3    H157214   6.004   4.853   2.461 -1.6416  2.9566  0.5854
11933TIP3    H257215   6.122   4.907   2.541  1.6602 -1.6158 -0.7663
11934TIP3   OH257216   6.366   0.829   5.590 -0.3666  0.4326  0.0448
11934TIP3    H157217   6.359   0.901   5.654  1.4532  0.7691 -0.0928
11934TIP3    H257218   6.458   0.827   5.567 -0.5375 -1.4368 -0.5888
11935TIP3   OH257219   1.688   6.739   5.393 -0.0649 -0.1356 -0.1139
11935TIP3    H157220   1.754   6.683   5.433  2.5737  1.3184 -2.0894
11935TIP3    H257221   1.683   6.710   5.302 -0.8680  0.8843 -0.4186
11936TIP3   OH257222   1.873   1.342   4.333 -0.7712  0.4720 -0.0116
11936TIP3    H157223   1.832   1.259   4.355 -0.4056  0.5314  0.9927
11936TIP3    H257224   1.804   1.394   4.292 -1.3201  0.0892  0.4196
11937TIP3   OH257225   2.711   2.582   3.376  0.5750 -0.1340 -0.1758
11937TIP3    H157226   2.685   2.667   3.341  0.9743 -0.6794 -1.8987
11937TIP3    H257227   2.651   2.520   3.336  1.8227 -0.9213 -0.8952
11938TIP3   OH257228   4.889   3.512  12.077 -0.1692 -0.0338 -0.5066
11938TIP3    H157229   4.924   3.601  12.068 -1.1683  0.3668 -0.5340
11938TIP3    H257230   4.821   3.520  12.144  1.4396 -1.3004  1.4076
11939TIP3   OH257231   2.630   2.049  14.238 -0.0715 -0.4271 -0.5195
11939TIP3    H157232   2.614   1.999  14.158  0.0952  1.0652 -1.5254
11939TIP3    H257233   2.696   2.113  14.214 -1.8548  1.7758  0.0353
11940TIP3   OH257234   6.220   2.073   4.940 -0.1183 -0.6218  0.8731
11940TIP3    H157235   6.141   2.088   4.889  0.7531  1.5845  0.0192
11940TIP3    H257236   6.270   2.155   4.932  2.0397 -1.7471  1.7561
11941TIP3   OH257237   3.890   0.518  11.611  0.3593  0.2132  0.0261
11941TIP3    H157238   3.983   0.508  11.631  0.4486  0.7984 -0.0708
11941TIP3    H257239   3.879   0.476  11.526  0.2613 -1.0264  0.6225
11942TIP3   OH257240   5.187   4.827  10.332 -0.3787  0.1584 -0.1933
11942TIP3    H157241   5.117   4.812  10.395  0.6147  0.8606  1.1337
11942TIP3    H257242   5.239   4.747  10.333 -0.7663 -0.1041 -0.6735
11943TIP3   OH257243   0.911   1.084  11.220 -0.3098 -0.3311  0.4206
11943TIP3    H157244   0.834   1.106  11.272 -0.2845 -1.4021  0.9550
11943TIP3    H257245   0.963   1.164  11.217 -0.6814 -0.0402  1.4204
11944TIP3   OH257246   6.460   0.474  14.277  0.3756  0.5149 -0.0117
11944TIP3    H157247   6.474   0.411  14.348 -1.1391  0.8505  0.6120
11944TIP3    H257248   6.532   0.458  14.216 -0.1221 -2.0298 -0.0188
11945TIP3   OH257249   2.094   6.613  16.529 -0.2827 -0.0368  0.1035
11945TIP3    H157250   2.155   6.541  16.547 -0.7289 -0.7204 -0.9665
11945TIP3    H257251   2.008   6.570  16.521 -0.3235  0.3427 -2.1888
11946TIP3   OH257252   2.601   0.047   5.149 -0.0783  0.3990 -0.2185
11946TIP3    H157253   2.647  -0.023   5.195 -0.5885 -1.1459 -1.9387
11946TIP3    H257254   2.509   0.020   5.152 -0.2191  0.7304 -1.3210
11947TIP3   OH257255   4.768   2.374  12.482  0.0438  0.0165 -0.2023
11947TIP3    H157256   4.767   2.368  12.386 -0.1248  2.7246 -0.4652
11947TIP3    H257257   4.858   2.397  12.503  0.5800 -2.5153  0.5348
11948TIP3   OH257258   4.028   1.560   0.229 -0.0269 -0.4472 -0.1182
11948TIP3    H157259   4.118   1.570   0.259 -0.0230  1.0158 -0.5611
11948TIP3    H257260   4.012   1.465   0.233  1.4609 -0.7145  0.1200
11949TIP3   OH257261   4.640   4.553  12.171 -0.1599 -0.2616  0.7816
11949TIP3    H157262   4.606   4.493  12.238 -0.9525  0.9752  1.5450
11949TIP3    H257263   4.708   4.603  12.216  0.2904 -0.3902  0.2460
11950TIP3   OH257264   0.805   3.575  14.497  0.1249 -0.1752 -0.1175
11950TIP3    H157265   0.735   3.606  14.439 -1.3022 -1.8181  0.6550
11950TIP3    H257266   0.826   3.651  14.551  0.6131  1.0324 -1.8806
11951TIP3   OH257267   6.587   3.595  12.299 -0.1745 -0.0850  0.9869
11951TIP3    H157268   6.593   3.686  12.269 -0.0765 -0.3095  0.2928
11951TIP3    H257269   6.550   3.548  12.224  2.3103 -1.1089  0.2804
11952TIP3   OH257270   3.783   4.559   4.631  0.0277  0.6406 -0.1424
11952TIP3    H157271   3.700   4.538   4.674 -0.6530  0.1576 -1.6577
11952TIP3    H257272   3.848   4.509   4.680 -0.7459 -0.0615  0.1913
11953TIP3   OH257273   2.733   0.465  12.329  0.4986  0.5678 -0.3622
11953TIP3    H157274   2.731   0.557  12.358  0.1396  0.8221 -1.1747
11953TIP3    H257275   2.721   0.469  12.234  1.5704 -0.2614 -0.5488
11954TIP3   OH257276   0.196   1.286   1.581 -0.2443 -0.6797 -0.1340
11954TIP3    H157277   0.223   1.367   1.623  0.3940 -0.6137 -0.6641
11954TIP3    H257278   0.111   1.307   1.541  0.3158 -0.0112 -1.0081
11955TIP3   OH257279   0.452   3.720  16.856 -0.4488 -0.2345 -0.2877
11955TIP3    H157280   0.429   3.636  16.816 -1.4077 -0.3446  0.4475
11955TIP3    H257281   0.391   3.729  16.929  0.2207  0.6993  0.1752
11956TIP3   OH257282   5.638   3.480   3.933 -0.5240 -0.1473 -0.1706
11956TIP3    H157283   5.574   3.410   3.948  0.7792 -0.7311  3.5704
11956TIP3    H257284   5.594   3.560   3.961 -0.5479 -0.1234 -0.2761
11957TIP3   OH257285   3.494   4.970  13.665  0.8467  0.1775  0.0822
11957TIP3    H157286   3.413   4.927  13.692  1.2942 -0.8221 -0.1057
11957TIP3    H257287   3.475   5.001  13.576  0.6535 -0.0173  0.0528
11958TIP3   OH257288   3.676   4.962   2.517 -0.0303  0.2141  0.5517
11958TIP3    H157289   3.769   4.982   2.506 -0.1330 -0.0496 -0.9277
11958TIP3    H257290   3.636   5.047   2.540  0.6868  0.1466  2.2145
11959TIP3   OH257291   4.993   6.262  11.294 -0.0400 -0.5654 -0.5747
11959TIP3    H157292   4.927   6.198  11.320 -0.0861 -0.9590 -1.6259
11959TIP3    H257293   5.026   6.230  11.210  0.1163  0.6532 -0.9952
11960TIP3   OH257294   4.238   0.962   3.152 -0.1134 -0.4615 -0.1900
11960TIP3    H157295   4.193   0.995   3.075 -0.2158 -0.2638 -0.0442
11960TIP3    H257296   4.176   0.902   3.193 -0.3754  0.0620  0.1938
11961TIP3   OH257297   3.437   1.502  17.136 -0.3977 -0.5908  0.4822
11961TIP3    H157298   3.505   1.471  17.196 -0.6522 -0.4054  0.8720
11961TIP3    H257299   3.414   1.589  17.169  0.5870  0.2212 -0.8161
11962TIP3   OH257300   5.567   0.246  14.041 -0.4072 -0.6127 -0.5025
11962TIP3    H157301   5.500   0.295  13.994  0.0616  0.3088 -0.2261
11962TIP3    H257302   5.620   0.312  14.085 -0.1971 -1.4038  0.4789
11963TIP3   OH257303   2.234   6.438  14.333  0.2104  0.0610 -0.3539
11963TIP3    H157304   2.159   6.444  14.274 -0.2233  1.4324  0.2922
11963TIP3    H257305   2.212   6.496  14.405  1.8663  0.4252 -0.1102
11964TIP3   OH257306   4.500   5.659  13.793  0.4099  0.4658  0.1152
11964TIP3    H157307   4.553   5.676  13.715  0.8312 -5.4302 -1.3825
11964TIP3    H257308   4.561   5.620  13.855 -0.9076 -0.1042  1.0980
11965TIP3   OH257309   4.570   5.265  15.467  0.0786  0.1138  0.3307
11965TIP3    H157310   4.497   5.321  15.494 -0.7371 -1.0730  0.6575
11965TIP3    H257311   4.621   5.252  15.547 -0.2873 -0.3993  0.4882
11966TIP3   OH257312   5.141   6.614   4.226  0.2687 -0.1264 -0.4343
11966TIP3    H157313   5.226   6.649   4.200  0.1954  0.1222 -0.3409
11966TIP3    H257314   5.110   6.568   4.149 -0.1471  0.9861 -0.9570
11967TIP3   OH257315   3.551   4.487   4.116  0.4955 -0.2350  0.0570
11967TIP3    H157316   3.590   4.424   4.178  0.8822  0.2024  0.2655
11967TIP3    H257317   3.459   4.491   4.140  0.0662 -2.0513 -1.0854
11968TIP3   OH257318   5.925   4.859   3.359  0.0714 -0.1795  0.4654
11968TIP3    H157319   5.956   4.921   3.424  0.4804  0.7427 -0.5658
11968TIP3    H257320   5.879   4.913   3.294  1.7634 -0.6971 -1.2763
11969TIP3   OH257321   2.849   5.463  14.635  0.2987 -0.2382  0.2589
11969TIP3    H157322   2.792   5.486  14.709 -0.0246 -1.0972  0.2899
11969TIP3    H257323   2.933   5.441  14.675  0.1197 -0.7160  0.3784
11970TIP3   OH257324   2.773   5.721  11.932  0.4474 -0.0105 -0.0060
11970TIP3    H157325   2.801   5.773  11.856  1.2076 -2.1489 -1.2861
11970TIP3    H257326   2.677   5.720  11.925  0.5172 -0.4571 -1.1590
11971TIP3   OH257327   5.569   4.214  13.158 -0.2735  0.2020 -0.3151
11971TIP3    H157328   5.657   4.181  13.138 -0.1347  1.3036 -1.6068
11971TIP3    H257329   5.571   4.305  13.130 -1.3416  0.7055  1.1522
11972TIP3   OH257330   6.674   6.330  11.030 -0.5897 -0.5167  0.6495
11972TIP3    H157331   6.667   6.236  11.047  0.2487 -1.0868 -1.7434
11972TIP3    H257332   6.659   6.338  10.935 -1.0236  1.8149  0.8566
11973TIP3   OH257333   5.330   5.648   2.887 -0.2012 -0.3923  0.4506
11973TIP3    H157334   5.259   5.682   2.832 -0.8604 -2.1524  0.1095
11973TIP3    H257335   5.322   5.694   2.970 -1.4567 -0.2086  0.2404
11974TIP3   OH257336   5.022   3.272   6.451 -0.3427  0.0208  0.2546
11974TIP3    H157337   4.994   3.361   6.473 -1.5139 -0.2866  0.0699
11974TIP3    H257338   5.041   3.276   6.357  0.1507  0.2022  0.3578
11975TIP3   OH257339   1.169   5.724  16.004  0.0036 -1.0084  0.9258
11975TIP3    H157340   1.212   5.659  16.058  1.0478 -0.6415  0.5606
11975TIP3    H257341   1.227   5.801  16.007  0.4912 -1.2235 -1.2806
11976TIP3   OH257342   2.431   6.574   4.180  0.0483  0.3810  0.3796
11976TIP3    H157343   2.520   6.558   4.147  0.0753  0.1269  0.5795
11976TIP3    H257344   2.375   6.517   4.126  0.2540 -1.2315  1.7938
11977TIP3   OH257345   6.305   5.105   5.313 -0.1435  0.1496  0.3208
11977TIP3    H157346   6.391   5.063   5.318 -0.5177 -0.5881  0.6665
11977TIP3    H257347   6.316   5.189   5.358  0.3643  0.0192  0.4447
11978TIP3   OH257348   0.865   4.857  11.197 -0.3248 -0.2124  0.0354
11978TIP3    H157349   0.785   4.814  11.167 -0.1981  0.6024 -1.5985
11978TIP3    H257350   0.933   4.790  11.189 -0.7433 -0.7912  1.0722
11979TIP3   OH257351   5.120   6.040  16.627 -0.1480  0.2245  0.6481
11979TIP3    H157352   5.034   6.008  16.601  0.5445 -0.5606 -0.8248
11979TIP3    H257353   5.178   5.965  16.614  0.7706  0.7612  1.5432
11980TIP3   OH257354   6.029   3.691   5.050 -0.2360 -0.1926  0.2784
11980TIP3    H157355   6.097   3.630   5.080 -0.0780 -0.5027 -0.6797
11980TIP3    H257356   6.060   3.777   5.080  0.2288 -0.4173  0.4631
11981TIP3   OH257357   4.769   3.886  12.949 -0.0164  0.2850  0.0122
11981TIP3    H157358   4.851   3.842  12.970 -0.8589 -1.6817 -0.6280
11981TIP3    H257359   4.721   3.890  13.032 -0.0934 -0.3852  0.0034
11982TIP3   OH257360   2.750   0.969  11.552 -0.5679  0.9810  0.5445
11982TIP3    H157361   2.677   0.973  11.614 -1.3863 -3.3355  0.2035
11982TIP3    H257362   2.708   0.965  11.466  0.0908 -0.0003  0.2496
11983TIP3   OH257363   0.326   0.959  15.290  0.6382 -0.1679  0.1034
11983TIP3    H157364   0.319   0.939  15.196 -1.5116 -0.1334  0.1940
11983TIP3    H257365   0.417   0.940  15.312  0.6515 -2.4027 -1.5087
11984TIP3   OH257366   2.632   2.129   0.515 -0.2329  0.2610 -0.0600
11984TIP3    H157367   2.542   2.108   0.541 -0.3268 -0.2836 -0.8141
11984TIP3    H257368   2.626   2.216   0.475 -0.4068  0.2690 -0.0170
11985TIP3   OH257369   3.393   0.080   2.300 -0.5924 -0.1999  0.4064
11985TIP3    H157370   3.411   0.056   2.209  2.3042 -0.4834  0.9606
11985TIP3    H257371   3.324   0.145   2.294 -0.7548 -0.4984 -1.9656
11986TIP3   OH257372   5.339   5.866  11.527  0.2485  0.1892  0.3150
11986TIP3    H157373   5.251   5.834  11.507 -0.4624  2.3475 -0.3462
11986TIP3    H257374   5.386   5.863  11.444  0.7342 -0.7209  0.6130
11987TIP3   OH257375   5.030   1.799  16.223 -0.4104  0.0362  0.0160
11987TIP3    H157376   4.935   1.787  16.233 -0.2265 -2.5523 -0.7601
11987TIP3    H257377   5.066   1.711  16.221  1.9935  0.9437 -0.2442
11988TIP3   OH257378   6.538   4.692   2.817 -0.4519 -0.0192 -0.0465
11988TIP3    H157379   6.612   4.663   2.764 -1.3153  0.7572 -1.7439
11988TIP3    H257380   6.473   4.622   2.808 -0.0519 -0.5875  1.2447
11989TIP3   OH257381   6.749   4.537  13.542  0.5258  0.6213  0.6203
11989TIP3    H157382   6.823   4.507  13.489 -0.0614  1.4400 -0.7229
11989TIP3    H257383   6.747   4.632  13.530 -0.0390  0.7517  1.5972
11990TIP3   OH257384   1.899   2.877  15.960  0.8319 -0.2808  0.2823
11990TIP3    H157385   1.963   2.916  16.020 -0.2584 -0.8397  1.8486
11990TIP3    H257386   1.921   2.784  15.958  1.2457 -0.1830 -0.7212
11991TIP3   OH257387   6.406   4.895  17.098 -0.3949 -0.1407 -0.2297
11991TIP3    H157388   6.321   4.938  17.111 -0.4751 -0.0651 -0.9815
11991TIP3    H257389   6.420   4.845  17.178 -0.8843  0.3014  0.1377
11992TIP3   OH257390   2.840   2.259   3.553 -0.4745 -0.1348  0.4796
11992TIP3    H157391   2.891   2.327   3.509 -1.5896  0.4436  0.0562
11992TIP3    H257392   2.825   2.193   3.486 -0.6753 -0.0926  0.4846
11993TIP3   OH257393   5.809   1.064   5.833 -0.0670 -0.1389 -0.3917
11993TIP3    H157394   5.788   0.994   5.771  2.0104 -0.6532 -0.5726
11993TIP3    H257395   5.781   1.030   5.918  0.6810 -1.0917 -0.5178
11994TIP3   OH257396   1.774   3.367  11.815 -0.1150  0.0225  0.2398
11994TIP3    H157397   1.732   3.450  11.792  0.3308 -0.1422 -1.3286
11994TIP3    H257398   1.853   3.392  11.863  0.0021  0.5185 -0.1954
11995TIP3   OH257399   5.551   1.004  15.949 -0.1367  0.0572 -0.0274
11995TIP3    H157400   5.635   1.010  15.995  0.0777  1.7042 -0.5529
11995TIP3    H257401   5.529   1.095  15.930  0.0108 -0.5224 -3.5557
11996TIP3   OH257402   0.596   2.153  10.500  0.5952 -0.0411  0.4685
11996TIP3    H157403   0.594   2.248  10.484  3.6062 -0.1993 -1.9581
11996TIP3    H257404   0.653   2.144  10.577  0.0740  0.1184  0.8773
11997TIP3   OH257405   0.408   3.903  16.645  0.3342 -0.1421 -0.3460
11997TIP3    H157406   0.316   3.930  16.639  0.1937 -0.6441 -0.5069
11997TIP3    H257407   0.406   3.826  16.701  0.7865  0.4229  0.4633
11998TIP3   OH257408   3.478   4.793   3.028 -0.0849 -0.5181 -0.3740
11998TIP3    H157409   3.536   4.752   2.963  0.6182  0.7773 -0.5929
11998TIP3    H257410   3.485   4.887   3.010 -1.3944 -0.2695  0.3297
11999TIP3   OH257411   1.235   3.418   4.216  0.5117 -0.8201 -0.0547
11999TIP3    H157412   1.318   3.444   4.255  0.3688 -0.3174 -0.0833
11999TIP3    H257413   1.244   3.324   4.201  1.3042 -0.6615 -0.6275
12000TIP3   OH257414   6.377   4.094   3.511 -0.0177 -0.2504 -0.3742
12000TIP3    H157415   6.387   4.021   3.571  2.0296 -0.5885 -1.0443
12000TIP3    H257416   6.290   4.082   3.473 -0.3559 -1.4121  0.6954
12001TIP3   OH257417   4.430   4.148  13.019 -0.0037 -0.2054 -0.5742
12001TIP3    H157418   4.337   4.167  13.007  0.0888  2.3489  1.6382
12001TIP3    H257419   4.458   4.109  12.937 -3.2203 -2.0268 -0.9452
12002TIP3   OH257420   6.679   6.420  16.351 -0.1966  0.1178  0.3404
12002TIP3    H157421   6.651   6.497  16.302 -1.4427 -0.2614  0.4404
12002TIP3    H257422   6.707   6.357  16.284  1.2500  0.7771  0.2712
12003TIP3   OH257423   1.169   1.491   5.995  0.1324  0.4539  0.3817
12003TIP3    H157424   1.185   1.552   5.923 -1.1014  0.4241  0.0645
12003TIP3    H257425   1.191   1.540   6.074  1.3598  0.5369  0.0156
12004TIP3   OH257426   5.517   3.419   5.861 -0.1296 -0.1524  0.3082
12004TIP3    H157427   5.501   3.497   5.915  1.8266  0.8604 -0.4804
12004TIP3    H257428   5.586   3.446   5.801  1.1124 -2.7266  0.4748
12005TIP3   OH257429   6.708   0.257  13.645  0.5416  0.0244 -1.1440
12005TIP3    H157430   6.707   0.257  13.550  0.3056  0.9597 -1.1539
12005TIP3    H257431   6.801   0.254  13.668  0.5953 -3.3424 -1.3277
12006TIP3   OH257432   4.338   4.585   2.359  0.4249  0.4480 -0.0280
12006TIP3    H157433   4.432   4.597   2.372  0.1861  4.0024 -0.4720
12006TIP3    H257434   4.317   4.504   2.405  4.0399 -1.8797 -1.9777
12007TIP3   OH257435   1.230   1.485   3.096  0.0974 -0.1195  0.8090
12007TIP3    H157436   1.325   1.484   3.107  0.1393  1.8227  1.0454
12007TIP3    H257437   1.217   1.501   3.002 -0.0090 -0.9277  0.6837
12008TIP3   OH257438   3.324   4.493   2.861  0.0071 -0.0680 -0.1377
12008TIP3    H157439   3.290   4.418   2.910  1.8128 -0.5100  0.5146
12008TIP3    H257440   3.389   4.532   2.919  0.4690  0.8651 -1.2412
12009TIP3   OH257441   0.656   0.840   1.581  0.0552  0.0360 -0.1541
12009TIP3    H157442   0.568   0.858   1.615  0.3517  0.2817  0.5018
12009TIP3    H257443   0.684   0.761   1.627  0.2894  0.1162 -0.1559
12010TIP3   OH257444   4.088   5.403  13.341  0.1055  0.3944  0.1156
12010TIP3    H157445   4.162   5.451  13.303 -0.8466  2.1249  0.3650
12010TIP3    H257446   4.022   5.401  13.272  0.3517 -1.1651 -0.1136
12011TIP3   OH257447   5.887   0.845  14.742  0.4418 -0.2688  0.3347
12011TIP3    H157448   5.901   0.939  14.734 -0.4360 -0.2173 -1.1622
12011TIP3    H257449   5.964   0.812  14.788  0.9101  1.1338  0.5961
12012TIP3   OH257450   5.793   2.505   1.607  0.2597  0.0574  0.7233
12012TIP3    H157451   5.817   2.596   1.623 -1.6451  0.7475  0.0239
12012TIP3    H257452   5.708   2.510   1.563  0.2532 -2.0588  0.3633
12013TIP3   OH257453   6.550   5.923   2.684  0.2791  0.0835  0.6449
12013TIP3    H157454   6.564   5.838   2.641  0.6494 -0.3048  1.5140
12013TIP3    H257455   6.469   5.912   2.733 -0.2179  0.5728 -0.0372
12014TIP3   OH257456   0.672   2.388  12.445 -0.6573 -0.0760  0.1560
12014TIP3    H157457   0.677   2.357  12.355  1.2647 -0.5410  0.3773
12014TIP3    H257458   0.586   2.358  12.476 -0.3615 -2.0411 -0.7743
12015TIP3   OH257459   4.231   5.147  14.582 -0.0258  0.6506 -0.6184
12015TIP3    H157460   4.143   5.115  14.563  0.6451 -1.8145  0.1135
12015TIP3    H257461   4.216   5.233  14.622 -2.0153  0.7553 -1.4533
12016TIP3   OH257462   3.931   2.187  15.829 -0.5142  0.3114 -0.3203
12016TIP3    H157463   3.853   2.182  15.774  0.0757 -1.8659 -1.0659
12016TIP3    H257464   3.981   2.260  15.793 -0.9105 -0.0515 -1.6591
12017TIP3   OH257465   3.544   6.011   0.593  0.0397 -0.0842  0.4116
12017TIP3    H157466   3.540   6.064   0.672 -0.2646  0.7203 -0.1278
12017TIP3    H257467   3.629   6.033   0.554 -1.6746  3.2997 -1.9774
12018TIP3   OH257468   4.211   3.164   1.817 -0.3197  0.1307  0.4160
12018TIP3    H157469   4.231   3.217   1.895 -1.3308 -0.0537  0.8167
12018TIP3    H257470   4.119   3.182   1.800  0.6070  2.8494 -2.7901
12019TIP3   OH257471   0.481   4.759   2.741  0.0463 -0.1099  0.2274
12019TIP3    H157472   0.562   4.778   2.695  1.2988 -0.6717  2.1127
12019TIP3    H257473   0.508   4.720   2.824 -2.1928 -1.9352  0.2035
12020TIP3   OH257474   5.818   4.235   0.802 -0.4130 -0.4401  0.1817
12020TIP3    H157475   5.826   4.226   0.707 -0.5389  0.2539  0.1000
12020TIP3    H257476   5.745   4.296   0.815 -1.3397 -1.6030  0.7656
12021TIP3   OH257477   6.785   3.657  16.725 -0.6558 -0.3785 -0.0839
12021TIP3    H157478   6.785   3.596  16.799  2.3170 -1.5984 -0.9574
12021TIP3    H257479   6.703   3.639  16.680 -0.7281 -2.4142  0.7508
12022TIP3   OH257480   1.748   0.276   5.694 -0.3852 -0.0385  0.5715
12022TIP3    H157481   1.783   0.358   5.729  1.2834 -0.6963  0.5526
12022TIP3    H257482   1.731   0.223   5.772  1.4263 -0.7568  0.5363
12023TIP3   OH257483   5.067   6.753   6.063  0.0172  0.4745 -0.4497
12023TIP3    H157484   5.017   6.791   5.991 -1.4084 -0.2978  0.0880
12023TIP3    H257485   5.020   6.672   6.085 -0.0016  1.0191  1.7721
12024TIP3   OH257486   4.526   3.610   4.446  0.6417  0.2949 -0.2398
12024TIP3    H157487   4.610   3.568   4.428  1.3337  0.2978  2.5664
12024TIP3    H257488   4.463   3.560   4.395  1.8740 -2.1582  0.4814
12025TIP3   OH257489   1.271   5.471   3.260 -0.6626  0.1199 -0.0138
12025TIP3    H157490   1.205   5.432   3.317  0.9213 -1.5631  0.7436
12025TIP3    H257491   1.351   5.473   3.312 -0.0080  1.8957 -0.9885
12026TIP3   OH257492   6.692   2.279  15.333  0.0992 -0.4393  0.5756
12026TIP3    H157493   6.755   2.214  15.364  0.0188 -0.5714  0.4650
12026TIP3    H257494   6.609   2.254  15.374 -0.4783 -1.8310 -1.2956
12027TIP3   OH257495   0.909   0.866   0.545 -0.1895  0.3617  0.0491
12027TIP3    H157496   0.992   0.848   0.500 -0.6271  1.7657 -1.4379
12027TIP3    H257497   0.896   0.960   0.534 -2.6705 -0.0323 -1.0361
12028TIP3   OH257498   1.127   6.328  15.085  0.0071  0.2954  0.7379
12028TIP3    H157499   1.090   6.356  15.168  0.3235 -0.2349  1.0600
12028TIP3    H257500   1.196   6.266  15.108 -0.3518 -0.3819  0.0597
12029TIP3   OH257501   5.345   6.768  12.854 -0.0648 -0.4053 -0.0087
12029TIP3    H157502   5.277   6.836  12.856 -0.4543 -0.7761 -0.4883
12029TIP3    H257503   5.421   6.813  12.817 -0.2168 -0.1382 -0.0064
12030TIP3   OH257504   4.553   5.973   4.862 -0.0958  0.5452 -0.5782
12030TIP3    H157505   4.526   5.903   4.803  0.1723 -2.0107  2.1144
12030TIP3    H257506   4.473   5.999   4.908  0.3287 -0.4614  0.8069
12031TIP3   OH257507   3.952   1.657  15.440  0.6169 -0.4273 -0.0960
12031TIP3    H157508   3.916   1.572  15.463 -0.5167 -0.0161 -0.2858
12031TIP3    H257509   3.904   1.719  15.494  2.5201 -0.0128  1.1991
12032TIP3   OH257510   5.690   4.045  17.134 -0.7555  0.4180 -0.2898
12032TIP3    H157511   5.648   4.057  17.049  0.0543 -1.2736 -0.9859
12032TIP3    H257512   5.722   3.955  17.132  0.5898  0.8107  1.2249
12033TIP3   OH257513   3.367   6.000  10.830  0.1266  0.1707 -0.1511
12033TIP3    H157514   3.307   5.927  10.845  0.2944  0.1503  0.4637
12033TIP3    H257515   3.447   5.975  10.877  0.1335  0.8179  0.1905
12034TIP3   OH257516   5.547   6.175   2.149 -0.0537  0.3197 -0.9318
12034TIP3    H157517   5.551   6.110   2.079  0.5279 -1.8720  1.0162
12034TIP3    H257518   5.634   6.217   2.147 -0.5428  1.3313 -2.4041
12035TIP3   OH257519   6.584   3.204   4.879  0.1506 -0.5026  0.3568
12035TIP3    H157520   6.596   3.285   4.829  1.8498 -0.5464  0.6160
12035TIP3    H257521   6.546   3.232   4.962 -0.3910 -0.1296 -0.0136
12036TIP3   OH257522   1.531   0.102   5.013 -0.6104  0.4807  0.2659
12036TIP3    H157523   1.477   0.152   5.074  0.2298  0.4353  1.0723
12036TIP3    H257524   1.551   0.163   4.942  0.2811  1.2703  1.1598
12037TIP3   OH257525   0.953   0.929   3.810  0.0597 -0.0522  0.4855
12037TIP3    H157526   0.915   0.845   3.836 -2.0663  1.1572  1.4803
12037TIP3    H257527   1.047   0.918   3.826 -0.1146 -2.3190  0.2977
12038TIP3   OH257528   5.867   5.435  11.679  0.8093 -0.3420  0.0870
12038TIP3    H157529   5.959   5.414  11.695  1.0075 -0.0507 -0.5988
12038TIP3    H257530   5.823   5.417  11.762  1.6453  0.4675  0.7288
12039TIP3   OH257531   6.790   1.752  11.775 -0.8974  0.1838  0.8096
12039TIP3    H157532   6.784   1.671  11.725  2.3413  0.7048 -0.7208
12039TIP3    H257533   6.830   1.726  11.858  0.1566  0.1503  0.3130
12040TIP3   OH257534   1.545   3.285  14.904  0.0902 -0.0770 -0.3339
12040TIP3    H157535   1.583   3.197  14.906 -2.0063 -1.0347  0.2190
12040TIP3    H257536   1.454   3.271  14.876 -0.5795  1.7913  0.7297
12041TIP3   OH257537   6.011   5.374  15.794 -0.0313  0.1883 -0.4322
12041TIP3    H157538   5.934   5.336  15.752  0.7022  0.6069 -2.2524
12041TIP3    H257539   5.977   5.414  15.874 -1.3485 -1.3870 -0.1353
12042TIP3   OH257540   0.269   0.959   2.707 -0.3276 -0.2112  0.6443
12042TIP3    H157541   0.350   0.973   2.756 -0.9356  0.2916  1.5274
12042TIP3    H257542   0.255   1.042   2.661 -0.2741 -0.3411  0.3940
12043TIP3   OH257543   4.862   2.255  13.176 -0.3295 -0.3088 -0.7866
12043TIP3    H157544   4.947   2.298  13.179  0.1285 -1.1775 -0.7966
12043TIP3    H257545   4.830   2.259  13.266 -0.6274  0.6818 -0.9319
12044TIP3   OH257546   4.017   6.783  16.734 -0.5123 -0.1004 -0.3420
12044TIP3    H157547   4.064   6.732  16.801 -0.3646  0.3157 -0.1267
12044TIP3    H257548   4.035   6.874  16.756 -0.7777  0.0477 -0.7275
12045TIP3   OH257549   1.388   1.087   0.109 -0.5331 -0.2353  0.2597
12045TIP3    H157550   1.296   1.113   0.105 -0.0983  1.3948  0.2526
12045TIP3    H257551   1.435   1.167   0.132  1.1754 -0.3414 -2.3778
12046TIP3   OH257552   0.350   2.731  11.132  0.2463  0.0560  0.3196
12046TIP3    H157553   0.327   2.801  11.071  1.9789  1.1194  0.8061
12046TIP3    H257554   0.445   2.724  11.125  0.1609 -2.0286  0.5648
12047TIP3   OH257555   5.950   6.641  11.590  0.2855 -0.1432  0.0403
12047TIP3    H157556   5.885   6.711  11.592 -0.6752 -0.8424 -2.4324
12047TIP3    H257557   5.899   6.562  11.573  1.7482 -0.6378 -2.6122
12048TIP3   OH257558   3.694   5.867  14.401  0.2354 -0.0746  0.6130
12048TIP3    H157559   3.765   5.900  14.455  0.0126  0.2245  0.7229
12048TIP3    H257560   3.727   5.784  14.366 -0.4238 -1.4248  2.9682
12049TIP3   OH257561   1.935   6.024   5.380  0.4151  0.0374 -0.1545
12049TIP3    H157562   1.991   5.966   5.328  2.4671  0.2547  1.6486
12049TIP3    H257563   1.930   6.104   5.328  1.2696 -0.2291 -0.6795
12050TIP3   OH257564   5.487   5.028  13.578 -0.6193  0.5049  0.8980
12050TIP3    H157565   5.521   4.939  13.567 -1.1547 -0.1725  3.7529
12050TIP3    H257566   5.563   5.080  13.605 -0.3906  0.8338 -0.3466
12051TIP3   OH257567   0.015   5.085   2.481  0.0840  0.4149 -1.0505
12051TIP3    H157568   0.025   5.111   2.573 -0.4503  1.7787 -1.3573
12051TIP3    H257569  -0.061   5.027   2.481 -0.1173  0.6696 -0.6712
12052TIP3   OH257570   6.796   6.107  13.051 -0.1487  0.0920 -0.0446
12052TIP3    H157571   6.871   6.087  12.995  0.0582  0.4730  0.0915
12052TIP3    H257572   6.813   6.195  13.083 -0.8713  0.3612 -0.3626
12053TIP3   OH257573   2.034   1.132  10.580 -0.2018  0.0794 -0.0610
12053TIP3    H157574   2.107   1.193  10.586  0.8449 -1.0228 -0.9744
12053TIP3    H257575   2.048   1.070  10.652  0.4788 -0.8322 -0.9447
12054TIP3   OH257576   1.334   2.043  13.001  0.2504  0.1317 -0.1182
12054TIP3    H157577   1.271   2.101  13.044  1.6536  1.4495  0.2214
12054TIP3    H257578   1.390   2.101  12.951 -0.4689 -1.2554 -2.7132
12055TIP3   OH257579   3.958   0.984   1.159  0.2477  0.5594  0.4524
12055TIP3    H157580   3.873   0.948   1.183  0.4239 -0.0064  0.2292
12055TIP3    H257581   4.015   0.908   1.149  0.8532  0.9514  0.8773
12056TIP3   OH257582   1.234   6.488  13.458 -0.0557  0.6552  0.2239
12056TIP3    H157583   1.320   6.481  13.498 -0.1982  0.0807  0.4419
12056TIP3    H257584   1.215   6.582  13.457  0.4652  0.7642  0.3977
12057TIP3   OH257585   3.049   6.572  14.273  0.0968 -0.2158  0.0733
12057TIP3    H157586   3.077   6.598  14.185  0.7991  0.9195  0.5931
12057TIP3    H257587   3.031   6.655  14.318  1.5259 -0.6381  1.5448
12058TIP3   OH257588   0.920   3.096  13.254 -0.3695 -0.3109  0.2266
12058TIP3    H157589   0.976   3.111  13.178  0.4973 -0.5622  0.7937
12058TIP3    H257590   0.981   3.093  13.328 -1.2191  0.2749  0.9825
12059TIP3   OH257591   0.508   4.142  14.883 -0.5256  0.6571  0.0197
12059TIP3    H157592   0.528   4.048  14.889  1.0591  0.9172 -0.7567
12059TIP3    H257593   0.422   4.145  14.841 -1.0104 -0.4639  0.8695
12060TIP3   OH257594   0.323   4.269  11.769 -0.1829 -0.1179  0.4979
12060TIP3    H157595   0.388   4.242  11.834  0.3254  0.6457  0.3140
12060TIP3    H257596   0.344   4.360  11.749 -1.3255  0.1454  0.4366
12061TIP3   OH257597   6.539   3.126   3.747  0.0001  0.0721 -0.1036
12061TIP3    H157598   6.460   3.084   3.714 -0.7623  0.3208  1.2962
12061TIP3    H257599   6.513   3.159   3.834  1.4733  0.6698  0.1315
12062TIP3   OH257600   2.001   6.533   1.170  0.3398 -0.3004  0.9358
12062TIP3    H157601   1.986   6.611   1.117  2.4077  0.1073  0.8457
12062TIP3    H257602   1.923   6.525   1.224 -1.4073 -0.1647 -1.4191
12063TIP3   OH257603   2.818   4.306   5.460 -0.5755  0.0873  0.0088
12063TIP3    H157604   2.892   4.277   5.407 -2.4965 -1.6320 -1.8957
12063TIP3    H257605   2.814   4.243   5.532  0.1762  0.5972  0.5165
12064TIP3   OH257606   0.796   3.510   6.302 -0.2341  0.5184  0.2204
12064TIP3    H157607   0.818   3.573   6.371 -0.6685  1.1277 -0.1915
12064TIP3    H257608   0.845   3.540   6.226  2.1836 -1.5167  0.8300
12065TIP3   OH257609   5.718   0.111  16.411 -0.1539 -0.0575  0.2904
12065TIP3    H157610   5.687   0.125  16.501 -0.6390  0.6926  0.0157
12065TIP3    H257611   5.643   0.135  16.356  1.2288  3.1382 -0.4527
12066TIP3   OH257612   3.367   2.884   2.794  0.2680  0.2407 -0.4654
12066TIP3    H157613   3.335   2.796   2.773 -0.6156  0.3134  0.5086
12066TIP3    H257614   3.396   2.878   2.885 -0.9687  1.2622  0.0160
12067TIP3   OH257615   4.128   6.705   5.918  0.3773 -0.6843  0.6556
12067TIP3    H157616   4.078   6.680   5.996  0.3079 -1.6812  0.3073
12067TIP3    H257617   4.149   6.797   5.932 -1.0646 -0.3932  1.0734
12068TIP3   OH257618   3.378   4.485   3.167 -0.4763  0.5198 -0.5838
12068TIP3    H157619   3.342   4.513   3.251  0.1707  0.6438 -0.3428
12068TIP3    H257620   3.326   4.408   3.144 -0.4240  0.2618  0.1121
12069TIP3   OH257621   4.032   1.444   1.058 -0.7768 -0.5842 -0.9149
12069TIP3    H157622   3.994   1.480   0.979 -1.3749  0.2425 -0.2623
12069TIP3    H257623   4.060   1.355   1.033 -2.2996 -0.8815 -1.6427
12070TIP3   OH257624   1.782   2.913   0.920  0.6220  0.5183  0.0750
12070TIP3    H157625   1.694   2.950   0.921  0.1473 -0.5936 -0.3545
12070TIP3    H257626   1.824   2.952   0.997 -0.1076  1.3471  0.0745
12071TIP3   OH257627   6.703   4.660   0.313  0.1324  0.2116 -0.1626
12071TIP3    H157628   6.661   4.745   0.328  2.1700  1.0391  1.3894
12071TIP3    H257629   6.727   4.662   0.221 -1.2783  0.6152 -0.5447
12072TIP3   OH257630   0.516   1.076   1.792 -0.2582 -0.3315 -0.1039
12072TIP3    H157631   0.494   1.039   1.706 -0.0132  0.0486 -0.3319
12072TIP3    H257632   0.595   1.128   1.776  0.5445 -1.3053  0.6107
12073TIP3   OH257633   0.211   2.017  15.063  0.2252  0.4544 -0.1888
12073TIP3    H157634   0.128   2.062  15.047 -0.7863 -1.9540 -2.3204
12073TIP3    H257635   0.230   1.971  14.981  1.8474 -1.9314  1.4058
12074TIP3   OH257636   2.422   5.218  11.858  0.4134 -0.1887 -0.0532
12074TIP3    H157637   2.449   5.195  11.947  1.3389 -1.1588 -0.5646
12074TIP3    H257638   2.400   5.135  11.817  1.3177  0.0752 -1.1420
12075TIP3   OH257639   3.828   0.434  16.930 -0.1474  0.1200  0.0388
12075TIP3    H157640   3.755   0.482  16.968  0.2148  1.3302 -0.7020
12075TIP3    H257641   3.860   0.492  16.860  1.0365 -0.7142 -0.1413
12076TIP3   OH257642   4.888   0.625   1.273  0.2746 -0.2404 -0.0677
12076TIP3    H157643   4.982   0.638   1.261  0.1898  0.3497 -0.1508
12076TIP3    H257644   4.879   0.591   1.362  0.6163 -0.9769 -0.3084
12077TIP3   OH257645   0.630   1.207  13.409 -0.2492  0.4885  0.0667
12077TIP3    H157646   0.647   1.126  13.458 -1.3466  0.8005  1.0057
12077TIP3    H257647   0.661   1.277  13.466 -1.6219  0.8627  0.4079
12078TIP3   OH257648   3.196   2.412   3.605 -0.1057  0.2142 -0.2822
12078TIP3    H157649   3.124   2.448   3.552 -0.8792  1.4460  1.5226
12078TIP3    H257650   3.261   2.482   3.608  0.8422 -0.5903 -1.2100
12079TIP3   OH257651   4.246   0.709   1.814  0.6420 -0.6738 -0.1105
12079TIP3    H157652   4.321   0.649   1.809  0.3168 -1.0250 -0.8591
12079TIP3    H257653   4.173   0.653   1.839  0.6922 -0.2646  1.0054
12080TIP3   OH257654   2.348   6.227  12.787 -0.3721  0.4456  0.1380
12080TIP3    H157655   2.262   6.234  12.827 -0.3174  2.6613 -0.0078
12080TIP3    H257656   2.389   6.151  12.829 -3.6793 -3.1638 -2.4336
12081TIP3   OH257657   4.758   3.180   3.743 -0.8661  0.3410 -0.1937
12081TIP3    H157658   4.669   3.146   3.736 -0.1031 -1.5649 -1.6185
12081TIP3    H257659   4.749   3.262   3.791 -3.3226  0.0012  0.0491
12082TIP3   OH257660   3.767   5.537   3.388  0.1089  0.2997  0.1793
12082TIP3    H157661   3.699   5.596   3.419  0.9392  1.5556 -0.2744
12082TIP3    H257662   3.844   5.594   3.375  1.3229 -1.0991  0.9146
12083TIP3   OH257663   5.598   2.935  13.209 -0.6249 -0.8349 -0.2145
12083TIP3    H157664   5.505   2.943  13.230 -0.5930 -2.1382  0.5095
12083TIP3    H257665   5.614   3.006  13.146 -2.1630 -0.7616 -0.5660
12084TIP3   OH257666   5.068   5.663  17.159 -0.4680  0.6340  0.1298
12084TIP3    H157667   5.095   5.728  17.224 -0.6819  1.5398 -0.6697
12084TIP3    H257668   5.033   5.590  17.211  0.8275  0.6424  1.0872
12085TIP3   OH257669   1.289   2.715  13.106 -0.6999 -0.1932  0.2608
12085TIP3    H157670   1.254   2.780  13.045  0.3554 -0.8808 -1.1472
12085TIP3    H257671   1.213   2.683  13.155 -1.2750  1.8985  0.8319
12086TIP3   OH257672   4.224   6.356   3.992 -0.1859  0.0025  0.7417
12086TIP3    H157673   4.277   6.363   3.912 -1.6535 -1.3781 -0.4272
12086TIP3    H257674   4.253   6.274   4.033 -2.0000 -1.2990 -0.4378
12087TIP3   OH257675   5.389   4.016   0.844 -0.1351  0.0383 -0.2762
12087TIP3    H157676   5.381   4.099   0.890 -0.2201  0.2335 -0.6424
12087TIP3    H257677   5.420   3.954   0.911 -1.1334  0.1135  0.2632
12088TIP3   OH257678   3.055   0.790   4.892 -0.3431  0.5169 -0.2050
12088TIP3    H157679   3.099   0.719   4.939 -2.6692 -0.2009  1.0553
12088TIP3    H257680   3.110   0.867   4.910  1.7079 -0.7085 -0.8094
12089TIP3   OH257681   5.687   5.604  10.908  0.0652  0.1251 -0.0899
12089TIP3    H157682   5.696   5.529  10.850 -0.0441  0.4740 -0.5599
12089TIP3    H257683   5.626   5.662  10.864 -1.4427 -0.4056  1.2040
12090TIP3   OH257684   3.071   4.376   5.125  0.6321  0.1182 -0.1846
12090TIP3    H157685   3.136   4.367   5.055 -0.7758 -1.0409 -1.4299
12090TIP3    H257686   3.060   4.287   5.159  0.0473  0.3869  0.3463
12091TIP3   OH257687   2.600   0.241   0.264 -0.1881 -0.1204  0.1918
12091TIP3    H157688   2.548   0.321   0.279 -4.6785 -2.8621  1.0576
12091TIP3    H257689   2.613   0.238   0.170 -0.2058  1.4291  0.1077
12092TIP3   OH257690   5.044   4.907  10.947 -1.1653 -0.1280  0.4146
12092TIP3    H157691   5.001   4.988  10.918 -1.6438 -0.3728  0.4193
12092TIP3    H257692   5.098   4.880  10.873  0.7879  1.3897  1.1983
12093TIP3   OH257693   4.024   6.207  11.453 -0.0838 -0.2672 -0.8171
12093TIP3    H157694   4.110   6.187  11.416 -0.2933  1.3232 -2.3237
12093TIP3    H257695   4.043   6.237  11.542  1.0732  1.0864 -1.4743
12094TIP3   OH257696   5.031   6.327  12.443 -0.5450  0.3257  0.6120
12094TIP3    H157697   5.117   6.287  12.439 -0.8059 -0.2012  0.2607
12094TIP3    H257698   5.032   6.378  12.525 -0.4782 -1.0010  1.4596
12095TIP3   OH257699   2.555   0.811  13.025  0.2342  0.2009  0.6051
12095TIP3    H157700   2.608   0.831  13.102 -0.5417  1.2503  0.8873
12095TIP3    H257701   2.619   0.800  12.954  0.9334 -0.5314  1.3309
12096TIP3   OH257702   1.587   2.715   0.299 -0.1784 -0.0986  0.2788
12096TIP3    H157703   1.652   2.782   0.278  0.1750 -1.4216 -3.5997
12096TIP3    H257704   1.626   2.633   0.268 -2.9467 -1.2016 -0.6072
12097TIP3   OH257705   3.736   6.461   6.465 -0.3719  0.1412 -0.1925
12097TIP3    H157706   3.797   6.469   6.392  0.4970  1.7418  0.6588
12097TIP3    H257707   3.767   6.383   6.512  0.7336  0.6379 -0.0575
12098TIP3   OH257708   5.207   4.707   3.182 -0.4013  0.2530  0.1665
12098TIP3    H157709   5.138   4.648   3.214 -0.3996  0.1788  0.0342
12098TIP3    H257710   5.216   4.772   3.251  0.8175 -0.8913  1.1468
12099TIP3   OH257711   2.806   4.093  13.367  0.6334  0.1030 -0.0737
12099TIP3    H157712   2.858   4.020  13.334  1.4325 -0.3086  1.9459
12099TIP3    H257713   2.841   4.170  13.321  3.3376 -0.1045  1.3997
12100TIP3   OH257714   0.564   5.141   1.777 -0.0525 -0.3579 -0.2417
12100TIP3    H157715   0.540   5.106   1.863  0.7016  0.3265  0.2570
12100TIP3    H257716   0.551   5.235   1.785 -2.5282 -0.4713 -1.7063
12101TIP3   OH257717   6.474   3.667   6.400 -0.1672  0.1545 -0.5657
12101TIP3    H157718   6.482   3.637   6.491  2.0049 -1.7839 -1.2848
12101TIP3    H257719   6.550   3.724   6.387  0.6510 -1.1266 -1.6457
12102TIP3   OH257720   3.683   4.227  10.650  0.8472 -0.6155  0.2722
12102TIP3    H157721   3.619   4.163  10.680  0.6437 -0.1612  0.8220
12102TIP3    H257722   3.751   4.175  10.607  0.5177 -1.1689  0.4201
12103TIP3   OH257723   5.977   0.152  10.955  0.5508 -0.1736  0.3145
12103TIP3    H157724   5.990   0.247  10.962  1.8513 -0.4218  1.5908
12103TIP3    H257725   6.038   0.124  10.887  0.5485 -0.1765  0.3141
12104TIP3   OH257726   5.768   6.084  15.398 -0.0748 -0.4968 -0.2867
12104TIP3    H157727   5.841   6.119  15.349 -0.3905 -0.9507 -1.0934
12104TIP3    H257728   5.750   5.998  15.359 -1.6468  0.0081 -0.7592
12105TIP3   OH257729   6.771   0.806   2.422 -0.2666 -0.0793 -0.0379
12105TIP3    H157730   6.813   0.789   2.507  0.1467  0.1115 -0.2028
12105TIP3    H257731   6.680   0.824   2.444 -0.0855  0.3202  0.3981
12106TIP3   OH257732   0.777   3.468  15.808  0.0703 -0.2005  0.1457
12106TIP3    H157733   0.856   3.458  15.861  0.7539  0.5456 -0.6907
12106TIP3    H257734   0.706   3.438  15.864  0.8120  0.2141  1.3363
12107TIP3   OH257735   4.439   6.543   1.427  0.2249 -0.2461 -0.0533
12107TIP3    H157736   4.475   6.536   1.515  1.1898  0.0352 -0.4081
12107TIP3    H257737   4.398   6.459   1.410  0.5264 -0.4958  0.4594
12108TIP3   OH257738   3.735   3.867   1.828  0.0869 -0.2431 -0.4768
12108TIP3    H157739   3.704   3.891   1.741 -2.2490  0.1351  0.3815
12108TIP3    H257740   3.726   3.947   1.880  1.3833 -0.4778  0.1470
12109TIP3   OH257741   5.857   1.511  14.980  0.1122  0.6214  0.2049
12109TIP3    H157742   5.906   1.496  14.899  2.8257 -1.0303  2.0066
12109TIP3    H257743   5.782   1.451  14.973  0.3836  0.3880 -1.0115
12110TIP3   OH257744   2.352   5.117  12.980  0.0406 -0.1339 -0.3952
12110TIP3    H157745   2.442   5.083  12.977  0.4833  0.9589 -0.3660
12110TIP3    H257746   2.361   5.208  12.950 -1.2629 -0.3832 -1.6123
12111TIP3   OH257747   3.342   1.536   1.278  0.0509  0.3419  0.4824
12111TIP3    H157748   3.326   1.493   1.193  2.1064 -0.3575  0.3954
12111TIP3    H257749   3.287   1.487   1.339 -0.0893 -0.3353 -0.1560
12112TIP3   OH257750   0.014   5.874  11.404 -0.1891  0.5589  0.5007
12112TIP3    H157751  -0.052   5.923  11.355 -2.5190 -1.0439  1.8612
12112TIP3    H257752   0.037   5.801  11.346  1.0453  1.5445 -0.2967
12113TIP3   OH257753   3.996   2.677   3.091  0.6498  0.1821 -0.7975
12113TIP3    H157754   3.983   2.770   3.073  0.2681  0.1267 -0.8210
12113TIP3    H257755   4.056   2.675   3.166  0.7113  0.4457 -0.8395
12114TIP3   OH257756   6.425   5.086  13.122  0.0601  0.3235 -0.3608
12114TIP3    H157757   6.520   5.085  13.136  0.0838  2.8118  0.2133
12114TIP3    H257758   6.388   5.075  13.210 -0.0694  2.2955 -0.1234
12115TIP3   OH257759   0.307   3.724  14.125  0.4528  0.1872 -0.3865
12115TIP3    H157760   0.356   3.792  14.171 -0.7006  0.4758  0.4560
12115TIP3    H257761   0.354   3.712  14.042  3.3979 -1.2697  1.3229
12116TIP3   OH257762   1.878   1.250   1.589  0.1990 -0.0672  0.1875
12116TIP3    H157763   1.920   1.308   1.653 -0.3154  0.0748  0.3976
12116TIP3    H257764   1.950   1.222   1.532  0.2044  2.0462 -0.9303
12117TIP3   OH257765   4.432   4.810   3.145 -0.0508 -0.1137  0.2462
12117TIP3    H157766   4.465   4.883   3.092  1.0436 -0.5083  0.3715
12117TIP3    H257767   4.508   4.756   3.162 -0.6514 -0.7199  1.0865
12118TIP3   OH257768   1.900   6.234   2.840  0.0192  0.1264 -0.1761
12118TIP3    H157769   1.954   6.171   2.887 -0.5650  1.7455  2.9289
12118TIP3    H257770   1.961   6.280   2.782  0.8152 -1.8298 -0.9793
12119TIP3   OH257771   5.226   0.893   1.662 -0.2072 -0.3955 -0.0836
12119TIP3    H157772   5.317   0.923   1.664 -0.1437 -0.6377  1.3410
12119TIP3    H257773   5.232   0.797   1.664 -0.4895 -0.4514 -1.0802
12120TIP3   OH257774   6.378   6.519   3.931 -0.3445  0.7690  0.5397
12120TIP3    H157775   6.375   6.507   4.026 -0.3958 -0.8679  0.3561
12120TIP3    H257776   6.289   6.544   3.907 -1.5490 -2.9626  0.4817
12121TIP3   OH257777   3.573   2.297   0.885 -0.4130 -0.0689  0.5452
12121TIP3    H157778   3.494   2.251   0.856 -0.4338 -0.1325  0.7021
12121TIP3    H257779   3.636   2.284   0.814 -0.7122  0.4204  0.1830
12122TIP3   OH257780   1.958   6.583   5.188 -0.6683  0.4472 -0.1372
12122TIP3    H157781   1.895   6.650   5.160 -2.1311 -0.5994  0.5122
12122TIP3    H257782   1.982   6.538   5.108 -0.3969  1.1453 -0.4541
12123TIP3   OH257783   4.843   0.731   5.780  0.3889  0.1132 -0.2995
12123TIP3    H157784   4.890   0.704   5.702  0.7121  1.2135 -0.5055
12123TIP3    H257785   4.872   0.821   5.797 -1.7334  0.9297 -0.5553
12124TIP3   OH257786   5.030   2.612  13.726 -0.0202 -0.9521 -0.0910
12124TIP3    H157787   5.005   2.661  13.647  0.2899 -0.2161  0.2528
12124TIP3    H257788   5.076   2.535  13.693 -1.5109 -1.6221 -0.6818
12125TIP3   OH257789   3.557   2.707   4.217  0.5595  0.3061 -0.4448
12125TIP3    H157790   3.559   2.635   4.153 -0.6710  1.3224 -1.6856
12125TIP3    H257791   3.646   2.742   4.216  1.0908 -0.9931 -0.0569
12126TIP3   OH257792   3.546   0.013  16.146 -0.2871  0.5457  0.2372
12126TIP3    H157793   3.607   0.001  16.220  0.4143  1.5193 -0.1520
12126TIP3    H257794   3.518   0.104  16.154  1.6248  1.4233 -2.0032
12127TIP3   OH257795   1.424   2.682   5.667 -0.1128  0.4326 -0.1601
12127TIP3    H157796   1.372   2.762   5.676 -0.6935  0.0620 -0.1250
12127TIP3    H257797   1.503   2.709   5.620 -0.7456  0.8438 -1.0150
12128TIP3   OH257798   4.787   1.077   5.058  0.3936 -0.4041  0.5051
12128TIP3    H157799   4.873   1.041   5.079  0.5707 -0.3164 -0.0570
12128TIP3    H257800   4.776   1.150   5.120  0.9579 -0.0733  0.2276
12129TIP3   OH257801   4.573   5.044   5.523  0.6766 -0.3980 -0.7055
12129TIP3    H157802   4.573   5.022   5.616 -0.9572 -1.3669 -0.9000
12129TIP3    H257803   4.641   5.111   5.515 -0.6296  1.3812  1.6042
12130TIP3   OH257804   5.918   3.792   0.255 -0.0550  0.2263 -0.3969
12130TIP3    H157805   5.864   3.849   0.310  0.7664  0.3372  0.3126
12130TIP3    H257806   5.895   3.817   0.165 -1.4925 -0.0323 -0.1327
12131TIP3   OH257807   4.133   4.670   6.192 -0.0689  0.8360 -0.0751
12131TIP3    H157808   4.173   4.702   6.273  0.6945  0.0787 -0.1395
12131TIP3    H257809   4.043   4.650   6.217  0.3565 -0.1080  0.7991
12132TIP3   OH257810   2.924   0.709  12.968 -0.3217 -0.2663  0.0995
12132TIP3    H157811   2.877   0.638  12.923 -2.4346  1.1435 -0.1106
12132TIP3    H257812   2.879   0.789  12.938  1.3454  1.0959  1.0567
12133TIP3   OH257813   1.016   6.780   5.093  0.3529 -0.1634  0.3549
12133TIP3    H157814   0.983   6.693   5.070  0.5266 -0.2186  0.3133
12133TIP3    H257815   0.944   6.839   5.071 -0.1461 -0.3898  1.3040
12134TIP3   OH257816   2.834   3.030   1.952 -0.3936  0.0385 -0.5328
12134TIP3    H157817   2.913   2.990   1.990 -0.2142  0.4758 -0.4453
12134TIP3    H257818   2.763   2.998   2.007 -0.3088 -0.5497 -0.7552
12135TIP3   OH257819   6.019   2.319   5.572 -0.1663  0.1521  0.3358
12135TIP3    H157820   6.051   2.260   5.503  0.3768 -0.7475  1.3286
12135TIP3    H257821   5.973   2.262   5.634  1.4828  0.5122  1.9918
12136TIP3   OH257822   1.247   0.543   4.205 -0.1244  0.4456  0.0900
12136TIP3    H157823   1.334   0.549   4.242  0.0568  0.3638 -0.3162
12136TIP3    H257824   1.204   0.625   4.230  0.1086  0.5366  0.1918
12137TIP3   OH257825   2.034   5.278  15.947  0.2249 -0.1630 -0.1779
12137TIP3    H157826   2.113   5.333  15.945  0.7487 -0.6614  2.3983
12137TIP3    H257827   2.024   5.256  16.040 -2.9977 -0.0876 -0.4053
12138TIP3   OH257828   3.368   0.170  15.454  0.3139 -0.3240  0.4230
12138TIP3    H157829   3.336   0.208  15.535  1.2646  0.9184  0.2551
12138TIP3    H257830   3.458   0.202  15.447  0.5231 -1.0985 -0.6951
12139TIP3   OH257831   0.017   2.659  10.942 -0.4979  0.0992  0.3837
12139TIP3    H157832   0.012   2.716  10.866  0.6211  0.3431  0.4863
12139TIP3    H257833  -0.028   2.579  10.914 -0.9309  0.5315 -0.1989
12140TIP3   OH257834   5.744   2.515  14.985 -0.2776 -0.5258  0.4705
12140TIP3    H157835   5.685   2.445  15.014 -0.6014 -0.6877 -0.5425
12140TIP3    H257836   5.695   2.595  15.000 -1.2332 -0.7084 -1.3263
12141TIP3   OH257837   3.674   6.156   1.759 -0.6865  0.7483  0.0021
12141TIP3    H157838   3.715   6.187   1.678 -1.1796 -0.1986 -0.6273
12141TIP3    H257839   3.730   6.083   1.787 -1.2330  0.2563 -0.1819
12142TIP3   OH257840   6.423   4.268  13.273  0.0341  0.3377 -0.2531
12142TIP3    H157841   6.468   4.231  13.197  0.0903 -1.5629  0.6385
12142TIP3    H257842   6.488   4.264  13.343 -0.7090 -0.0840  0.4296
12143TIP3   OH257843   3.788   5.967   0.457 -0.2219 -0.6079  0.0487
12143TIP3    H157844   3.881   5.945   0.447 -0.3349 -1.9265  1.4990
12143TIP3    H257845   3.786   6.062   0.453  0.8661 -0.6083 -2.2844
12144TIP3   OH257846   3.823   5.446   4.364 -0.0506  0.3349  0.5756
12144TIP3    H157847   3.902   5.406   4.402 -0.3909 -0.5935  0.3488
12144TIP3    H257848   3.811   5.527   4.413  0.5764  0.0719  1.1863
12145TIP3   OH257849   6.296   3.121  15.281  0.2665  0.0495  0.1368
12145TIP3    H157850   6.288   3.127  15.376  1.0039  1.8386  0.1233
12145TIP3    H257851   6.358   3.191  15.258  1.0973 -1.1688 -1.5269
12146TIP3   OH257852   2.240   1.969   5.405 -0.0977  0.1577 -0.0997
12146TIP3    H157853   2.218   2.051   5.362  1.1463  0.2019 -0.6887
12146TIP3    H257854   2.172   1.958   5.471 -1.5865  0.5166 -1.4932
12147TIP3   OH257855   4.981   3.305   1.188 -0.7889 -0.3043  0.2880
12147TIP3    H157856   4.898   3.341   1.220  0.5324  0.9492  2.5371
12147TIP3    H257857   4.982   3.215   1.223 -0.9919 -0.1537  0.6940
12148TIP3   OH257858   4.461   6.457   3.338 -0.2624  0.5465  0.0361
12148TIP3    H157859   4.471   6.362   3.334  1.4090  0.6914  0.0746
12148TIP3    H257860   4.539   6.487   3.385 -0.9016  1.9172  0.2612
12149TIP3   OH257861   6.147   4.547  16.449 -0.5299 -0.1315 -0.4666
12149TIP3    H157862   6.182   4.482  16.510  0.7726  0.9195 -0.0422
12149TIP3    H257863   6.070   4.505  16.410 -1.6153 -0.7436  2.1186
12150TIP3   OH257864   0.988   1.538  16.935 -0.4404 -0.1250 -0.0513
12150TIP3    H157865   1.046   1.569  16.865  1.1827  0.0518  1.2873
12150TIP3    H257866   0.965   1.449  16.910 -0.0798  0.0167 -0.9226
12151TIP3   OH257867   2.967   6.659   1.882  0.0133  0.0735 -0.5398
12151TIP3    H157868   3.009   6.740   1.912 -3.2747  1.6241  0.3294
12151TIP3    H257869   2.939   6.616   1.963  0.1824 -1.0652 -1.0693
12152TIP3   OH257870   2.279   0.924   6.827 -0.2914 -0.4899 -0.0406
12152TIP3    H157871   2.184   0.922   6.809 -0.5714 -0.3299  1.3239
12152TIP3    H257872   2.304   0.832   6.831 -0.4932 -0.5420  0.0741
12153TIP3   OH257873   4.888   0.737  15.954  0.4548  0.3946 -0.4731
12153TIP3    H157874   4.859   0.802  16.017  2.9727  1.4398 -0.2652
12153TIP3    H257875   4.809   0.712  15.906 -0.9173  2.0913  0.8027
12154TIP3   OH257876   1.811   5.487   2.052 -0.1412  0.1813 -0.6567
12154TIP3    H157877   1.889   5.540   2.036  0.9806 -1.4288 -0.8698
12154TIP3    H257878   1.742   5.530   2.003 -0.4923  3.9308  2.5874
12155TIP3   OH257879   1.638   2.577  14.439  0.2866 -0.2420  0.3104
12155TIP3    H157880   1.590   2.522  14.377 -0.1543  1.7157 -1.1765
12155TIP3    H257881   1.729   2.569  14.412  0.2286 -0.2641  0.1199
12156TIP3   OH257882   1.402   6.420  16.281  0.0612 -0.1391  0.2307
12156TIP3    H157883   1.330   6.467  16.239 -0.7770 -1.2833  0.3122
12156TIP3    H257884   1.397   6.447  16.373 -0.5459 -0.5152  0.3184
12157TIP3   OH257885   4.516   1.953  13.207 -0.1237 -0.1727  0.1852
12157TIP3    H157886   4.478   2.004  13.279 -1.4575 -1.5909  0.5259
12157TIP3    H257887   4.505   2.008  13.130 -2.3291 -0.2563  0.3922
12158TIP3   OH257888   3.476   2.947  12.963  0.7976 -0.0225 -0.0251
12158TIP3    H157889   3.538   2.876  12.978  1.2422  0.4076  0.2161
12158TIP3    H257890   3.403   2.906  12.917  1.1588 -0.5819 -0.1106
12159TIP3   OH257891   0.177   2.321  15.505  0.1052  0.2990  0.0480
12159TIP3    H157892   0.093   2.276  15.502 -1.7307  3.2678  1.8618
12159TIP3    H257893   0.226   2.275  15.573 -1.5165  0.6676  1.5223
12160TIP3   OH257894   2.442   4.956   4.703  0.5616 -0.3881  0.7183
12160TIP3    H157895   2.495   4.926   4.629  0.4424 -1.0453  0.8925
12160TIP3    H257896   2.503   4.956   4.777  1.4305  2.8600  0.1598
12161TIP3   OH257897   6.374   5.811   4.340  0.0418  0.1447 -0.3290
12161TIP3    H157898   6.343   5.801   4.250  0.9736 -1.9362 -0.4670
12161TIP3    H257899   6.393   5.905   4.348 -1.2877  0.5968 -1.8521
12162TIP3   OH257900   1.692   6.058   2.869  0.3043  0.1178 -0.2410
12162TIP3    H157901   1.698   6.153   2.860  1.6603 -0.1011 -2.3576
12162TIP3    H257902   1.781   6.026   2.851  0.0653 -1.5208  1.2215
12163TIP3   OH257903   3.011   1.896  13.418  0.1694 -0.2316  0.6532
12163TIP3    H157904   2.926   1.884  13.376 -0.0488  1.3365  0.5984
12163TIP3    H257905   3.036   1.986  13.397  1.9063 -0.6943  0.5747
12164TIP3   OH257906   6.750   0.348  16.452 -0.0397  0.2322 -0.2268
12164TIP3    H157907   6.787   0.260  16.452 -1.5871 -0.4626 -0.9491
12164TIP3    H257908   6.812   0.400  16.503  0.4306 -1.4783  1.0555
12165TIP3   OH257909   4.171   5.132  11.659  0.2489  0.1512 -0.8878
12165TIP3    H157910   4.167   5.226  11.678  1.0192 -0.1252  0.8907
12165TIP3    H257911   4.210   5.126  11.572  1.8091  1.4765 -0.3393
12166TIP3   OH257912   0.063   3.933   1.811 -0.2747  0.1367 -0.3333
12166TIP3    H157913   0.100   3.871   1.873  1.4983  2.1328  0.7079
12166TIP3    H257914   0.072   4.019   1.853 -0.3095  1.4206 -2.7526
12167TIP3   OH257915   3.314   1.315   2.533 -0.0106 -0.1403  0.1370
12167TIP3    H157916   3.337   1.225   2.558 -2.5267 -1.0080 -0.3512
12167TIP3    H257917   3.318   1.315   2.438  0.3835  0.4126  0.1515
12168TIP3   OH257918   0.917   6.505  15.032 -0.2111  0.6684  0.3781
12168TIP3    H157919   0.994   6.449  15.024 -0.5909  0.3963 -2.1664
12168TIP3    H257920   0.867   6.466  15.104  2.1782  1.1609  2.4516
12169TIP3   OH257921   5.532   1.164  13.490  0.2787  0.3501 -0.2494
12169TIP3    H157922   5.628   1.159  13.494  0.3956  1.4893 -1.1780
12169TIP3    H257923   5.514   1.254  13.466 -1.0948  0.4597  1.0418
12170TIP3   OH257924   5.589   4.431  11.877 -0.5206 -0.6678  0.0157
12170TIP3    H157925   5.659   4.495  11.865 -0.6772 -0.5566 -0.2918
12170TIP3    H257926   5.539   4.464  11.952 -2.4923  1.2925 -1.9803
12171TIP3   OH257927   4.104   5.131  13.349 -0.1525  0.1643  0.1235
12171TIP3    H157928   4.050   5.095  13.420  0.6081  1.0647  1.1940
12171TIP3    H257929   4.106   5.225  13.366  1.8741  0.1506  0.2299
12172TIP3   OH257930   3.503   6.733  12.295  0.2189 -0.5254  0.0662
12172TIP3    H157931   3.481   6.695  12.210 -2.9073  0.3654  0.3596
12172TIP3    H257932   3.448   6.687  12.358 -0.0439  1.1143  1.1184
12173TIP3   OH257933   3.623   1.975   3.002  0.1155  0.1934 -0.6791
12173TIP3    H157934   3.528   1.963   2.999  0.2851 -1.2964 -1.4190
12173TIP3    H257935   3.641   2.037   2.932 -0.4172  1.5638  0.3557
12174TIP3   OH257936   1.634   0.969  16.740 -0.2914 -1.0293 -0.3664
12174TIP3    H157937   1.708   0.999  16.687 -1.2664  2.6679  0.0535
12174TIP3    H257938   1.671   0.957  16.827 -0.2593  2.0513  0.1500
12175TIP3   OH257939   4.149   0.607   5.917 -0.0916  0.6745 -0.5478
12175TIP3    H157940   4.163   0.685   5.863  0.9049  1.6994  1.0920
12175TIP3    H257941   4.216   0.546   5.888  0.4641  1.2277 -0.4469
12176TIP3   OH257942   0.140   3.491  16.572  0.4659  0.2084 -0.3948
12176TIP3    H157943   0.204   3.562  16.578 -0.5324  1.0155  2.9534
12176TIP3    H257944   0.059   3.528  16.608 -0.9073 -1.8115 -1.2038
12177TIP3   OH257945   0.846   0.865  12.604 -0.0888 -0.0855  0.4946
12177TIP3    H157946   0.868   0.800  12.537 -3.5765 -2.7333  1.6563
12177TIP3    H257947   0.896   0.943  12.578  1.5297 -2.0520 -3.0662
12178TIP3   OH257948   5.091   0.976  11.259 -0.1404 -0.3416 -0.5555
12178TIP3    H157949   5.004   0.967  11.221  0.8313 -1.2617 -2.7404
12178TIP3    H257950   5.151   0.962  11.185  1.8726 -0.8683  1.0853
12179TIP3   OH257951   6.581   1.951   4.852 -0.6071 -0.3839 -0.2515
12179TIP3    H157952   6.632   1.978   4.776  1.7512 -2.2905  0.5231
12179TIP3    H257953   6.556   2.032   4.896 -0.2235  0.6636 -1.9007
12180TIP3   OH257954   4.947   1.915  16.569  0.2637  0.8080  0.0501
12180TIP3    H157955   4.960   1.823  16.545  0.8309  0.7356  0.6296
12180TIP3    H257956   4.859   1.935  16.538 -0.2540 -0.2191  0.8134
12181TIP3   OH257957   6.073   2.273  15.141  0.1759  0.1906 -0.0962
12181TIP3    H157958   6.061   2.199  15.201 -0.1650  0.1968 -0.1570
12181TIP3    H257959   6.160   2.260  15.104  0.4038  0.2004  0.4219
12182TIP3   OH257960   4.299   1.978   2.960  0.6893  0.4304  0.5297
12182TIP3    H157961   4.308   2.072   2.946 -1.5442  0.7107  0.7254
12182TIP3    H257962   4.283   1.969   3.054 -1.9109  0.1751  0.1336
12183TIP3   OH257963   4.383   6.394  16.099 -0.0213 -0.2472 -0.0984
12183TIP3    H157964   4.373   6.472  16.044  1.9908 -0.2837 -0.5929
12183TIP3    H257965   4.446   6.420  16.166  0.0922 -1.2280  0.1835
12184TIP3   OH257966   6.057   3.809   0.923 -0.3651  0.2561  0.5280
12184TIP3    H157967   6.047   3.716   0.902  3.5290 -0.5964  1.6095
12184TIP3    H257968   5.989   3.827   0.988 -1.0061 -1.8971  0.5282
12185TIP3   OH257969   4.501   1.046  12.300 -0.5177 -0.3032 -0.0457
12185TIP3    H157970   4.522   0.972  12.357  0.8563  1.6940  2.2294
12185TIP3    H257971   4.579   1.058  12.246  0.4560  1.1437  1.5881
12186TIP3   OH257972   2.138   2.386  13.891 -0.5505 -0.3522 -0.3308
12186TIP3    H157973   2.223   2.419  13.863 -0.5319 -1.0900 -1.1704
12186TIP3    H257974   2.075   2.434  13.837 -0.5813 -0.8564 -0.7522
12187TIP3   OH257975   4.328   2.209  15.417 -0.2815  0.1960 -0.0013
12187TIP3    H157976   4.377   2.178  15.342 -1.8016 -0.6640 -0.6880
12187TIP3    H257977   4.240   2.227  15.383 -1.3967 -1.4676  1.7517
12188TIP3   OH257978   6.550   1.947  11.540  0.0250 -0.3749  0.2664
12188TIP3    H157979   6.624   1.977  11.487 -0.0171 -0.0594  0.3802
12188TIP3    H257980   6.484   1.922  11.476 -0.4143  0.9765  0.1482
12189TIP3   OH257981   1.131   5.110  14.878  0.2407  0.4741  0.6151
12189TIP3    H157982   1.064   5.109  14.947 -0.8938  2.9820 -0.3504
12189TIP3    H257983   1.083   5.127  14.797  1.7179 -0.9351 -0.6507
12190TIP3   OH257984   0.276   3.851   1.979 -0.1546  0.9574  0.1902
12190TIP3    H157985   0.311   3.917   1.919 -0.2350  1.0199  0.2134
12190TIP3    H257986   0.332   3.775   1.964 -1.4089  0.2868 -1.4258
12191TIP3   OH257987   1.370   2.839  16.015 -0.1644  0.0714 -0.7752
12191TIP3    H157988   1.464   2.854  16.018  0.0782 -1.4182  1.2976
12191TIP3    H257989   1.361   2.745  15.999 -1.3059  0.2150 -1.0590
12192TIP3   OH257990   4.222   4.111   0.462  0.0539  0.5011 -0.2474
12192TIP3    H157991   4.305   4.078   0.426  0.5614  1.2159  0.2344
12192TIP3    H257992   4.194   4.043   0.523  0.3277  0.2872 -0.3598
12193TIP3   OH257993   1.627   4.774   4.144 -0.1053 -0.3518  0.2733
12193TIP3    H157994   1.723   4.777   4.147 -0.0880  0.9296 -0.7483
12193TIP3    H257995   1.607   4.758   4.052 -0.8596  3.4274 -0.3789
12194TIP3   OH257996   6.059   2.502  14.469 -0.2624 -0.4468  0.4487
12194TIP3    H157997   6.107   2.543  14.397  0.9906 -1.0607  0.9022
12194TIP3    H257998   5.968   2.500  14.439  0.4704 -2.5403 -2.0558
12195TIP3   OH257999   5.151   3.851   3.206 -0.0995 -0.6233  0.3238
12195TIP3    H158000   5.220   3.794   3.240 -0.4508  0.3979  2.9515
12195TIP3    H258001   5.188   3.939   3.209 -1.1584 -0.1845  0.7692
12196TIP3   OH258002   6.264   4.384   0.071  0.1256  0.1620 -0.2772
12196TIP3    H158003   6.273   4.290   0.054 -1.2605 -0.4021  1.7610
12196TIP3    H258004   6.255   4.390   0.166  0.4992  2.4101 -0.3345
12197TIP3   OH258005   0.045   2.579  16.554  0.2281 -0.8276  0.3720
12197TIP3    H158006   0.135   2.592  16.584  0.0370 -0.5571  0.8241
12197TIP3    H258007   0.041   2.486  16.532  0.3819 -1.0148  1.1250
12198TIP3   OH258008   5.766   6.334  16.773 -0.4549  0.1622 -0.2531
12198TIP3    H158009   5.719   6.382  16.841  0.3939  1.1057 -0.3217
12198TIP3    H258010   5.804   6.259  16.819 -0.9399  0.1010  0.0552
12199TIP3   OH258011   1.837   4.136  13.654  0.0693  0.2624 -0.5160
12199TIP3    H158012   1.776   4.210  13.656 -2.6838 -1.7675 -1.6433
12199TIP3    H258013   1.880   4.142  13.568  1.8888  1.9362  0.4472
12200TIP3   OH258014   5.527   4.224  12.554 -0.0397 -0.0785 -0.3272
12200TIP3    H158015   5.494   4.286  12.489  2.2326  0.2302 -1.2881
12200TIP3    H258016   5.559   4.279  12.626 -0.9578 -0.3343  0.2942
12201TIP3   OH258017   6.025   0.057   3.149  0.3462 -0.0757  0.6963
12201TIP3    H158018   6.067   0.141   3.136 -1.3536  0.5500 -1.2333
12201TIP3    H258019   5.957   0.073   3.215  0.3478 -0.0605  0.6937
12202TIP3   OH258020   4.200   6.177   4.537 -0.4064 -0.1665  0.2422
12202TIP3    H158021   4.150   6.190   4.617 -1.0373  1.6975 -0.3925
12202TIP3    H258022   4.239   6.263   4.519 -1.1090 -0.2493 -1.9635
12203TIP3   OH258023   1.276   4.799   3.009 -0.5356  0.0182  0.0575
12203TIP3    H158024   1.258   4.729   2.946 -0.5940 -0.6628  0.8062
12203TIP3    H258025   1.190   4.827   3.040 -0.4690 -0.7227  0.9590
12204TIP3   OH258026   5.332   6.142  11.549 -0.6351 -0.7099 -0.5326
12204TIP3    H158027   5.319   6.047  11.551 -3.0377 -0.4315  1.9735
12204TIP3    H258028   5.263   6.178  11.603 -1.2567  2.7202 -3.2014
12205TIP3   OH258029   6.714   0.640  15.229 -0.0545  0.3545  0.3678
12205TIP3    H158030   6.716   0.671  15.320 -1.3328  0.4076  0.3973
12205TIP3    H258031   6.806   0.632  15.204  0.3556 -1.2914  2.2000
12206TIP3   OH258032   3.850   3.330  13.281 -0.5297 -0.0705  0.3179
12206TIP3    H158033   3.756   3.341  13.287 -0.4361  0.5146  0.7974
12206TIP3    H258034   3.879   3.403  13.226 -0.3588 -0.2603  0.1541
12207TIP3   OH258035   0.710   0.064  11.184 -0.1137  0.1181  0.1988
12207TIP3    H158036   0.638   0.025  11.234 -1.8470  0.6514 -1.7442
12207TIP3    H258037   0.761  -0.011  11.153 -0.3328 -0.3198  0.8771
12208TIP3   OH258038   5.518   3.149  15.100 -0.0904 -0.0557 -0.0161
12208TIP3    H158039   5.437   3.099  15.089  0.5026 -0.8956 -0.7290
12208TIP3    H258040   5.560   3.147  15.014  0.1581  1.3366  0.0501
12209TIP3   OH258041   5.840   0.076   2.170 -0.3731  0.3649  0.3697
12209TIP3    H158042   5.895   0.018   2.222  0.7696  0.8667 -0.2250
12209TIP3    H258043   5.826   0.152   2.225  1.5502  1.2730 -0.2999
12210TIP3   OH258044   0.816   6.090  15.370  0.4349 -0.5762  0.2470
12210TIP3    H158045   0.870   6.114  15.445  1.2131 -1.6022  0.0446
12210TIP3    H258046   0.784   6.173  15.335 -2.4317 -0.1142  3.4317
12211TIP3   OH258047   0.398   2.010  13.566 -0.0634 -0.1728  0.7831
12211TIP3    H158048   0.466   2.015  13.499  0.2536  1.2646  1.1649
12211TIP3    H258049   0.352   2.094  13.559 -1.4391 -0.8894  0.9110
12212TIP3   OH258050   3.707   1.280   5.322 -0.4829  0.0837 -0.1910
12212TIP3    H158051   3.706   1.349   5.389  1.6843  1.3711 -1.3668
12212TIP3    H258052   3.664   1.320   5.246  1.6452  0.6234 -1.2054
12213TIP3   OH258053   0.705   3.307  14.978  0.0703  0.4950  0.0316
12213TIP3    H158054   0.654   3.305  14.897  0.7476 -0.9703 -0.4000
12213TIP3    H258055   0.779   3.364  14.958 -0.9005  1.9281  0.3759
12214TIP3   OH258056   4.470   4.726   6.140 -0.2364 -0.1134  0.1864
12214TIP3    H158057   4.505   4.788   6.204 -0.0435  0.0561 -0.0829
12214TIP3    H258058   4.525   4.648   6.150 -0.6356 -0.3393  0.6985
12215TIP3   OH258059   5.226   1.278   6.464  0.3720  0.1113 -0.7243
12215TIP3    H158060   5.290   1.213   6.434  0.5931 -0.1530  0.2785
12215TIP3    H258061   5.186   1.311   6.384  1.8184  0.3376 -1.3902
12216TIP3   OH258062   0.126   0.586   4.026  0.2989 -0.1109  0.3499
12216TIP3    H158063   0.124   0.529   3.949  1.6439  0.6081 -0.2491
12216TIP3    H258064   0.138   0.527   4.100 -2.9467 -1.0308  0.3139
12217TIP3   OH258065   4.497   0.571  14.833  0.3428  0.2806  0.1040
12217TIP3    H158066   4.514   0.591  14.741  0.7652 -2.3660 -0.5007
12217TIP3    H258067   4.574   0.523  14.862  0.2221  1.0731  1.8763
12218TIP3   OH258068   0.847   2.382   1.608  0.0991 -0.0369 -0.1082
12218TIP3    H158069   0.806   2.342   1.685 -1.7282  1.7636 -0.0276
12218TIP3    H258070   0.822   2.326   1.535 -1.6273  0.3827  0.1149
12219TIP3   OH258071   0.497   0.532  15.803 -0.2348  0.3078  0.6895
12219TIP3    H158072   0.568   0.587  15.835 -0.5168  1.2494 -0.2296
12219TIP3    H258073   0.537   0.480  15.733 -0.5329  1.2028 -0.1759
12220TIP3   OH258074   1.614   5.002   4.332  0.5664 -0.4479 -0.0325
12220TIP3    H158075   1.611   4.964   4.419 -1.5509 -0.1588  0.0777
12220TIP3    H258076   1.622   4.927   4.273 -2.6177 -1.1215  0.2271
12221TIP3   OH258077   5.741   6.212  17.205 -0.0029  0.2896 -0.9240
12221TIP3    H158078   5.812   6.190  17.144  0.3948 -0.3089 -0.2456
12221TIP3    H258079   5.677   6.142  17.194  0.4881 -0.3212 -0.0020
12222TIP3   OH258080   4.542   3.224  14.137  0.6835 -0.1965  0.3205
12222TIP3    H158081   4.568   3.168  14.063  1.2107 -1.5871  1.5050
12222TIP3    H258082   4.446   3.221  14.136  0.5569  1.9531 -1.8463
12223TIP3   OH258083   4.917   3.641   1.319  0.3205 -0.0444  0.2716
12223TIP3    H158084   4.863   3.718   1.306  0.9303  0.3645  0.0870
12223TIP3    H258085   5.005   3.676   1.333  0.7449 -0.7186 -0.5669
12224TIP3   OH258086   6.773   1.044   3.086 -0.0832  0.0394 -0.0672
12224TIP3    H158087   6.785   0.964   3.034 -1.7391 -0.1534 -0.2106
12224TIP3    H258088   6.789   1.115   3.024 -0.5493 -0.1957 -0.4724
12225TIP3   OH258089   6.249   4.191   5.076  0.0570 -0.0535 -0.6270
12225TIP3    H158090   6.319   4.226   5.021 -0.1849  1.3836 -0.0899
12225TIP3    H258091   6.171   4.195   5.020  0.0854  0.0294 -0.6616
12226TIP3   OH258092   0.800   6.282  12.472 -0.0194  0.3031 -0.2501
12226TIP3    H158093   0.841   6.196  12.465 -1.8850 -0.5797 -1.2146
12226TIP3    H258094   0.786   6.309  12.381 -1.7447  0.4083  0.0098
12227TIP3   OH258095   3.891   4.444   4.983  0.3518  0.3032 -0.3851
12227TIP3    H158096   3.983   4.441   5.005  1.0849  0.0640 -3.0527
12227TIP3    H258097   3.864   4.534   5.003  0.9931  0.2329  0.8771
12228TIP3   OH258098   5.692   6.321   3.538 -0.0259 -0.0443 -0.6189
12228TIP3    H158099   5.752   6.252   3.566  0.3344  0.4116 -0.2567
12228TIP3    H258100   5.658   6.291   3.454 -0.1860 -0.8543 -0.2648
12229TIP3   OH258101   1.781   1.846  12.206  0.7050  0.2232  0.2969
12229TIP3    H158102   1.694   1.827  12.173  0.4860  2.0078 -0.2721
12229TIP3    H258103   1.840   1.798  12.148  0.2378  1.9064 -1.7136
12230TIP3   OH258104   0.725   4.442   1.026  0.0332 -0.6076 -0.4989
12230TIP3    H158105   0.806   4.491   1.010 -0.3036 -0.2306 -1.0680
12230TIP3    H258106   0.698   4.470   1.114 -0.8905  1.3110 -1.3349
12231TIP3   OH258107   2.965   5.214   3.384 -0.2808 -0.2855 -0.1073
12231TIP3    H158108   3.037   5.275   3.398  0.0718 -0.3469 -1.5851
12231TIP3    H258109   3.006   5.133   3.356 -0.9007 -0.3918 -0.7442
12232TIP3   OH258110   4.174   1.282   5.091 -0.1028 -0.2073 -0.4549
12232TIP3    H158111   4.269   1.278   5.099 -0.1467 -0.4200  0.0048
12232TIP3    H258112   4.143   1.200   5.131 -0.4913 -0.0312 -0.3899
12233TIP3   OH258113   3.315   2.655  15.764 -0.0099  0.2938 -0.1829
12233TIP3    H158114   3.390   2.711  15.783 -0.6284  0.8387  0.7794
12233TIP3    H258115   3.337   2.571  15.805  1.5368 -0.7096 -2.8229
12234TIP3   OH258116   4.624   1.569  11.891 -0.6390 -0.1323 -0.7167
12234TIP3    H158117   4.669   1.513  11.956  0.8574  1.0271 -0.6930
12234TIP3    H258118   4.583   1.637  11.944  1.2548  1.2803 -0.9493
12235TIP3   OH258119   3.792   2.442  17.055  0.2060 -0.2374  0.0020
12235TIP3    H158120   3.725   2.483  17.000  1.4622  0.5749 -0.9890
12235TIP3    H258121   3.831   2.515  17.104  1.0537 -0.5395 -0.2065
12236TIP3   OH258122   1.696   4.258   0.501 -0.2319 -0.1977  0.3259
12236TIP3    H158123   1.653   4.344   0.502 -2.8219 -1.3004 -2.0529
12236TIP3    H258124   1.775   4.271   0.448 -0.6390  0.7329 -0.0736
12237TIP3   OH258125   4.102   2.646  15.489  0.5138 -0.1906 -0.3502
12237TIP3    H158126   4.145   2.568  15.525  0.3597 -1.4221 -2.6637
12237TIP3    H258127   4.059   2.615  15.410 -0.0058  2.1734 -1.0626
12238TIP3   OH258128   6.441   2.931   4.242 -0.0873  0.7805 -0.2394
12238TIP3    H158129   6.527   2.962   4.213  0.4459  0.0391  0.5073
12238TIP3    H258130   6.438   2.839   4.216 -0.8465  0.9181 -0.6603
12239TIP3   OH258131   1.628   6.335  13.405 -0.2918  0.4694 -0.2088
12239TIP3    H158132   1.570   6.392  13.355 -0.3193  0.9510  0.3526
12239TIP3    H258133   1.584   6.250  13.406 -0.5526  0.6014 -0.5354
12240TIP3   OH258134   2.611   4.628   3.270 -0.1815  0.3138 -0.4466
12240TIP3    H158135   2.675   4.688   3.233 -0.5856  0.9093 -0.1950
12240TIP3    H258136   2.664   4.559   3.311  0.2790  0.3488 -0.9665
12241TIP3   OH258137   6.469   4.873   5.941 -0.6395 -0.1829 -0.0099
12241TIP3    H158138   6.563   4.886   5.927 -0.4636 -0.2779  1.0245
12241TIP3    H258139   6.431   4.960   5.927 -0.2699  0.0694  0.5166
12242TIP3   OH258140   2.182   6.789   4.898 -0.4627  0.1641  0.3735
12242TIP3    H158141   2.124   6.857   4.865  0.7522  1.2018  0.3143
12242TIP3    H258142   2.244   6.773   4.827  0.5596  0.5260  1.1542
12243TIP3   OH258143   3.258   3.678  10.928 -0.4566 -0.4151 -0.4873
12243TIP3    H158144   3.331   3.658  10.987 -0.4376  1.7841  0.3035
12243TIP3    H258145   3.286   3.645  10.843  1.3795  0.2148 -0.1616
12244TIP3   OH258146   5.280   6.237  15.938  0.1188 -0.0672  0.0663
12244TIP3    H158147   5.258   6.330  15.930 -0.0070 -0.2454 -2.1987
12244TIP3    H258148   5.195   6.194  15.945  0.2048  0.0250  2.3313
12245TIP3   OH258149   3.185   1.720  13.813 -0.2730  0.4399 -0.0198
12245TIP3    H158150   3.200   1.803  13.768 -0.8953  0.7107  0.2637
12245TIP3    H258151   3.113   1.679  13.765  0.9956 -0.6452 -1.0913
12246TIP3   OH258152   3.265   1.278   1.826 -0.2743  0.0585 -0.0233
12246TIP3    H158153   3.182   1.239   1.798 -0.4462 -0.1787  0.8041
12246TIP3    H258154   3.293   1.225   1.900  0.9823 -0.2935 -0.7323
12247TIP3   OH258155   1.564   2.686   6.444 -0.4845 -0.3624  1.4153
12247TIP3    H158156   1.559   2.608   6.500 -0.2541 -0.9086  0.6858
12247TIP3    H258157   1.610   2.656   6.366  0.2541  0.6880  1.4282
12248TIP3   OH258158   5.220   5.203  12.689  0.3337 -0.0415  0.4054
12248TIP3    H158159   5.214   5.299  12.694 -0.1842 -0.0223 -0.5002
12248TIP3    H258160   5.273   5.179  12.765  0.6998  0.9855  0.4909
12249TIP3   OH258161   5.734   0.111  12.979  0.1945  0.4239  0.3737
12249TIP3    H158162   5.741   0.089  12.886  2.4304 -1.4992  0.8854
12249TIP3    H258163   5.678   0.188  12.982 -0.8729 -0.1272 -2.4509
12250TIP3   OH258164   3.579   1.481   4.768  0.2070 -0.1232 -0.0221
12250TIP3    H158165   3.668   1.451   4.751 -0.3468 -1.6213 -0.4352
12250TIP3    H258166   3.567   1.554   4.706  1.2812  0.4156  0.3723
12251TIP3   OH258167   1.479   6.536   0.437  0.0769 -0.3749 -0.6768
12251TIP3    H158168   1.549   6.528   0.372 -1.6047  1.8678 -2.9887
12251TIP3    H258169   1.502   6.616   0.486 -0.8451  0.4210 -1.5076
12252TIP3   OH258170   3.998   2.923   1.073  0.2924 -0.3200  0.4264
12252TIP3    H158171   3.948   2.860   1.125  0.8131 -1.0258  0.0959
12252TIP3    H258172   4.002   3.001   1.127 -0.7053 -0.4288  0.6832
12253TIP3   OH258173   1.126   3.105  12.517  0.2287  0.0684  0.0345
12253TIP3    H158174   1.198   3.064  12.469  0.5828  0.6044  0.1015
12253TIP3    H258175   1.064   3.034  12.532 -0.5613  0.1480 -2.4446
12254TIP3   OH258176   2.633   1.657   1.339 -0.2655  0.1817 -0.4341
12254TIP3    H158177   2.715   1.652   1.388 -1.1639  0.6102  1.1740
12254TIP3    H258178   2.657   1.698   1.256  1.3097 -0.6303 -0.4292
12255TIP3   OH258179   0.654   4.746   4.741 -0.0866 -0.3891  0.3009
12255TIP3    H158180   0.647   4.659   4.703  0.6018 -1.2575  2.0550
12255TIP3    H258181   0.748   4.765   4.741 -0.1783  0.0847  0.4848
12256TIP3   OH258182   0.953   5.487   1.584  0.4379 -0.6466 -0.1607
12256TIP3    H158183   0.904   5.552   1.533 -0.1901 -1.2399 -0.3204
12256TIP3    H258184   1.027   5.536   1.619 -0.6236  0.4486  0.6414
12257TIP3   OH258185   2.651   5.535  13.512  0.1035  0.0189 -0.1831
12257TIP3    H158186   2.704   5.482  13.571  1.4836 -0.5112 -1.8337
12257TIP3    H258187   2.714   5.588  13.463 -1.0301  0.7821 -0.8702
12258TIP3   OH258188   4.093   2.076   0.554 -0.0861  0.3972 -0.3722
12258TIP3    H158189   4.146   2.153   0.573 -0.1359 -0.0122  1.6362
12258TIP3    H258190   4.014   2.110   0.511 -0.5499  1.6230  1.3433
12259TIP3   OH258191   2.845   4.276  16.681  0.5132  0.0742  0.1391
12259TIP3    H158192   2.752   4.257  16.670  0.1329  1.4893  0.6242
12259TIP3    H258193   2.877   4.289  16.592  0.4796 -1.3391 -0.0951
12260TIP3   OH258194   5.804   1.982  16.013  0.0429 -0.0451 -0.3830
12260TIP3    H158195   5.786   2.061  16.063  0.6541  0.1476 -0.4558
12260TIP3    H258196   5.728   1.971  15.957 -1.2488 -0.9574  1.4305
12261TIP3   OH258197   1.818   5.285   5.290 -0.2923  0.1547  0.2629
12261TIP3    H158198   1.837   5.370   5.331  0.3610  1.1453 -1.9590
12261TIP3    H258199   1.903   5.246   5.273 -0.4660  0.3892 -1.3181
12262TIP3   OH258200   5.501   0.166  16.269  0.9659  0.7179  0.0703
12262TIP3    H158201   5.493   0.205  16.182 -0.6764  1.8096  0.6487
12262TIP3    H258202   5.449   0.086  16.264  0.7826  0.8354  0.0566
12263TIP3   OH258203   2.984   3.466   5.431 -0.0385 -0.4947 -0.2343
12263TIP3    H158204   2.907   3.514   5.403 -0.2150 -0.9530 -0.5280
12263TIP3    H258205   3.018   3.425   5.352 -1.6776 -3.4596  0.4537
12264TIP3   OH258206   1.931   0.578   5.087 -0.6052  0.5305  0.3621
12264TIP3    H158207   2.002   0.553   5.146 -0.1481 -1.9256 -1.1138
12264TIP3    H258208   1.856   0.525   5.116 -0.2452 -1.0693 -1.4531
12265TIP3   OH258209   1.316   4.085   4.038 -0.0465  0.4066  0.4820
12265TIP3    H158210   1.403   4.045   4.046 -0.3389 -0.8361 -1.5988
12265TIP3    H258211   1.258   4.025   4.086  0.0576  0.4613  0.6760
12266TIP3   OH258212   0.334   4.242   2.050  0.6035  0.1526  0.1708
12266TIP3    H158213   0.430   4.234   2.048  0.5250 -1.2343  0.4855
12266TIP3    H258214   0.315   4.272   2.139  0.6834 -1.2070  0.6760
12267TIP3   OH258215   2.790   5.241  14.375 -0.0789 -0.0709  0.1750
12267TIP3    H158216   2.782   5.236  14.471  1.1273  1.2821  0.3774
12267TIP3    H258217   2.879   5.210  14.357  0.3538  1.3885 -0.3212
12268TIP3   OH258218   6.703   1.636  13.952 -0.4324  0.9795 -0.1714
12268TIP3    H158219   6.769   1.635  14.021  0.7304 -0.3504 -1.2388
12268TIP3    H258220   6.650   1.713  13.971  0.9162  1.6322  1.1980
12269TIP3   OH258221   6.613   2.707  16.556  0.1341 -0.0465  0.0620
12269TIP3    H158222   6.587   2.622  16.591  0.7302 -0.4970 -0.5502
12269TIP3    H258223   6.708   2.699  16.542  0.0699  0.4446 -0.7228
12270TIP3   OH258224   5.096   2.691   5.825  0.5850 -0.0702 -0.3111
12270TIP3    H158225   5.186   2.667   5.846  0.7412  0.4308 -0.3855
12270TIP3    H258226   5.051   2.692   5.909  0.7152 -0.0613 -0.2416
12271TIP3   OH258227   4.350   0.613   2.374 -0.2503 -0.2156  0.5317
12271TIP3    H158228   4.400   0.579   2.449  0.4154 -2.4116 -0.8042
12271TIP3    H258229   4.406   0.682   2.338  0.7338 -0.9988  0.4946
12272TIP3   OH258230   2.018   3.943  14.786  0.2754 -0.5025  0.5752
12272TIP3    H158231   1.942   3.953  14.843  0.7258 -2.2028  1.5618
12272TIP3    H258232   2.039   4.032  14.757 -2.5046 -0.0301 -0.3545
12273TIP3   OH258233   1.040   6.105   4.715  0.3174  0.2557 -0.0611
12273TIP3    H158234   1.085   6.103   4.631 -2.8472  3.0267 -2.0703
12273TIP3    H258235   0.968   6.043   4.706  0.7676 -0.5012  1.2333
12274TIP3   OH258236   2.137   5.551  14.811 -0.2258 -0.2342  0.3339
12274TIP3    H158237   2.215   5.502  14.786  0.0248  0.3481 -0.0427
12274TIP3    H258238   2.143   5.559  14.907 -1.0330 -2.2073  0.5918
12275TIP3   OH258239   3.062   6.411  17.210  0.3969  0.4826 -0.5872
12275TIP3    H158240   3.156   6.395  17.201  0.5111  0.9329 -0.2108
12275TIP3    H258241   3.028   6.331  17.250  0.6727  0.4565 -0.4086
12276TIP3   OH258242   1.882   0.906  15.281 -0.2530  0.2535  0.1224
12276TIP3    H158243   1.975   0.892  15.259 -0.1463  1.0793  0.0331
12276TIP3    H258244   1.835   0.873  15.205  0.1253  3.3152 -1.6153
12277TIP3   OH258245   2.072   4.143  13.815  0.0385 -0.0465  0.0085
12277TIP3    H158246   1.986   4.122  13.778 -0.2876  0.5449  0.4048
12277TIP3    H258247   2.077   4.239  13.812  0.5733 -0.0624  0.2255
12278TIP3   OH258248   2.754   0.885   1.189  0.0743 -0.3898  0.6905
12278TIP3    H158249   2.753   0.809   1.247  0.9676 -0.0810  1.1369
12278TIP3    H258250   2.817   0.945   1.229 -0.2749  0.3952  0.1039
12279TIP3   OH258251   1.120   3.596  15.735 -0.4302 -0.3254 -0.3487
12279TIP3    H158252   1.211   3.625  15.727  0.0588 -1.4651  0.7155
12279TIP3    H258253   1.110   3.574  15.828 -1.5736 -0.9355 -0.6017
12280TIP3   OH258254   6.691   1.187  12.133  0.4354 -0.1388  0.2032
12280TIP3    H158255   6.646   1.268  12.158  0.7436 -0.0839  0.5929
12280TIP3    H258256   6.628   1.118  12.153 -1.4674  0.1522 -3.7482
12281TIP3   OH258257   5.596   3.405  11.327  0.3208 -0.2644  0.5478
12281TIP3    H158258   5.675   3.350  11.329  1.0784  0.7985  1.3131
12281TIP3    H258259   5.532   3.357  11.378 -0.2138 -2.0598 -1.6352
12282TIP3   OH258260   5.867   3.422   3.712  0.1972  0.0099 -0.2005
12282TIP3    H158261   5.812   3.390   3.783 -1.4692 -1.2281 -1.9393
12282TIP3    H258262   5.862   3.517   3.719 -0.2159 -0.0798  1.0937
12283TIP3   OH258263   6.378   6.240   2.750  0.4260 -0.2764 -0.1812
12283TIP3    H158264   6.391   6.238   2.655  1.9997 -1.0197  0.0195
12283TIP3    H258265   6.330   6.321   2.766 -0.6456 -0.5754 -1.6891
12284TIP3   OH258266   4.859   3.791  16.914  0.1967 -0.0663 -0.0772
12284TIP3    H158267   4.883   3.703  16.888 -1.5250 -1.1986  1.8371
12284TIP3    H258268   4.905   3.848  16.852  1.1467 -2.2787 -1.5367
12285TIP3   OH258269   6.582   5.410   5.653 -0.7139 -0.4796  0.0115
12285TIP3    H158270   6.668   5.405   5.694 -1.2938  0.2851  1.4092
12285TIP3    H258271   6.561   5.320   5.628  0.6319 -0.6172 -0.6794
12286TIP3   OH258272   0.398   5.241  12.234  0.0731  0.5351 -0.3966
12286TIP3    H158273   0.313   5.225  12.275  0.2811 -0.7706 -0.4287
12286TIP3    H258274   0.435   5.153  12.220  2.0592  1.0797  0.9259
12287TIP3   OH258275   1.193   1.577   3.430 -0.1102  0.0774 -0.2949
12287TIP3    H158276   1.156   1.529   3.504  0.1107  0.6296  0.1826
12287TIP3    H258277   1.253   1.515   3.388  0.4522  0.0495  0.5277
12288TIP3   OH258278   0.998   2.184   0.717  0.0827  0.2786  0.5543
12288TIP3    H158279   1.088   2.201   0.687 -0.5620  1.6623 -0.7396
12288TIP3    H258280   0.956   2.270   0.717 -1.4815 -0.4532  0.3138
12289TIP3   OH258281   2.139   0.497  14.024 -0.2681 -0.4957  0.4103
12289TIP3    H158282   2.113   0.546  14.103 -3.1000 -2.3028  0.7213
12289TIP3    H258283   2.221   0.454  14.049 -0.0250  0.5821  1.6100
12290TIP3   OH258284   3.655   4.471   3.190  0.5484 -0.0144 -0.7385
12290TIP3    H158285   3.560   4.470   3.191  0.5515 -0.2281  0.1645
12290TIP3    H258286   3.677   4.562   3.170  0.1205  0.6026  1.3007
12291TIP3   OH258287   2.899   4.548   0.911 -0.0526 -0.6047  0.4099
12291TIP3    H158288   2.903   4.461   0.871 -0.1071 -0.1251 -0.6744
12291TIP3    H258289   2.884   4.531   1.004 -0.8163 -1.7386  0.1007
12292TIP3   OH258290   0.366   4.056  13.117  0.7733  0.0317 -0.3725
12292TIP3    H158291   0.385   4.137  13.165 -1.8055  0.7544 -0.4646
12292TIP3    H258292   0.312   4.084  13.043  0.9878 -1.6288 -1.2021
12293TIP3   OH258293   0.712   4.571   4.435 -0.4472 -0.2867  0.3263
12293TIP3    H158294   0.787   4.528   4.392  0.7854  0.0281  2.0348
12293TIP3    H258295   0.701   4.522   4.517  1.2605  2.6685  2.5673
12294TIP3   OH258296   0.240   2.099  10.682  0.0445  0.2147 -0.5141
12294TIP3    H158297   0.186   2.158  10.735 -0.1826 -0.0899 -0.4069
12294TIP3    H258298   0.184   2.023  10.665 -0.5597  1.0596 -2.7314
12295TIP3   OH258299   5.175   6.032   1.431 -0.4933 -0.3206 -0.3671
12295TIP3    H158300   5.175   6.089   1.355 -0.7184  0.1109 -0.0481
12295TIP3    H258301   5.101   6.062   1.484 -0.1756 -0.4311  0.1556
12296TIP3   OH258302   4.582   3.002   4.786  0.6100  0.2786 -0.0230
12296TIP3    H158303   4.628   2.970   4.863  0.0914 -0.7108 -0.1176
12296TIP3    H258304   4.541   2.925   4.748 -0.1671  0.9524 -0.5955
12297TIP3   OH258305   4.739   4.413  11.306 -0.1012 -0.6091 -0.0398
12297TIP3    H158306   4.814   4.472  11.318 -0.7554  0.0032  1.2556
12297TIP3    H258307   4.690   4.452  11.233 -0.2899  0.2253  0.5123
12298TIP3   OH258308   2.186   4.069   5.168  0.1544 -0.3146  0.6794
12298TIP3    H158309   2.175   4.030   5.081  0.5428 -0.2641  0.6054
12298TIP3    H258310   2.115   4.133   5.174  1.1324  0.9292 -0.3093
12299TIP3   OH258311   2.645   5.070   5.566  0.2881 -0.4303 -0.5108
12299TIP3    H158312   2.712   5.135   5.588  0.4334 -0.0345 -1.9970
12299TIP3    H258313   2.691   4.986   5.569  0.4775 -0.3138 -0.0673
12300TIP3   OH258314   0.766   3.200  12.645  0.1532 -0.3582  0.2977
12300TIP3    H158315   0.671   3.188  12.656  0.1064 -0.1237  0.1834
12300TIP3    H258316   0.775   3.229  12.554  0.4968 -1.9691 -0.2007
12301TIP3   OH258317   6.432   2.529  11.704 -0.0118 -0.0655  0.2576
12301TIP3    H158318   6.513   2.489  11.673  0.6487  0.7529  0.8801
12301TIP3    H258319   6.452   2.623  11.710 -0.1837 -0.1263  2.8194
12302TIP3   OH258320   0.330   5.705  12.841 -0.5772 -0.1397  0.1544
12302TIP3    H158321   0.307   5.745  12.757 -0.8878  0.8578  0.6930
12302TIP3    H258322   0.379   5.626  12.818  0.2606  0.6682 -0.9601
12303TIP3   OH258323   6.398   3.301  12.702  0.7552 -0.4234 -0.3271
12303TIP3    H158324   6.451   3.361  12.649  0.6757 -0.5691 -0.5734
12303TIP3    H258325   6.353   3.246  12.638 -0.1441  0.0744 -0.1396
12304TIP3   OH258326   2.973   6.599   2.720  0.3032  0.0396  0.1227
12304TIP3    H158327   3.002   6.640   2.801  0.3125  0.3542 -0.0404
12304TIP3    H258328   2.879   6.614   2.717  0.1624 -0.7272  0.5053
12305TIP3   OH258329   6.357   5.529   5.668  0.8347  0.2259 -0.0931
12305TIP3    H158330   6.322   5.464   5.728  0.0032  0.8339  0.1045
12305TIP3    H258331   6.447   5.501   5.651  0.3607 -1.2128 -0.3660
12306TIP3   OH258332   1.854   1.140   0.165  0.8806  0.2652  0.4220
12306TIP3    H158333   1.813   1.212   0.117 -0.8252 -1.6491 -1.1803
12306TIP3    H258334   1.792   1.120   0.236  0.5111 -0.6586 -0.1467
12307TIP3   OH258335   5.931   0.650  13.054 -0.1636  0.1972  0.5281
12307TIP3    H158336   5.863   0.714  13.070 -0.2629  0.1820  0.1787
12307TIP3    H258337   5.926   0.590  13.129  0.7464  1.2858  1.5014
12308TIP3   OH258338   5.581   6.567   5.829  0.4044 -0.2553  0.0344
12308TIP3    H158339   5.565   6.651   5.872 -0.2254 -0.5690  0.4227
12308TIP3    H258340   5.644   6.523   5.885  2.2117  0.7024 -1.1425
12309TIP3   OH258341   1.085   5.469   4.659  0.3270 -0.0554  0.2202
12309TIP3    H158342   1.067   5.389   4.709  0.9764 -0.3893 -0.0752
12309TIP3    H258343   1.176   5.460   4.632 -0.0081  0.1269 -1.0190
12310TIP3   OH258344   1.695   4.760   1.273  0.2057 -0.1501 -0.4560
12310TIP3    H158345   1.619   4.704   1.292 -0.3121 -0.6753 -3.5408
12310TIP3    H258346   1.727   4.787   1.359 -3.4353  0.0740  0.9993
12311TIP3   OH258347   6.017   0.954  17.062  0.1753 -0.3452  0.6357
12311TIP3    H158348   6.106   0.973  17.089  0.6060 -0.9374 -0.3301
12311TIP3    H258349   5.963   0.976  17.138  1.1426 -0.0411  1.2399
12312TIP3   OH258350   3.988   2.793  11.213 -0.4067 -0.6232 -0.0986
12312TIP3    H158351   4.078   2.823  11.216 -0.9545  1.2577 -1.1376
12312TIP3    H258352   3.980   2.747  11.129 -1.3582  2.7545 -2.0272
12313TIP3   OH258353   4.140   6.124  11.951 -0.1900 -0.0760 -0.5607
12313TIP3    H158354   4.205   6.066  11.911  0.1183  0.1928 -0.4457
12313TIP3    H258355   4.191   6.191  11.996 -0.5487  0.3980 -0.8513
12314TIP3   OH258356   3.432   6.127   2.555  0.0279  0.3014 -0.0920
12314TIP3    H158357   3.490   6.147   2.481  0.9219 -2.0968 -0.1332
12314TIP3    H258358   3.383   6.207   2.569  0.6930  1.2259 -2.5078
12315TIP3   OH258359   0.549   0.804  12.944 -0.5587  0.3723 -0.7277
12315TIP3    H158360   0.570   0.835  12.856  2.6580 -1.6882 -0.8455
12315TIP3    H258361   0.502   0.722  12.930 -0.2774  0.1796 -0.5713
12316TIP3   OH258362   4.093   0.191   0.924  0.2754  0.0269 -0.4552
12316TIP3    H158363   4.085   0.116   0.866  0.3816  0.8963 -1.6335
12316TIP3    H258364   4.187   0.204   0.933  0.2925 -0.8189  0.9084
12317TIP3   OH258365   6.025   4.933   4.170 -0.0014 -0.8753 -0.0985
12317TIP3    H158366   5.931   4.942   4.185  0.0090  1.2402 -0.9702
12317TIP3    H258367   6.064   5.007   4.217  0.8881  0.1888 -2.3962
12318TIP3   OH258368   0.597   6.651   2.028  0.0913 -0.1151  0.2352
12318TIP3    H158369   0.527   6.690   2.080 -1.0264 -0.2082 -1.1451
12318TIP3    H258370   0.675   6.662   2.082 -0.9258  0.2081  1.7191
12319TIP3   OH258371   6.629   0.923  13.213 -1.1143  0.5261  0.3810
12319TIP3    H158372   6.610   0.952  13.302  0.2997  1.4673  0.3917
12319TIP3    H258373   6.722   0.902  13.213 -0.9255  1.2388 -1.0561
12320TIP3   OH258374   4.213   1.121   0.728  0.5351 -0.4667  0.0565
12320TIP3    H158375   4.284   1.186   0.717  0.6533  0.1078  3.1443
12320TIP3    H258376   4.174   1.114   0.642  2.2509  1.7226 -1.0283
12321TIP3   OH258377   4.715   6.759   3.020  0.4260  0.0445  0.1870
12321TIP3    H158378   4.638   6.806   3.051 -0.8028 -1.8779  0.1899
12321TIP3    H258379   4.756   6.725   3.100  1.5170  1.3310  0.2145
12322TIP3   OH258380   0.636   2.418  15.970  0.4206 -0.2055 -0.3345
12322TIP3    H158381   0.712   2.463  15.933 -0.4697  1.4427 -0.2336
12322TIP3    H258382   0.673   2.360  16.038  1.7516 -0.9627 -1.6499
12323TIP3   OH258383   6.059   3.307   0.904 -0.1335  0.0091  0.3235
12323TIP3    H158384   6.039   3.259   0.824 -0.8831  1.3276 -0.3206
12323TIP3    H258385   6.023   3.253   0.975 -0.6813 -0.5151 -0.3437
12324TIP3   OH258386   4.389   0.566   6.301 -0.4270 -0.0548  0.0244
12324TIP3    H158387   4.448   0.491   6.309  1.3778  1.0059 -2.1543
12324TIP3    H258388   4.393   0.608   6.387  1.4590 -0.4445  0.1714
12325TIP3   OH258389   2.794   6.134  11.467  0.0854 -0.0033  0.1610
12325TIP3    H158390   2.873   6.088  11.494  1.2740  1.7313 -0.2313
12325TIP3    H258391   2.762   6.085  11.391  1.9315  0.4067 -0.9251
12326TIP3   OH258392   5.529   2.666   0.075  0.5137 -0.5471 -0.1560
12326TIP3    H158393   5.473   2.721   0.020 -0.4323  0.2033  1.4638
12326TIP3    H258394   5.504   2.576   0.053  1.0877 -0.3302 -1.8390
12327TIP3   OH258395   2.303   5.492  13.812  0.4379  0.0420  0.1394
12327TIP3    H158396   2.313   5.429  13.884  1.5572  1.0320  0.8886
12327TIP3    H258397   2.301   5.438  13.733 -3.9991 -1.4000  0.9492
12328TIP3   OH258398   3.001   5.940  10.731  0.0561  0.1731  0.2540
12328TIP3    H158399   3.055   5.869  10.695  0.8242  0.4527  0.8333
12328TIP3    H258400   3.032   6.019  10.686  0.2486  0.3622  0.7212
12329TIP3   OH258401   1.828   1.968  11.188  0.3676  0.2073 -0.3525
12329TIP3    H158402   1.839   1.887  11.138  1.2993  0.8753 -1.2757
12329TIP3    H258403   1.917   2.000  11.201 -0.0563  2.3905 -2.2477
12330TIP3   OH258404   6.751   1.512  15.466  0.0217  0.5489 -0.0125
12330TIP3    H158405   6.686   1.543  15.403  0.2966 -0.1339 -0.6534
12330TIP3    H258406   6.807   1.453  15.415 -0.8299 -1.4565  1.2567
12331TIP3   OH258407   3.243   5.755  10.917 -0.0118 -0.1850  0.0993
12331TIP3    H158408   3.223   5.775  11.009  1.4424  0.0237  0.3959
12331TIP3    H258409   3.182   5.686  10.894  0.5458 -1.2584  1.6820
12332TIP3   OH258410   0.035   0.247  11.696  0.1533 -0.8426  0.4785
12332TIP3    H158411   0.066   0.337  11.711  0.5121 -0.8471 -0.1986
12332TIP3    H258412  -0.048   0.258  11.649 -0.8788 -0.8329  2.2069
12333TIP3   OH258413   5.274   6.794  16.207  0.0155  0.8904  0.1831
12333TIP3    H158414   5.189   6.800  16.251 -1.0561  0.5088 -1.7383
12333TIP3    H258415   5.264   6.846  16.128  1.0999 -0.3190 -0.7838
12334TIP3   OH258416   4.843   1.308  13.503 -0.2706  0.4556  0.2177
12334TIP3    H158417   4.932   1.284  13.532 -0.8627 -2.5043 -0.0830
12334TIP3    H258418   4.798   1.333  13.584 -0.7737 -3.8886  1.5262
12335TIP3   OH258419   6.119   1.364  14.353  0.0577 -0.0275 -0.1933
12335TIP3    H158420   6.177   1.352  14.429 -0.3872 -1.2654 -0.0231
12335TIP3    H258421   6.068   1.441  14.375 -0.0748 -0.3756  0.7944
12336TIP3   OH258422   5.441   2.696  14.271 -0.2496 -0.2660  0.2979
12336TIP3    H158423   5.388   2.631  14.316 -2.9215 -0.6028 -2.9613
12336TIP3    H258424   5.424   2.682  14.178  5.2864  0.0076 -1.1034
12337TIP3   OH258425   3.825   2.198   1.159  0.1565  0.1197 -0.0542
12337TIP3    H158426   3.869   2.120   1.126  0.7269  0.4283 -0.0246
12337TIP3    H258427   3.757   2.216   1.093 -1.1203 -1.3780  0.7838
12338TIP3   OH258428   0.316   5.737  16.166  0.6451 -0.1567 -0.0838
12338TIP3    H158429   0.392   5.785  16.200  1.0816 -0.4409 -0.6416
12338TIP3    H258430   0.330   5.647  16.195  0.0769 -0.0484  0.5448
12339TIP3   OH258431   0.059   0.221  16.157 -0.1904 -0.1804  0.1215
12339TIP3    H158432   0.116   0.287  16.116  0.3819  1.0679  2.7506
12339TIP3    H258433   0.089   0.216  16.247 -2.4657 -1.5771  0.8833
12340TIP3   OH258434   3.599   1.347   4.392  0.4882  0.2008  0.3505
12340TIP3    H158435   3.552   1.297   4.458 -1.0445  0.2639 -0.6526
12340TIP3    H258436   3.620   1.284   4.324  0.2295  0.5353 -0.0471
12341TIP3   OH258437   0.089   5.203   3.976  1.0133  0.1533 -0.4140
12341TIP3    H158438   0.139   5.217   3.895 -0.0187  1.2870 -0.8799
12341TIP3    H258439   0.047   5.118   3.964 -0.4646  1.0123 -1.8345
12342TIP3   OH258440   2.897   5.581   1.688  0.4020 -0.4739 -0.0276
12342TIP3    H158441   2.811   5.610   1.720  0.6661  0.2803  0.0260
12342TIP3    H258442   2.902   5.489   1.715 -0.8351 -0.8557 -0.9930
12343TIP3   OH258443   2.113   3.569  15.356 -0.2721  0.4836  0.2415
12343TIP3    H158444   2.044   3.504  15.347  1.1649 -1.3847  1.8930
12343TIP3    H258445   2.178   3.546  15.290 -0.1401  0.7857  0.2611
12344TIP3   OH258446   5.112   3.450  15.926  0.1372 -0.1341 -0.0431
12344TIP3    H158447   5.030   3.408  15.952  0.3331  0.3040  1.3187
12344TIP3    H258448   5.140   3.500  16.002  1.2745  0.3645 -0.7519
12345TIP3   OH258449   3.517   4.173   5.049 -0.2640 -0.1419 -0.2721
12345TIP3    H158450   3.520   4.198   4.957  1.1175  0.5832 -0.0577
12345TIP3    H258451   3.602   4.200   5.084 -1.8580  2.5340  1.9457
12346TIP3   OH258452   6.143   4.680   3.484 -0.3307  0.8944  0.3863
12346TIP3    H158453   6.214   4.727   3.527 -0.3186  1.7291 -0.5110
12346TIP3    H258454   6.092   4.748   3.441 -2.0982  0.4047  1.5839
12347TIP3   OH258455   3.552   4.283  12.876  0.2738  0.8632  0.4835
12347TIP3    H158456   3.471   4.237  12.857  0.2880  1.0133  0.0611
12347TIP3    H258457   3.609   4.263  12.802  0.4079  1.2599  0.4791
12348TIP3   OH258458   1.763   4.726   6.651  0.5295  0.2607  0.3306
12348TIP3    H158459   1.829   4.790   6.624  0.3161 -0.4359 -2.0430
12348TIP3    H258460   1.698   4.728   6.581 -0.9494 -0.5358  1.6132
12349TIP3   OH258461   2.981   5.285  11.292 -0.1508  0.2976  0.2291
12349TIP3    H158462   3.001   5.224  11.363  4.1261  0.7785 -0.2838
12349TIP3    H258463   3.006   5.371  11.327  1.0759  0.6808 -1.4520
12350TIP3   OH258464   2.641   6.440  13.984 -0.5723  0.3709  0.5947
12350TIP3    H158465   2.625   6.383  13.909 -0.0915  0.6006  0.3117
12350TIP3    H258466   2.727   6.414  14.017 -0.1672  1.1864  0.2177
12351TIP3   OH258467   4.984   4.696  12.743 -0.3334  0.6114 -0.0023
12351TIP3    H158468   4.961   4.789  12.737  1.0588  0.9551 -0.4331
12351TIP3    H258469   4.921   4.660  12.806 -1.6014  1.5962 -0.6486
12352TIP3   OH258470   4.715   3.230  14.346  0.3960  0.0696 -0.0844
12352TIP3    H158471   4.653   3.233  14.274  0.3195  1.0570 -0.0004
12352TIP3    H258472   4.800   3.244  14.305  0.5248 -0.8731 -0.1517
12353TIP3   OH258473   5.362   4.052  12.662 -0.0452  0.1123 -0.0933
12353TIP3    H158474   5.402   4.039  12.748  0.2246 -1.0525 -0.3760
12353TIP3    H258475   5.416   4.119  12.620  1.2545 -0.9819 -0.2281
12354TIP3   OH258476   6.069   3.695  11.228 -0.0533  0.1287  0.6009
12354TIP3    H158477   5.996   3.724  11.283 -1.0581 -1.6331  0.2611
12354TIP3    H258478   6.031   3.687  11.141  0.6553 -0.4472  0.3369
12355TIP3   OH258479   3.182   6.531   4.141 -0.2805 -0.2758  0.2573
12355TIP3    H158480   3.156   6.596   4.076  1.0323 -1.6819 -1.7875
12355TIP3    H258481   3.177   6.448   4.094  1.2988 -1.2834  1.7990
12356TIP3   OH258482   4.209   4.774   4.872 -0.0587 -0.3623 -0.1556
12356TIP3    H158483   4.230   4.792   4.780  1.0031 -0.5254  0.0478
12356TIP3    H258484   4.162   4.852   4.901 -1.3159 -0.7226 -1.1052
12357TIP3   OH258485   0.741   1.198  11.762 -0.5788  0.0164  0.1484
12357TIP3    H158486   0.807   1.151  11.814 -1.4080 -1.7941 -0.3687
12357TIP3    H258487   0.662   1.145  11.769 -1.2171  0.6746 -1.5164
12358TIP3   OH258488   2.609   2.364  12.946 -0.1134 -0.0776 -0.2263
12358TIP3    H158489   2.523   2.355  12.988  0.7882 -0.5575  1.5992
12358TIP3    H258490   2.623   2.458  12.940 -0.7750  0.0037 -0.5442
12359TIP3   OH258491   3.767   4.662   2.016 -0.3151  0.4250 -0.3897
12359TIP3    H158492   3.778   4.741   2.069  0.5007 -0.8241  1.4577
12359TIP3    H258493   3.676   4.637   2.030 -0.1539  0.2006  0.3541
12360TIP3   OH258494   6.684   4.584   2.484 -0.3629 -0.2220 -0.3426
12360TIP3    H158495   6.659   4.676   2.481  2.3800  0.5886 -2.2668
12360TIP3    H258496   6.629   4.542   2.417 -0.4983  0.3587 -0.5996
12361TIP3   OH258497   0.157   1.688  16.372 -0.1033 -0.0598  0.3741
12361TIP3    H158498   0.172   1.594  16.382  0.9858  0.1711  1.1011
12361TIP3    H258499   0.234   1.720  16.324 -1.2233  0.2280 -1.3239
12362TIP3   OH258500   5.848   3.827   1.103  0.1126 -0.0997  0.3262
12362TIP3    H158501   5.863   3.753   1.162  1.7893 -0.6861 -0.7778
12362TIP3    H258502   5.804   3.892   1.158 -0.3507 -1.4469  1.6298
12363TIP3   OH258503   4.964   5.362   1.795 -0.1201  0.2077 -0.3026
12363TIP3    H158504   4.971   5.447   1.837  1.0682 -0.2900  0.5728
12363TIP3    H258505   4.976   5.299   1.867 -1.4227 -0.7083 -0.8526
12364TIP3   OH258506   1.653   1.258  15.987  0.4344  0.0625 -0.2671
12364TIP3    H158507   1.685   1.308  15.912  0.2619 -0.9433 -1.0451
12364TIP3    H258508   1.614   1.323  16.045  2.1384  1.0928 -0.1920
12365TIP3   OH258509   4.055   4.055  16.715  0.6405 -0.3119  0.3298
12365TIP3    H158510   3.993   4.006  16.662  1.2773  0.6397 -1.3818
12365TIP3    H258511   4.109   4.102  16.651  1.9211  0.3217  1.8133
12366TIP3   OH258512   5.284   1.228   2.455  0.0654 -0.3554  0.1987
12366TIP3    H158513   5.358   1.289   2.459 -0.7040  0.7746 -1.4648
12366TIP3    H258514   5.295   1.183   2.371 -3.0445  2.5706 -2.0562
12367TIP3   OH258515   6.210   6.487  16.517 -0.2331 -0.5828 -0.9062
12367TIP3    H158516   6.262   6.426  16.570 -0.3059  1.0422  1.1716
12367TIP3    H258517   6.126   6.442  16.504 -0.3842 -0.8830  0.8087
12368TIP3   OH258518   3.206   6.363   4.435 -0.4330 -0.3137  1.0213
12368TIP3    H158519   3.246   6.299   4.377  0.1660 -0.1467  1.2416
12368TIP3    H258520   3.280   6.415   4.468 -0.9990  1.3260 -0.1402
12369TIP3   OH258521   5.009   5.930   3.658 -0.3094 -0.0431  0.3716
12369TIP3    H158522   5.075   5.934   3.727  0.1108  0.6906 -0.0637
12369TIP3    H258523   5.052   5.883   3.587 -0.5356 -0.2670  0.3817
12370TIP3   OH258524   5.895   3.165  14.536 -0.0138 -0.3763 -0.6163
12370TIP3    H158525   5.914   3.084  14.582  0.4675 -0.5466 -1.1033
12370TIP3    H258526   5.963   3.171  14.468  0.7246  1.0670  0.1990
12371TIP3   OH258527   2.956   1.127  16.631  0.1698 -0.4204 -0.0679
12371TIP3    H158528   3.010   1.157  16.558  0.1441  0.1237  0.1286
12371TIP3    H258529   2.970   1.032  16.634 -1.2190 -0.7476 -1.9133
12372TIP3   OH258530   0.979   0.935  12.296 -0.0184 -0.0892  0.8180
12372TIP3    H158531   1.073   0.931  12.280 -0.1404 -1.2097  0.3444
12372TIP3    H258532   0.971   0.986  12.377  0.9470  0.5216  0.5465
12373TIP3   OH258533   0.336   0.127   3.864 -0.0691 -0.1122 -0.0471
12373TIP3    H158534   0.259   0.138   3.921 -0.4153 -2.3772  0.0087
12373TIP3    H258535   0.311   0.058   3.803  1.6327 -0.2953 -0.5823
12374TIP3   OH258536   1.779   2.675   3.317  0.1972  0.6387  0.0274
12374TIP3    H158537   1.747   2.603   3.263  0.0158  0.6564  0.1088
12374TIP3    H258538   1.872   2.657   3.330 -0.1789 -0.4414  1.4055
12375TIP3   OH258539   0.478   2.831  16.945 -0.2353  0.0649  0.1354
12375TIP3    H158540   0.551   2.796  16.997  1.3148  2.2721 -0.4266
12375TIP3    H258541   0.399   2.801  16.991  0.9663 -2.5216  0.6914
12376TIP3   OH258542   4.852   5.221   3.165  0.1962 -0.3543  0.1304
12376TIP3    H158543   4.936   5.194   3.202  1.8335  4.1188  0.4157
12376TIP3    H258544   4.865   5.218   3.071  1.9638  2.9680  0.1168
12377TIP3   OH258545   5.474   1.331   3.152  0.3561 -0.4250 -0.2044
12377TIP3    H158546   5.413   1.336   3.078  0.8854  0.2819 -0.6104
12377TIP3    H258547   5.469   1.418   3.193 -2.4061 -1.7420  2.6741
12378TIP3   OH258548   4.310   3.453  10.808 -0.1465  0.5262  0.4141
12378TIP3    H158549   4.340   3.366  10.833 -2.1592 -0.5936 -0.8383
12378TIP3    H258550   4.216   3.444  10.795 -0.2658  2.6499 -0.7749
12379TIP3   OH258551   3.567   5.260  11.370 -0.0831 -0.2132 -0.0528
12379TIP3    H158552   3.592   5.261  11.463  1.4190  1.2641 -0.4278
12379TIP3    H258553   3.646   5.234  11.324 -0.7120 -0.5631 -0.9654
12380TIP3   OH258554   6.753   4.659  16.101  0.0442  0.5016  0.4502
12380TIP3    H158555   6.759   4.755  16.096 -1.3332  0.6110  0.6965
12380TIP3    H258556   6.659   4.641  16.103  0.2871 -0.7843  1.7043
12381TIP3   OH258557   3.298   4.494  16.182  0.0259  0.0002 -0.2127
12381TIP3    H158558   3.362   4.430  16.211 -0.3625 -0.0320  0.5894
12381TIP3    H258559   3.253   4.521  16.262  0.2206  1.3112 -0.5228
12382TIP3   OH258560   0.021   2.015   2.589  0.5732  0.3169  0.3705
12382TIP3    H158561   0.028   2.054   2.502  0.1984  1.0387  0.6582
12382TIP3    H258562  -0.017   1.929   2.574  0.3821  0.4959 -0.1694
12383TIP3   OH258563   4.836   2.122   4.577 -0.4040  0.0040  0.1625
12383TIP3    H158564   4.822   2.056   4.509  0.5116  1.1995 -1.2504
12383TIP3    H258565   4.828   2.205   4.531  0.3848  0.8468  1.5022
12384TIP3   OH258566   5.477   5.138  16.020  0.8108  0.2901 -0.2666
12384TIP3    H158567   5.381   5.139  16.020  0.7299 -1.2616  1.5005
12384TIP3    H258568   5.501   5.122  15.928 -0.5777  1.1803 -0.8185
12385TIP3   OH258569   5.492   3.111   2.422  0.2186 -0.9218  0.1023
12385TIP3    H158570   5.547   3.034   2.437  1.3698 -0.4394 -1.4123
12385TIP3    H258571   5.441   3.090   2.344 -0.5658 -0.7261  0.5562
12386TIP3   OH258572   4.808   1.798  12.490  0.2828  0.6924 -0.2778
12386TIP3    H158573   4.883   1.742  12.507 -0.0967  0.2988  0.1192
12386TIP3    H258574   4.843   1.887  12.497  0.1072  0.6258  3.0758
12387TIP3   OH258575   2.452   2.362  15.313  0.1015  0.0794 -0.6060
12387TIP3    H158576   2.380   2.327  15.260 -0.5574 -0.1705  0.4194
12387TIP3    H258577   2.419   2.447  15.344 -0.4453 -0.7302  1.1797
12388TIP3   OH258578   0.528   6.298  16.953 -0.0631  0.2884 -0.3831
12388TIP3    H158579   0.585   6.310  17.029 -0.3568  1.2147 -0.2999
12388TIP3    H258580   0.558   6.364  16.890 -1.4003  1.2091 -0.1128
12389TIP3   OH258581   4.889   1.524  11.736  0.1259 -0.3767 -0.6319
12389TIP3    H158582   4.800   1.559  11.747 -0.1887 -0.4500 -2.4676
12389TIP3    H258583   4.934   1.592  11.685  0.2159 -1.5610 -2.2167
12390TIP3   OH258584   3.301   5.930  11.346 -0.0567 -0.6337  0.1164
12390TIP3    H158585   3.282   5.962  11.434 -0.8361 -2.4866  0.6484
12390TIP3    H258586   3.355   6.000  11.307 -2.3808  1.7604  0.8633
12391TIP3   OH258587   5.336   6.662  14.461  0.2830 -0.1518  0.1123
12391TIP3    H158588   5.259   6.625  14.418 -0.9818  2.1779  0.1897
12391TIP3    H258589   5.358   6.739  14.408  0.8390  0.8116  1.6618
12392TIP3   OH258590   4.153   2.524   0.049 -0.2123  0.6187  0.6257
12392TIP3    H158591   4.231   2.570   0.016  0.0392 -0.1925  0.0625
12392TIP3    H258592   4.091   2.594   0.070  1.1845  1.3823  2.5094
12393TIP3   OH258593   1.918   6.635  13.345 -0.4660 -0.0943  0.3205
12393TIP3    H158594   1.972   6.710  13.371  1.2509 -1.2154  0.1451
12393TIP3    H258595   1.865   6.615  13.423 -1.3667  1.6063  0.1894
12394TIP3   OH258596   4.467   6.755   1.080 -0.0381  0.9220 -0.4896
12394TIP3    H158597   4.517   6.742   1.161  0.2155  2.1156 -0.4388
12394TIP3    H258598   4.414   6.676   1.072  1.4765 -0.1725 -0.2686
12395TIP3   OH258599   2.140   4.229   3.531  0.2125 -0.1448 -0.2253
12395TIP3    H158600   2.186   4.182   3.461 -1.9666 -0.2164 -1.7240
12395TIP3    H258601   2.132   4.318   3.498 -1.4823 -0.3524 -0.4375
12396TIP3   OH258602   6.594   5.680  16.738 -0.1396  0.1791 -0.5648
12396TIP3    H158603   6.652   5.627  16.684  0.9498  1.2499 -0.4798
12396TIP3    H258604   6.638   5.685  16.823 -1.5127 -0.9375  0.2503
12397TIP3   OH258605   2.668   3.784   2.081  0.3381 -0.3175 -0.8743
12397TIP3    H158606   2.690   3.858   2.025  1.1801  0.4894  0.4738
12397TIP3    H258607   2.603   3.819   2.143  3.7561  0.6587  2.5141
12398TIP3   OH258608   2.099   5.684  16.995  0.4378  0.1301  0.0805
12398TIP3    H158609   2.186   5.725  16.991 -0.6673  2.6690  0.2124
12398TIP3    H258610   2.115   5.593  16.971  2.9492  0.8157 -1.2650
12399TIP3   OH258611   6.691   1.731  16.621 -0.4431 -0.1703 -0.4280
12399TIP3    H158612   6.702   1.796  16.551  0.8510 -0.9141 -0.9402
12399TIP3    H258613   6.606   1.753  16.660 -0.4619  1.2505 -1.1869
12400TIP3   OH258614   5.383   5.378  10.804 -0.1229  0.1294  0.6542
12400TIP3    H158615   5.399   5.437  10.731 -0.1040 -0.1702  0.4176
12400TIP3    H258616   5.383   5.291  10.766  0.1370 -0.0493  1.0514
12401TIP3   OH258617   3.122   3.290  14.270  0.3676 -0.2511  0.1408
12401TIP3    H158618   3.212   3.320  14.271  0.2516  0.3422 -1.9072
12401TIP3    H258619   3.070   3.370  14.262 -0.2896 -0.6417  0.4221
12402TIP3   OH258620   0.963   1.679   3.608 -0.0714  0.4861  0.0384
12402TIP3    H158621   0.946   1.585   3.600 -0.5047  0.3199  2.1550
12402TIP3    H258622   0.895   1.720   3.555 -0.6332 -0.3793  0.0539
12403TIP3   OH258623   0.726   0.214  16.686  0.9686  0.1580 -0.3845
12403TIP3    H158624   0.702   0.287  16.742  1.1438  0.9301 -1.2895
12403TIP3    H258625   0.648   0.159  16.683  0.5312  0.7741 -0.4096
12404TIP3   OH258626   2.901   3.883   3.159 -0.4938  0.0490 -0.1590
12404TIP3    H158627   2.905   3.954   3.095  0.6953  0.9641  0.8824
12404TIP3    H258628   2.946   3.810   3.116  0.6152  0.7608 -0.2710
12405TIP3   OH258629   2.899   3.708   4.744  0.3268  0.6416 -0.1470
12405TIP3    H158630   2.974   3.767   4.746 -0.5415  1.7743  0.2624
12405TIP3    H258631   2.823   3.766   4.753 -0.5289 -0.6056  1.1973
12406TIP3   OH258632   2.739   1.607  14.190 -0.0188 -0.1477 -0.3236
12406TIP3    H158633   2.782   1.543  14.133  2.3293 -1.4609  2.6955
12406TIP3    H258634   2.669   1.558  14.232 -2.4710  1.0982 -2.6191
12407TIP3   OH258635   2.524   2.248   3.634  0.0161 -0.3474 -0.4425
12407TIP3    H158636   2.602   2.206   3.597  0.6695  0.7950 -0.4424
12407TIP3    H258637   2.499   2.192   3.708  1.1776 -0.4510 -0.1043
12408TIP3   OH258638   1.703   0.438   5.195  0.1064 -0.3857 -0.4511
12408TIP3    H158639   1.667   0.526   5.207  0.3519 -0.0184 -2.0752
12408TIP3    H258640   1.627   0.380   5.201 -0.8178  0.3346 -3.3309
12409TIP3   OH258641   1.420   0.584   1.074  0.3906  0.4467 -0.1839
12409TIP3    H158642   1.474   0.594   1.153 -0.0805  2.5840 -0.0906
12409TIP3    H258643   1.422   0.670   1.032 -0.3194 -0.3352 -1.9101
12410TIP3   OH258644   3.538   3.616   3.017 -0.3789 -0.3418 -0.2509
12410TIP3    H158645   3.519   3.599   3.110 -0.0789  0.7250  0.0203
12410TIP3    H258646   3.579   3.536   2.986 -0.4735 -0.7103  0.5426
12411TIP3   OH258647   2.538   2.499  13.316 -0.9947 -0.1856  0.8169
12411TIP3    H158648   2.489   2.570  13.356 -2.0137  0.1824 -0.9950
12411TIP3    H258649   2.496   2.419  13.349 -2.2881  0.1173 -0.0264
12412TIP3   OH258650   3.433   1.277  11.245 -0.4174  0.6042  0.6090
12412TIP3    H158651   3.372   1.219  11.289  1.0302 -2.9058 -1.6161
12412TIP3    H258652   3.417   1.264  11.152  2.7835  0.4072 -0.0524
12413TIP3   OH258653   0.324   6.242   0.604 -0.4437  0.5326  0.1578
12413TIP3    H158654   0.262   6.290   0.550 -1.0113  1.1560  1.3278
12413TIP3    H258655   0.404   6.295   0.602  0.1528 -0.3862 -1.5326
12414TIP3   OH258656   5.786   1.854  15.217  0.3904 -0.5611 -0.5208
12414TIP3    H158657   5.816   1.821  15.301  2.2851 -1.0003 -1.3198
12414TIP3    H258658   5.716   1.794  15.191 -0.8084  0.0813  1.0945
12415TIP3   OH258659   5.367   6.443   4.002  0.1128  0.4102  0.1538
12415TIP3    H158660   5.291   6.395   4.035  1.1945  0.4184  2.9988
12415TIP3    H258661   5.420   6.376   3.959 -0.4466 -0.0405  0.1509
12416TIP3   OH258662   4.422   2.877  12.304 -0.1209 -0.3936  0.4594
12416TIP3    H158663   4.434   2.969  12.326 -0.1065 -0.2848 -0.0084
12416TIP3    H258664   4.506   2.836  12.325  0.0487 -0.2024  0.1429
12417TIP3   OH258665   5.471   2.915   5.639 -0.0252  0.4919  0.2327
12417TIP3    H158666   5.520   2.905   5.721  0.4061  0.5270 -0.0163
12417TIP3    H258667   5.527   2.874   5.573 -0.6232 -0.0328  0.0451
12418TIP3   OH258668   4.872   1.170  13.761 -0.3874  0.2532 -0.0844
12418TIP3    H158669   4.888   1.191  13.853  0.5678 -0.1181 -0.1497
12418TIP3    H258670   4.777   1.161  13.754 -0.4539  0.1072  0.9050
12419TIP3   OH258671   3.380   0.614   1.893  0.0524 -0.7217 -0.0288
12419TIP3    H158672   3.472   0.592   1.884  0.4134  1.1387 -1.2493
12419TIP3    H258673   3.336   0.529   1.894  1.7373 -1.6308  0.2584
12420TIP3   OH258674   5.990   4.452   4.171  0.7115 -0.2565 -0.3069
12420TIP3    H158675   6.046   4.524   4.143  1.3913 -0.4582  0.5224
12420TIP3    H258676   5.901   4.483   4.154  1.0631 -0.0935 -2.0246
12421TIP3   OH258677   1.906   0.713  15.073  0.0389  0.0192 -0.2593
12421TIP3    H158678   1.995   0.693  15.044  0.7459 -0.0498  1.7691
12421TIP3    H258679   1.870   0.627  15.096 -0.6105  0.0346 -1.2040
12422TIP3   OH258680   3.177   3.973  15.876 -0.3920  0.8572  0.7768
12422TIP3    H158681   3.237   4.035  15.834 -1.8335  2.0656  0.4086
12422TIP3    H258682   3.196   3.981  15.970  0.0395  1.1926  0.6639
12423TIP3   OH258683   0.994   3.703  14.722  0.1819  0.0307 -0.0961
12423TIP3    H158684   1.053   3.743  14.786  0.4124  1.3603 -1.0953
12423TIP3    H258685   0.948   3.777  14.682 -0.3481 -0.8095 -1.0841
12424TIP3   OH258686   4.174   6.701   0.129  0.3661 -0.3669 -0.2323
12424TIP3    H158687   4.225   6.779   0.109  1.5154 -1.1008 -0.2502
12424TIP3    H258688   4.097   6.733   0.176  1.9960  0.5744  1.8984
12425TIP3   OH258689   3.634   4.145  16.632  0.4218 -0.0693 -0.2188
12425TIP3    H158690   3.565   4.207  16.609  0.6687  0.1379 -0.4039
12425TIP3    H258691   3.693   4.144  16.556 -0.3381 -1.6196 -0.8420
12426TIP3   OH258692   4.118   3.127  12.545 -0.7454  0.7856  0.7319
12426TIP3    H158693   4.117   3.191  12.474 -0.9297  0.9041  0.8405
12426TIP3    H258694   4.115   3.042  12.502 -1.9658  0.8726  0.6335
12427TIP3   OH258695   0.965   3.407  17.162  0.7437  0.0493 -0.6252
12427TIP3    H158696   0.929   3.318  17.152 -0.8569  0.7080 -1.0169
12427TIP3    H258697   0.982   3.415  17.256  1.2093 -0.7720 -0.6236
12428TIP3   OH258698   3.489   2.876  15.793 -0.2403 -0.2679  0.1619
12428TIP3    H158699   3.466   2.889  15.700 -0.2835  0.7968  0.3078
12428TIP3    H258700   3.418   2.918  15.841  0.8426  1.0738  0.6505
12429TIP3   OH258701   4.895   2.814   2.588  0.2142 -0.3060  0.4726
12429TIP3    H158702   4.981   2.828   2.627  0.3375 -0.4529  0.2545
12429TIP3    H258703   4.896   2.866   2.508 -0.1604  0.2644  0.8359
12430TIP3   OH258704   6.593   6.669   5.107 -0.0276  0.1821  0.2342
12430TIP3    H158705   6.688   6.658   5.108 -0.0200 -0.2541 -1.7369
12430TIP3    H258706   6.580   6.759   5.078 -0.2518  1.4415  3.7780
12431TIP3   OH258707   3.294   4.059   0.992  0.7730 -0.1718  0.1971
12431TIP3    H158708   3.335   4.068   0.907 -0.4352  0.8767 -0.3014
12431TIP3    H258709   3.286   3.965   1.005  1.3415 -0.3468 -0.6621
12432TIP3   OH258710   1.842   6.075   4.218  0.9053  0.0339 -0.0317
12432TIP3    H158711   1.887   5.993   4.238  0.4107 -0.5435 -1.1924
12432TIP3    H258712   1.814   6.066   4.127 -0.0437  1.0743  0.1295
12433TIP3   OH258713   2.461   4.639   0.437 -0.2400 -0.2362 -0.2792
12433TIP3    H158714   2.418   4.556   0.456 -0.0481  0.2992  3.3700
12433TIP3    H258715   2.412   4.704   0.488  1.7037  1.2686 -0.1696
12434TIP3   OH258716   1.267   0.559   2.915 -0.0533 -0.4229 -0.6842
12434TIP3    H158717   1.186   0.610   2.922 -0.6279 -1.0734 -2.0489
12434TIP3    H258718   1.337   0.623   2.917 -0.5465  0.0960  1.3027
12435TIP3   OH258719   5.916   4.226   1.057  0.1168 -0.0466  0.3805
12435TIP3    H158720   5.999   4.179   1.045  0.0444  0.3414 -2.1726
12435TIP3    H258721   5.890   4.252   0.968 -2.3870  0.4793  1.1904
12436TIP3   OH258722   3.068   3.830  16.864  0.2395  0.7668 -0.4689
12436TIP3    H158723   3.031   3.769  16.928 -0.5143  0.1263 -1.4708
12436TIP3    H258724   3.028   3.914  16.886  1.7107  1.0688  1.2709
12437TIP3   OH258725   3.041   3.449   0.308  0.0957 -0.0513  0.2740
12437TIP3    H158726   3.131   3.473   0.328  0.2984 -0.4423 -0.1688
12437TIP3    H258727   3.047   3.386   0.236 -0.4536 -0.9576  0.9771
12438TIP3   OH258728   6.112   5.678   1.695  0.4209 -0.5117  0.4417
12438TIP3    H158729   6.206   5.676   1.712  0.0798 -0.8339  2.5163
12438TIP3    H258730   6.072   5.687   1.781 -1.4227  1.2701 -0.5340
12439TIP3   OH258731   5.650   1.741  13.844  0.6852  0.0546  0.2656
12439TIP3    H158732   5.578   1.689  13.880  2.1143 -1.6561  0.7883
12439TIP3    H258733   5.717   1.676  13.821  1.8394  1.5472 -0.7452
12440TIP3   OH258734   3.910   0.640  14.197  0.5811 -0.3321 -0.0257
12440TIP3    H158735   3.964   0.701  14.147 -1.0097 -0.3842 -1.9312
12440TIP3    H258736   3.826   0.685  14.208 -0.0982 -1.5501 -0.0589
12441TIP3   OH258737   1.488   5.092   0.241  0.0965 -0.3876  0.1328
12441TIP3    H158738   1.486   5.090   0.337  1.7123 -0.5278  0.1845
12441TIP3    H258739   1.561   5.150   0.219 -1.5943  1.4193 -1.0525
12442TIP3   OH258740   4.170   5.194  12.936  0.2257  0.3258 -0.3064
12442TIP3    H158741   4.135   5.149  13.012  0.3564  1.9296  0.7392
12442TIP3    H258742   4.148   5.137  12.862  0.0662 -1.2414  0.9065
12443TIP3   OH258743   1.593   0.531  16.995  0.2048 -0.0226 -0.5474
12443TIP3    H158744   1.520   0.586  17.024  0.1464 -0.8864  1.0148
12443TIP3    H258745   1.657   0.594  16.961 -0.0744  0.9836  0.7029
12444TIP3   OH258746   3.255   6.459   5.080 -0.4616  0.0514  0.0324
12444TIP3    H158747   3.344   6.449   5.114 -0.0042 -1.8869 -1.5254
12444TIP3    H258748   3.265   6.456   4.985 -2.1356  0.6199 -0.1975
12445TIP3   OH258749   2.086   0.069  13.379  0.3349  0.4812 -0.0463
12445TIP3    H158750   2.068   0.149  13.329 -0.3832 -0.1977 -0.9122
12445TIP3    H258751   2.055   0.089  13.467 -0.6567  0.8635 -0.4625
12446TIP3   OH258752   3.221   5.258  16.964  0.2319  0.7916 -0.4110
12446TIP3    H158753   3.192   5.238  16.875  1.3653  0.8575 -0.8105
12446TIP3    H258754   3.283   5.330  16.954  1.6991 -0.3347  0.2260
12447TIP3   OH258755   6.418   5.792   5.622 -0.1331  0.0441  0.0103
12447TIP3    H158756   6.391   5.700   5.630 -0.2223  0.1858  1.8010
12447TIP3    H258757   6.514   5.789   5.627 -0.1701  0.0963  0.8771
12448TIP3   OH258758   0.267   4.594   4.197 -0.1933  0.2251  0.3366
12448TIP3    H158759   0.309   4.678   4.180  0.2825 -0.2306 -0.8950
12448TIP3    H258760   0.296   4.569   4.284  3.4964 -0.8244 -1.0275
12449TIP3   OH258761   2.161   5.934  11.991  0.1424  0.0218  0.0743
12449TIP3    H158762   2.169   5.845  11.956 -1.1704  0.6089 -1.8798
12449TIP3    H258763   2.072   5.938  12.027  0.3786  0.4072  0.6379
12450TIP3   OH258764   2.270   4.576   3.834  0.0547  0.1328 -0.3157
12450TIP3    H158765   2.335   4.566   3.764 -0.7661  0.3125 -1.1333
12450TIP3    H258766   2.302   4.649   3.886  2.3054 -1.9136  1.3970
12451TIP3   OH258767   3.089   2.617  16.466  0.1483  0.1329  0.0570
12451TIP3    H158768   3.034   2.652  16.395 -2.9456 -1.4863  1.4847
12451TIP3    H258769   3.062   2.526  16.475 -0.1327  0.4360  3.7416
12452TIP3   OH258770   5.972   2.360  14.121 -0.2850  0.3880 -0.2793
12452TIP3    H158771   5.990   2.417  14.045 -0.4551  1.0754  0.1848
12452TIP3    H258772   6.027   2.395  14.190  0.9002 -1.0861 -0.4450
12453TIP3   OH258773   2.188   3.277  11.067 -0.1117 -0.0432  0.6032
12453TIP3    H158774   2.148   3.301  10.983  0.7706  1.3313  0.5553
12453TIP3    H258775   2.219   3.187  11.053  0.3913  0.3088 -0.6967
12454TIP3   OH258776   3.754   0.628  12.187 -0.1899 -0.1889 -0.4562
12454TIP3    H158777   3.734   0.550  12.136  0.9701 -0.0051 -1.2295
12454TIP3    H258778   3.843   0.614  12.219  0.1926  0.9593 -0.9406
12455TIP3   OH258779   5.621   3.218   1.746  0.0606 -0.0132  0.1001
12455TIP3    H158780   5.685   3.193   1.679 -0.2099 -0.6107  0.0572
12455TIP3    H258781   5.571   3.289   1.705  1.3613  1.1886  0.5267
12456TIP3   OH258782   0.037   4.034   3.192  0.0840 -0.1249 -0.1184
12456TIP3    H158783  -0.018   3.969   3.237  1.4824  0.7271  3.0850
12456TIP3    H258784   0.064   4.095   3.261  2.1545  1.5175 -2.2205
12457TIP3   OH258785   3.936   2.406   3.439 -0.1365 -0.4442 -0.3602
12457TIP3    H158786   4.018   2.407   3.488  0.1276 -3.3320 -0.5588
12457TIP3    H258787   3.868   2.426   3.504  0.5232 -0.4446  0.3386
12458TIP3   OH258788   4.860   5.720  14.571 -0.3569 -0.0114  0.1068
12458TIP3    H158789   4.933   5.688  14.518  0.4676  0.2081  1.0753
12458TIP3    H258790   4.805   5.768  14.509  1.6809  2.0910 -0.2564
12459TIP3   OH258791   6.612   4.943  10.674  0.0424  0.5303 -0.0915
12459TIP3    H158792   6.541   4.966  10.735 -1.9801 -2.3139 -1.1249
12459TIP3    H258793   6.590   4.991  10.594 -0.2820  0.3139 -0.1387
12460TIP3   OH258794   0.204   3.121   0.545 -0.3259 -0.0318 -0.1854
12460TIP3    H158795   0.209   3.092   0.636 -2.4956  0.5294  0.1619
12460TIP3    H258796   0.289   3.162   0.529  0.9266 -2.0512  0.8658
12461TIP3   OH258797   4.989   4.181   6.094  0.4750 -0.5361 -0.1833
12461TIP3    H158798   5.044   4.110   6.127 -0.2141 -1.5169 -1.0551
12461TIP3    H258799   5.034   4.213   6.016  0.5519 -0.3471 -0.0602
12462TIP3   OH258800   4.268   4.197   3.245  0.3178  0.0375 -0.0387
12462TIP3    H158801   4.362   4.194   3.261  0.7882  0.0587 -2.4770
12462TIP3    H258802   4.229   4.198   3.333  2.5171 -1.1699  1.0260
12463TIP3   OH258803   5.827   5.273   5.874  0.2473  0.4262  0.0226
12463TIP3    H158804   5.841   5.207   5.942  1.4197 -1.0321 -1.5293
12463TIP3    H258805   5.732   5.285   5.871 -0.2862 -2.8984 -1.0606
12464TIP3   OH258806   5.476   1.102   5.249 -0.8074 -0.0856  0.0411
12464TIP3    H158807   5.531   1.090   5.327 -1.5357 -0.0370  0.5665
12464TIP3    H258808   5.400   1.046   5.263 -0.4213 -0.9570 -1.1592
12465TIP3   OH258809   6.155   1.532   5.496 -0.3325 -0.1485  0.5060
12465TIP3    H158810   6.172   1.574   5.411 -1.0838 -1.4495 -0.3098
12465TIP3    H258811   6.242   1.519   5.534 -0.0040  0.7548  0.0987
12466TIP3   OH258812   0.225   0.661  15.498 -0.3222 -0.3005  0.2204
12466TIP3    H158813   0.294   0.626  15.441  0.6626  2.0996 -0.1822
12466TIP3    H258814   0.254   0.750  15.520 -3.1241  0.6985  0.3310
12467TIP3   OH258815   2.035   3.183   0.417  0.4384  0.2749 -0.4675
12467TIP3    H158816   2.089   3.137   0.353  3.0003 -1.2146  2.4566
12467TIP3    H258817   1.966   3.120   0.439  0.4876  0.1557 -0.6487
12468TIP3   OH258818   2.703   1.475  14.512 -0.3065  0.4646 -0.1295
12468TIP3    H158819   2.610   1.488  14.493  0.3341  0.6775 -3.6765
12468TIP3    H258820   2.721   1.386  14.481  0.6440  0.3189  0.7991
12469TIP3   OH258821   3.011   3.655  11.195  0.8128  1.2914 -0.0540
12469TIP3    H158822   2.987   3.707  11.272 -0.2068 -0.0639  0.5872
12469TIP3    H258823   3.077   3.594  11.227  1.0031  1.2826 -0.4611
12470TIP3   OH258824   1.141   3.906  13.461  0.0370 -0.3947  0.1543
12470TIP3    H158825   1.088   3.951  13.526 -1.1298  0.4318 -1.3004
12470TIP3    H258826   1.087   3.907  13.381  1.0266 -2.1451 -0.6024
12471TIP3   OH258827   2.854   0.839   0.344 -0.1619 -0.3335  0.2775
12471TIP3    H158828   2.925   0.823   0.281 -1.0139 -1.7071 -0.3750
12471TIP3    H258829   2.894   0.894   0.411  1.0837  0.2500 -0.8831
12472TIP3   OH258830   3.457   3.341  12.024  0.1615  0.2359  0.5656
12472TIP3    H158831   3.500   3.257  12.005 -1.3003 -0.3951 -0.0945
12472TIP3    H258832   3.395   3.320  12.093 -0.6551  0.6316 -0.0404
12473TIP3   OH258833   1.182   3.209  10.690 -0.4492  0.2102 -0.0707
12473TIP3    H158834   1.183   3.124  10.646 -1.4248  0.1410  0.0033
12473TIP3    H258835   1.154   3.189  10.779  2.0314  0.2834  0.8006
12474TIP3   OH258836   0.229   4.146  14.798  0.2193 -0.8621  0.6299
12474TIP3    H158837   0.261   4.161  14.709  1.4034 -0.2834  1.1252
12474TIP3    H258838   0.183   4.227  14.821  0.6270 -0.6846  0.8312
12475TIP3   OH258839   5.405   0.013   0.543 -0.1727 -0.1418 -0.2977
12475TIP3    H158840   5.350   0.091   0.552 -3.0576 -2.1689  1.3645
12475TIP3    H258841   5.428  -0.010   0.633 -0.7249 -2.0288 -0.6010
12476TIP3   OH258842   1.877   4.041  14.992 -0.4921  0.7824  0.0966
12476TIP3    H158843   1.921   4.126  14.993 -0.5438  0.8166  1.4066
12476TIP3    H258844   1.866   4.019  15.085  0.8987 -1.3593 -0.1732
12477TIP3   OH258845   4.222   4.134  15.350 -0.0247 -0.0519 -0.1274
12477TIP3    H158846   4.172   4.177  15.420  0.3112 -1.0518  0.7551
12477TIP3    H258847   4.269   4.206  15.307  1.7587  0.3674  2.3046
12478TIP3   OH258848   5.447   2.695  10.588  0.3171  0.0828  0.1545
12478TIP3    H158849   5.417   2.604  10.583  1.7880 -0.3691 -2.8484
12478TIP3    H258850   5.541   2.688  10.604  0.5893  1.0025 -0.9186
12479TIP3   OH258851   1.868   1.030  13.993  0.1279  0.0999  0.1654
12479TIP3    H158852   1.953   1.009  13.953  0.1883 -0.7243  0.6963
12479TIP3    H258853   1.833   1.101  13.940  1.6327  1.1986  0.5610
12480TIP3   OH258854   3.931   0.638   4.037 -0.0861  0.0581 -0.8913
12480TIP3    H158855   3.942   0.733   4.023 -0.7728  0.0890 -1.2935
12480TIP3    H258856   3.852   0.631   4.091  0.5427 -0.2473  0.0070
12481TIP3   OH258857   2.941   2.680   0.975  0.2435  0.0172 -0.3689
12481TIP3    H158858   3.020   2.640   0.937  0.7711 -0.2959  0.9919
12481TIP3    H258859   2.868   2.638   0.930  0.8356 -0.5819 -0.7878
12482TIP3   OH258860   2.013   3.486  14.128 -0.5546 -0.5473  0.2810
12482TIP3    H158861   2.031   3.453  14.040  0.8892  1.5251 -0.2763
12482TIP3    H258862   1.919   3.506  14.128 -0.3095  0.8799 -1.3836
12483TIP3   OH258863   4.366   2.148   4.300 -0.0156 -0.6332  0.6738
12483TIP3    H158864   4.356   2.174   4.208 -0.9679  1.7420  1.3832
12483TIP3    H258865   4.358   2.053   4.299  1.7999 -0.8811 -1.9085
12484TIP3   OH258866   1.731   3.374   5.463 -0.3156 -0.0293  0.1318
12484TIP3    H158867   1.666   3.307   5.441 -0.6182  0.1221  0.5416
12484TIP3    H258868   1.716   3.444   5.399 -0.0185 -0.3360 -0.2772
12485TIP3   OH258869   1.790   1.950  12.524  0.0496 -0.0977 -0.3670
12485TIP3    H158870   1.822   1.953  12.434 -0.7338 -0.6283 -0.6694
12485TIP3    H258871   1.697   1.932  12.516  0.2177 -1.5743  0.5934
12486TIP3   OH258872   5.717   4.763  11.848 -0.0910 -0.0300 -0.4079
12486TIP3    H158873   5.776   4.838  11.857  1.6856 -1.4384  0.3036
12486TIP3    H258874   5.744   4.721  11.767 -1.3535  0.2825 -1.0184
12487TIP3   OH258875   2.748   4.134  17.030 -0.4146  0.2640 -0.5606
12487TIP3    H158876   2.747   4.227  17.051  0.0427 -0.4033  3.0977
12487TIP3    H258877   2.656   4.109  17.023 -0.5366  0.9086 -1.4655
12488TIP3   OH258878   6.121   3.172   3.482 -0.3837 -0.6460 -0.1972
12488TIP3    H158879   6.094   3.164   3.390  1.1667 -1.7877 -0.5926
12488TIP3    H258880   6.195   3.233   3.479 -0.1086 -0.9571  0.2587
12489TIP3   OH258881   4.789   4.782   3.687  0.2247  0.0258  0.0455
12489TIP3    H158882   4.703   4.820   3.705  0.0785 -0.1949 -0.1941
12489TIP3    H258883   4.772   4.707   3.630  0.7473  1.1632 -1.6898
12490TIP3   OH258884   0.056   6.783  13.209  0.0050  0.0331 -0.2135
12490TIP3    H158885   0.068   6.742  13.123  2.5877 -0.7086  0.3982
12490TIP3    H258886   0.084   6.715  13.272  0.9946  1.5049  1.0103
12491TIP3   OH258887   5.751   3.408   4.991 -0.0992  0.8633 -0.0344
12491TIP3    H158888   5.720   3.483   4.940 -0.4087 -0.1633 -1.4161
12491TIP3    H258889   5.683   3.341   4.979  2.0128 -1.0940 -2.2881
12492TIP3   OH258890   4.809   3.411  14.517 -0.5624 -0.4527 -0.0442
12492TIP3    H158891   4.760   3.350  14.462 -0.2135 -1.0517  0.2970
12492TIP3    H258892   4.756   3.491  14.517 -1.6817 -1.1646  0.5106
12493TIP3   OH258893   4.076   2.142  14.980 -0.1561  0.0114 -0.0962
12493TIP3    H158894   4.003   2.117  15.037  0.5023 -0.0592  0.7350
12493TIP3    H258895   4.063   2.236  14.964  1.6818  1.0266  3.3428
12494TIP3   OH258896   4.476   0.457   2.993 -0.0395  0.2204 -0.2164
12494TIP3    H158897   4.465   0.478   3.086 -0.9941 -1.1550  0.0081
12494TIP3    H258898   4.393   0.482   2.953  0.2509  0.5051 -0.6373
12495TIP3   OH258899   2.030   2.525   5.976 -0.5406 -0.1338 -0.4773
12495TIP3    H158900   1.943   2.563   5.961 -0.2383  1.0495  0.6394
12495TIP3    H258901   2.085   2.600   5.999  0.7197 -0.9095 -0.8979
12496TIP3   OH258902   1.362   5.378  11.627 -0.4411  0.1650 -0.1566
12496TIP3    H158903   1.344   5.418  11.712  0.3083 -1.6088  0.8982
12496TIP3    H258904   1.393   5.290  11.648 -0.2040 -0.3179 -2.2816
12497TIP3   OH258905   2.752   5.503  15.906 -0.4454  0.3616 -0.1853
12497TIP3    H158906   2.733   5.473  15.817 -0.1141  1.6321 -0.7138
12497TIP3    H258907   2.706   5.587  15.913 -1.2216 -0.1534  1.1704
12498TIP3   OH258908   6.515   5.083   3.196 -0.4661 -0.4402 -0.0561
12498TIP3    H158909   6.509   5.010   3.134 -0.3286 -0.8543  0.4157
12498TIP3    H258910   6.519   5.161   3.141  1.4583 -0.8934 -0.6275
12499TIP3   OH258911   5.912   6.794  14.600 -0.2836  0.2623  0.0230
12499TIP3    H158912   5.980   6.752  14.548 -2.2002 -3.1049 -0.0177
12499TIP3    H258913   5.834   6.792  14.545 -1.7024 -0.9318  1.9440
12500TIP3   OH258914   0.900   2.793   2.923  0.1940  0.3908 -0.3586
12500TIP3    H158915   0.962   2.796   2.850  1.7620 -3.4716  0.5438
12500TIP3    H258916   0.929   2.863   2.982  0.4034  1.9888 -2.2734
12501TIP3   OH258917   5.118   6.250  13.171 -0.7441  0.3420 -0.1087
12501TIP3    H158918   5.112   6.258  13.075 -0.1786 -0.4773 -0.2276
12501TIP3    H258919   5.036   6.209  13.197  0.4564 -2.7848 -0.7005
12502TIP3   OH258920   5.651   6.384   6.368 -0.1325 -0.5643 -0.2481
12502TIP3    H158921   5.566   6.404   6.330  0.1601  1.4277  0.0140
12502TIP3    H258922   5.640   6.299   6.409 -2.1391 -0.1485  0.1803
12503TIP3   OH258923   1.373   5.583   1.871  0.1628 -0.1269  0.2580
12503TIP3    H158924   1.384   5.550   1.782  0.1485  0.8930 -0.1292
12503TIP3    H258925   1.451   5.636   1.888 -0.2930  0.4877  0.4839
12504TIP3   OH258926   6.147   3.247  16.931  0.0207  0.1420  0.6229
12504TIP3    H158927   6.231   3.294  16.929 -0.3745  0.8739  1.0131
12504TIP3    H258928   6.153   3.186  16.858  0.5040  0.8709  0.0392
12505TIP3   OH258929   5.737   3.171  13.625 -0.0429 -0.0810  0.4798
12505TIP3    H158930   5.678   3.160  13.700  0.4693  1.0836  1.0818
12505TIP3    H258931   5.821   3.196  13.664  0.4089 -0.1038 -0.4544
12506TIP3   OH258932   1.926   6.218  15.290 -0.1105  0.5186  0.8766
12506TIP3    H158933   1.978   6.290  15.327 -1.2134  1.7181  0.1845
12506TIP3    H258934   1.846   6.260  15.258 -0.2124 -0.8020 -0.7712
12507TIP3   OH258935   4.234   2.456   4.925  0.3139  0.3121  0.3770
12507TIP3    H158936   4.160   2.515   4.942  0.5661  0.7097  0.1072
12507TIP3    H258937   4.251   2.416   5.010  0.9681  1.5970  0.8837
12508TIP3   OH258938   5.925   5.523   1.979  0.2601  0.1374  0.3838
12508TIP3    H158939   5.901   5.478   2.060  0.7573 -1.9932 -0.5675
12508TIP3    H258940   5.842   5.548   1.939 -0.0830 -0.6097  0.6098
12509TIP3   OH258941   6.226   2.107   0.537 -0.1438  0.4506  0.5284
12509TIP3    H158942   6.286   2.035   0.516  0.2926  0.4999  1.5300
12509TIP3    H258943   6.142   2.064   0.554 -0.3351  0.3551 -0.6218
12510TIP3   OH258944   5.784   2.843  14.622  0.1686 -0.1380  0.8395
12510TIP3    H158945   5.763   2.834  14.715 -0.3605  0.1775  0.7543
12510TIP3    H258946   5.701   2.827  14.577  0.5592 -0.9781  0.3749
12511TIP3   OH258947   2.338   0.532   6.583 -0.0512  0.0232 -0.1518
12511TIP3    H158948   2.397   0.591   6.535 -0.2808  0.5046  0.1420
12511TIP3    H258949   2.252   0.550   6.546 -0.0432 -0.5542 -0.4604
12512TIP3   OH258950   1.882   1.563  15.914 -0.6400  0.7358 -0.1292
12512TIP3    H158951   1.836   1.505  15.853 -0.4127  0.4946 -0.0736
12512TIP3    H258952   1.837   1.647  15.905 -1.6940  0.2688  0.6046
12513TIP3   OH258953   3.633   2.785   1.135 -0.3012  0.2902  0.3664
12513TIP3    H158954   3.690   2.731   1.189 -2.1530 -0.9400  1.1677
12513TIP3    H258955   3.620   2.733   1.055 -1.1383  0.0449  0.6477
12514TIP3   OH258956   3.476   5.377  16.049  0.5053 -0.3750 -0.2790
12514TIP3    H158957   3.432   5.453  16.010 -0.2360  0.0188  1.2454
12514TIP3    H258958   3.405   5.316  16.070  0.7477 -0.1414  1.3425
12515TIP3   OH258959   3.766   6.270   1.527  0.2286 -0.1652  0.2186
12515TIP3    H158960   3.856   6.298   1.514  0.4178 -0.6059  0.5469
12515TIP3    H258961   3.749   6.209   1.456  0.4779 -0.7454  0.6508
12516TIP3   OH258962   0.893   1.341  13.181  0.6387 -0.0384  0.0008
12516TIP3    H158963   0.829   1.408  13.205  1.7613  0.7944  0.7490
12516TIP3    H258964   0.862   1.262  13.226 -0.4780  0.0572 -0.5664
12517TIP3   OH258965   1.291   1.473   2.308 -0.0821  0.2470 -0.0745
12517TIP3    H158966   1.375   1.446   2.270 -0.2469 -1.2339  0.5383
12517TIP3    H258967   1.307   1.562   2.340  1.0036  0.2980 -0.6943
12518TIP3   OH258968   5.857   2.568   2.800 -0.1988 -0.1241 -0.1589
12518TIP3    H158969   5.923   2.530   2.857  0.7316  0.2612 -0.9513
12518TIP3    H258970   5.892   2.653   2.775 -0.9825  0.0821 -0.6163
12519TIP3   OH258971   1.781   6.039  17.131 -0.7590  0.1052 -0.0898
12519TIP3    H158972   1.848   6.041  17.063  0.5582 -0.4687  1.1434
12519TIP3    H258973   1.828   6.059  17.212 -2.6202  2.6757  0.4637
12520TIP3   OH258974   5.781   5.336   1.521  0.0802  0.1374  0.1213
12520TIP3    H158975   5.811   5.410   1.469 -0.6759  1.4817  1.5179
12520TIP3    H258976   5.687   5.331   1.504  0.1292 -0.5387  0.0125
12521TIP3   OH258977   4.408   2.603   4.744  0.2070 -0.4895  0.4018
12521TIP3    H158978   4.477   2.546   4.778 -0.6420 -2.9475 -1.6704
12521TIP3    H258979   4.328   2.574   4.788  0.1162  0.7953  1.1183
12522TIP3   OH258980   4.810   6.248  12.294  0.5622 -0.0336 -0.2355
12522TIP3    H158981   4.883   6.280  12.347  0.8154 -0.2275 -0.4613
12522TIP3    H258982   4.843   6.251  12.204  0.2079  0.1013 -0.3616
12523TIP3   OH258983   1.190   1.376  12.205  0.4124  0.8972 -0.8874
12523TIP3    H158984   1.211   1.346  12.117  0.1447  0.2557 -0.7356
12523TIP3    H258985   1.197   1.298  12.260  0.8904  1.3559 -0.2808
12524TIP3   OH258986   3.419   5.511  15.547 -0.2041  0.7982 -0.3323
12524TIP3    H158987   3.478   5.437  15.532 -0.4294  0.2508  1.3439
12524TIP3    H258988   3.477   5.588  15.544  0.4432  0.3467  0.3628
12525TIP3   OH258989   2.905   5.182   3.946 -0.9309 -0.4856  0.3795
12525TIP3    H158990   2.994   5.192   3.914 -1.5485  2.1366 -0.7589
12525TIP3    H258991   2.915   5.134   4.029  1.1824 -2.8171 -1.0738
12526TIP3   OH258992   5.646   5.847   2.398 -0.7584 -0.5006 -0.5920
12526TIP3    H158993   5.688   5.874   2.316 -0.3682 -0.9880 -0.5555
12526TIP3    H258994   5.709   5.789   2.439 -0.7205  0.1782  0.3277
12527TIP3   OH258995   1.305   1.682  12.989  0.6707  0.2964 -0.1733
12527TIP3    H158996   1.375   1.745  12.971  0.2007  0.2341 -2.5159
12527TIP3    H258997   1.340   1.598  12.962  0.4647 -0.1026  0.7594
12528TIP3   OH258998   2.973   1.515  10.815  0.0328  0.1923 -0.4160
12528TIP3    H158999   2.908   1.466  10.765 -1.1217  0.9628  0.2977
12528TIP3    H259000   3.037   1.448  10.842 -2.4841 -1.4184  2.1748
12529TIP3   OH259001   6.695   6.493   5.386 -0.1675 -0.2680 -0.0352
12529TIP3    H159002   6.739   6.509   5.303  0.5338  0.5890  0.4782
12529TIP3    H259003   6.627   6.429   5.366  1.3062 -1.6235 -0.8456
12530TIP3   OH259004   5.131   2.146  13.416  0.3447  0.7153  0.6069
12530TIP3    H159005   5.161   2.106  13.334  0.1367  0.7965  0.4901
12530TIP3    H259006   5.060   2.205  13.389  0.3924  0.8736  0.8234
12531TIP3   OH259007   2.359   1.658  12.193 -0.8455 -0.2618  0.0167
12531TIP3    H159008   2.424   1.688  12.256 -0.7201 -0.2249 -0.1303
12531TIP3    H259009   2.296   1.729  12.187 -0.2665  0.1966 -0.7324
12532TIP3   OH259010   2.744   0.821  12.785 -0.1485  0.0358 -0.2469
12532TIP3    H159011   2.680   0.850  12.720  1.1720 -0.4878 -1.8532
12532TIP3    H259012   2.805   0.894  12.793 -0.8452  0.5051  1.2300
12533TIP3   OH259013   6.542   3.799  13.424  0.3562 -0.3431  0.0926
12533TIP3    H159014   6.483   3.739  13.378 -0.7445  0.6972  0.1035
12533TIP3    H259015   6.485   3.848  13.482  1.2369  0.7611  0.0492
12534TIP3   OH259016   5.617   0.693   5.142  0.1575  0.5690 -0.0943
12534TIP3    H159017   5.609   0.731   5.055 -0.1682  0.0766 -0.2832
12534TIP3    H259018   5.527   0.677   5.170  0.3018 -1.0966 -0.4836
12535TIP3   OH259019   3.039   0.683  15.646 -0.0729  0.0540 -0.5518
12535TIP3    H159020   3.091   0.614  15.687  0.4136 -0.3225 -1.7781
12535TIP3    H259021   2.984   0.716  15.717  2.1583  0.8027  0.9592
12536TIP3   OH259022   2.893   5.290   1.787 -0.1070  0.2723  0.1404
12536TIP3    H159023   2.818   5.240   1.756  1.2171 -0.8603 -1.4727
12536TIP3    H259024   2.871   5.316   1.876 -1.6339 -1.6057  0.3722
12537TIP3   OH259025   1.079   0.494  12.440  0.3223 -0.5123 -0.1526
12537TIP3    H159026   0.989   0.521  12.427 -0.0397 -1.8755 -0.6251
12537TIP3    H259027   1.079   0.448  12.524  0.8542  0.5683  0.4647
12538TIP3   OH259028   2.908   1.106   5.671 -0.3293  0.6326  0.3464
12538TIP3    H159029   2.923   1.143   5.585  0.4093 -0.1934  0.0937
12538TIP3    H259030   2.891   1.013   5.654 -0.9917  0.6197  1.0330
12539TIP3   OH259031   0.740   4.408  13.340 -0.2794  1.0957  0.2544
12539TIP3    H159032   0.662   4.399  13.395 -0.9517 -0.2838 -0.8685
12539TIP3    H259033   0.813   4.390  13.399 -0.8993  0.8344  0.9651
12540TIP3   OH259034   4.433   3.081  13.879 -0.5875  0.1943 -0.1279
12540TIP3    H159035   4.465   3.058  13.792 -2.2344 -2.3959 -0.1669
12540TIP3    H259036   4.358   3.138  13.862  2.7617  5.1830 -0.0650
12541TIP3   OH259037   1.766   1.407   0.047 -0.2829 -0.5978  0.1054
12541TIP3    H159038   1.674   1.436   0.048 -0.6590 -1.7293 -0.3909
12541TIP3    H259039   1.782   1.380  -0.043 -0.2138 -2.6414  0.6722
12542TIP3   OH259040   0.790   1.554  10.696  0.1297  0.3425  0.2313
12542TIP3    H159041   0.852   1.482  10.683  0.3311  0.1635  1.9798
12542TIP3    H259042   0.706   1.511  10.706  0.4402  0.1720  2.6915
12543TIP3   OH259043   1.312   6.325   2.677  0.6040 -0.1566  0.0973
12543TIP3    H159044   1.297   6.404   2.729  1.6659  0.0884  0.0545
12543TIP3    H259045   1.402   6.334   2.644  0.8923 -1.5422  0.4095
12544TIP3   OH259046   1.133   3.925   0.258 -0.6688  0.1202  0.3349
12544TIP3    H159047   1.129   3.937   0.353  2.1033  2.2515  0.3227
12544TIP3    H259048   1.146   4.014   0.224  2.5152 -0.9215 -1.6245
12545TIP3   OH259049   1.037   6.573  13.651  0.1129 -0.1344 -0.4512
12545TIP3    H159050   0.964   6.595  13.708  0.8004  0.9679  0.0380
12545TIP3    H259051   1.110   6.625  13.685  0.9395 -0.6770 -1.3577
12546TIP3   OH259052   2.711   2.187  13.802 -0.2906 -0.2620  0.1886
12546TIP3    H159053   2.637   2.248  13.800 -1.2434 -1.3625 -2.4862
12546TIP3    H259054   2.675   2.104  13.773  1.7804 -1.1100 -0.1272
12547TIP3   OH259055   5.572   1.427  16.713 -0.1926 -0.0395 -0.0348
12547TIP3    H159056   5.606   1.355  16.659  1.1485  0.7201 -0.2407
12547TIP3    H259057   5.571   1.503  16.654 -0.8372  0.3049  0.4070
12548TIP3   OH259058   2.976   6.737   4.505 -0.5133 -0.2725  0.0516
12548TIP3    H159059   2.894   6.781   4.527 -0.2480 -0.1323  0.8036
12548TIP3    H259060   3.044   6.799   4.530 -0.1467 -0.8879  0.6291
12549TIP3   OH259061   1.084   6.725   2.096  0.3981 -0.7143 -0.5839
12549TIP3    H159062   1.176   6.719   2.121  0.6381 -0.2263 -1.3062
12549TIP3    H259063   1.042   6.773   2.168  0.1887 -3.0514  0.9587
12550TIP3   OH259064   3.493   0.246  11.788 -0.1911  0.0125  0.3663
12550TIP3    H159065   3.530   0.296  11.717 -1.0524  1.8456  1.1443
12550TIP3    H259066   3.536   0.161  11.783  0.1044  0.2432 -2.0206
12551TIP3   OH259067   0.525   5.134  13.326 -0.2940 -0.0789  0.2023
12551TIP3    H159068   0.431   5.155  13.327 -0.7389 -1.8266  1.5901
12551TIP3    H259069   0.527   5.039  13.310  1.3605  0.2673 -1.9361
12552TIP3   OH259070   4.021   5.412   4.714 -0.9196 -0.0927  0.0978
12552TIP3    H159071   3.993   5.322   4.733 -0.8618 -0.5469 -1.8194
12552TIP3    H259072   4.080   5.404   4.639 -2.0531  1.6756 -1.0620
12553TIP3   OH259073   3.583   5.325   1.204  0.1399 -0.1882  0.0893
12553TIP3    H159074   3.518   5.326   1.275  1.0465 -1.3943  0.9754
12553TIP3    H259075   3.559   5.399   1.149  0.2825  1.7456  2.4458
12554TIP3   OH259076   5.124   3.769   2.819 -0.4930  0.1489 -0.2221
12554TIP3    H159077   5.211   3.729   2.819 -0.5755 -0.0402  0.4052
12554TIP3    H259078   5.084   3.738   2.737 -0.4097 -0.7439  0.0553
12555TIP3   OH259079   3.616   0.425   6.564 -0.5230  0.4578  0.1275
12555TIP3    H159080   3.603   0.513   6.529 -0.8859  0.8354  1.1966
12555TIP3    H259081   3.693   0.391   6.516  0.7235  2.0102  0.9479
12556TIP3   OH259082   4.061   4.798  11.966 -0.5649  0.1493  0.0746
12556TIP3    H159083   3.969   4.799  11.941 -0.7137 -0.1829  0.6199
12556TIP3    H259084   4.074   4.715  12.010 -0.5723  1.1565  2.0960
12557TIP3   OH259085   6.728   2.014   4.384 -0.1606  0.5853 -0.1827
12557TIP3    H159086   6.810   2.006   4.335  0.7696 -0.9041  1.5074
12557TIP3    H259087   6.675   1.939   4.356 -0.6331  1.0929 -0.6730
12558TIP3   OH259088   4.029   4.381  16.957  0.4235 -0.0535  0.2672
12558TIP3    H159089   4.086   4.307  16.980 -1.0913 -1.7012 -0.9541
12558TIP3    H259090   3.953   4.340  16.915 -0.3467  2.2437 -0.7393
12559TIP3   OH259091   0.972   5.963   2.935 -0.1430  1.5157 -0.1257
12559TIP3    H159092   0.912   6.029   2.899  0.4284  0.8245 -2.4962
12559TIP3    H259093   1.013   5.924   2.858 -0.5890 -1.7540  1.1484
12560TIP3   OH259094   4.726   0.180   0.971 -0.2808  0.6353 -0.3123
12560TIP3    H159095   4.700   0.149   0.884 -1.9507 -1.3583  0.7988
12560TIP3    H259096   4.773   0.107   1.010 -0.1509  1.2426  0.7020
12561TIP3   OH259097   6.489   2.538   1.566 -0.4158 -0.2206 -0.7954
12561TIP3    H159098   6.564   2.562   1.512 -0.1766 -0.5117 -0.6003
12561TIP3    H259099   6.429   2.493   1.506 -0.5736  0.2793 -1.0167
12562TIP3   OH259100   4.268   1.119   2.710  0.4875  0.3265 -0.1281
12562TIP3    H159101   4.283   1.200   2.661 -1.0208  0.1983 -0.8621
12562TIP3    H259102   4.290   1.049   2.648  3.1097  0.1165  0.9360
12563TIP3   OH259103   4.218   4.326   4.041  0.1336 -0.0568  0.2070
12563TIP3    H159104   4.277   4.401   4.042  0.0159  0.2076 -2.8489
12563TIP3    H259105   4.266   4.259   3.992 -0.9066 -0.9623  0.3883
12564TIP3   OH259106   0.465   1.972  15.510 -0.9263  0.5066 -0.3833
12564TIP3    H159107   0.434   2.003  15.424 -0.6298 -0.7413 -0.9686
12564TIP3    H259108   0.427   1.884  15.518 -0.9969  0.6335  0.8008
12565TIP3   OH259109   1.742   6.707   5.103 -0.0305 -0.3940 -0.1247
12565TIP3    H159110   1.732   6.790   5.058  0.1197 -0.3985 -0.1659
12565TIP3    H259111   1.732   6.641   5.034 -2.1848 -0.4900  0.2160
12566TIP3   OH259112   4.893   0.971   3.772  0.2989 -0.2444 -0.1529
12566TIP3    H159113   4.811   0.934   3.738 -0.5409  2.1704 -0.9533
12566TIP3    H259114   4.873   0.995   3.862  0.5163 -0.7186  0.0269
12567TIP3   OH259115   0.402   0.931   6.031 -0.0251 -0.7293  0.2771
12567TIP3    H159116   0.404   0.900   6.121  0.5918 -1.0665  0.1502
12567TIP3    H259117   0.447   1.016   6.034  3.0134 -2.1878 -0.2374
12568TIP3   OH259118   2.038   6.453  15.347 -0.1082  0.1463 -0.1267
12568TIP3    H159119   2.023   6.511  15.421  1.0059  0.5369 -0.1928
12568TIP3    H259120   2.071   6.511  15.278  2.2984 -0.7258  0.2209
12569TIP3   OH259121   5.315   0.612   6.306  0.7337  0.4215  0.1896
12569TIP3    H159122   5.306   0.706   6.293  0.4605  0.2651 -0.8996
12569TIP3    H259123   5.322   0.576   6.217  1.5803 -0.5163  0.6126
12570TIP3   OH259124   6.627   2.412  12.024  0.4537  0.1838  1.0593
12570TIP3    H159125   6.539   2.376  12.030  0.2494  0.3890 -0.3971
12570TIP3    H259126   6.672   2.356  11.961  0.3191  1.9975 -0.7622
12571TIP3   OH259127   2.317   5.544  15.623 -0.0137  0.2482  0.4281
12571TIP3    H159128   2.236   5.540  15.674  0.1779 -0.9208  0.6718
12571TIP3    H259129   2.319   5.460  15.576 -1.2844  2.0979 -3.2657
12572TIP3   OH259130   6.357   4.494   2.787  0.5856  0.1923  0.0544
12572TIP3    H159131   6.294   4.530   2.725  2.0053 -0.3587 -1.8174
12572TIP3    H259132   6.386   4.412   2.747  3.2753  0.9490  0.2092
12573TIP3   OH259133   5.989   6.621   1.599  1.0413 -0.1121  0.3427
12573TIP3    H159134   5.987   6.527   1.616 -1.3376 -0.0848  0.5830
12573TIP3    H259135   5.922   6.657   1.658  1.7151  1.7073  0.0585
12574TIP3   OH259136   1.897   5.684   4.133  0.3542 -0.1024 -0.3127
12574TIP3    H159137   1.883   5.626   4.058  0.5422  0.7189 -1.0006
12574TIP3    H259138   1.949   5.756   4.098  0.2637  0.4025  0.5617
12575TIP3   OH259139   1.004   2.141   1.433  0.2896 -0.0314  0.2951
12575TIP3    H159140   0.914   2.148   1.464  0.0492 -1.3546 -0.0267
12575TIP3    H259141   1.057   2.149   1.512 -0.2572 -2.1853  0.9462
12576TIP3   OH259142   5.466   6.149  16.133  0.6984 -0.2292  0.3815
12576TIP3    H159143   5.395   6.183  16.079  0.6895 -0.7916  0.0261
12576TIP3    H259144   5.491   6.222  16.189 -0.7742 -0.2900  1.1667
12577TIP3   OH259145   5.240   2.325   0.215  0.2867 -0.3962  0.4784
12577TIP3    H159146   5.258   2.288   0.301 -1.7576  2.0283  2.0982
12577TIP3    H259147   5.155   2.288   0.191  0.4625 -0.4180 -0.1267
12578TIP3   OH259148   1.130   5.213  11.607 -0.2034 -0.6371 -0.9430
12578TIP3    H159149   1.046   5.224  11.652  1.1667 -0.2929  1.7574
12578TIP3    H259150   1.163   5.302  11.595  0.8182 -0.8330  0.2425
12579TIP3   OH259151   1.605   3.043   2.916 -0.1768 -0.3173 -0.1654
12579TIP3    H159152   1.669   3.048   2.845 -0.0802 -1.7082 -0.2103
12579TIP3    H259153   1.640   2.977   2.976 -0.4292  0.5893  1.0155
12580TIP3   OH259154   4.600   0.113   3.805 -0.0485  0.5608 -0.0074
12580TIP3    H159155   4.592   0.198   3.762  0.7002  0.4843 -0.3010
12580TIP3    H259156   4.534   0.059   3.761 -1.0858  1.1986  0.7287
12581TIP3   OH259157   0.738   0.951  16.718  0.1587  0.3778  0.1430
12581TIP3    H159158   0.669   1.014  16.698 -0.2516 -0.2003 -0.2783
12581TIP3    H259159   0.694   0.866  16.717  0.2635  0.1939  2.6507
12582TIP3   OH259160   3.940   0.346  12.472  0.5359 -0.9449 -0.1341
12582TIP3    H159161   3.917   0.439  12.473 -0.1282 -1.1096  0.4889
12582TIP3    H259162   3.997   0.335  12.548 -1.1641 -1.4719  1.1073
12583TIP3   OH259163   1.790   2.902  16.684  0.0858  0.0856 -0.2657
12583TIP3    H159164   1.786   2.926  16.776  0.5497  0.3412 -0.3128
12583TIP3    H259165   1.707   2.856  16.668 -0.5849  1.1751 -0.0485
12584TIP3   OH259166   1.636   4.738  14.997 -0.1398 -0.3122  0.0611
12584TIP3    H159167   1.640   4.658  15.050  1.0803  0.1991  0.7869
12584TIP3    H259168   1.549   4.774  15.015 -1.5150 -2.4606 -1.8289
12585TIP3   OH259169   6.559   4.989   5.333  0.2643 -0.0619 -0.3169
12585TIP3    H159170   6.503   4.950   5.267 -1.6932  2.0452 -0.0264
12585TIP3    H259171   6.612   5.053   5.285  0.4313 -0.0976 -0.1811
12586TIP3   OH259172   3.315   1.115   3.627  0.7056 -0.2366  0.0035
12586TIP3    H159173   3.322   1.029   3.585 -0.1744  0.0736 -0.8191
12586TIP3    H259174   3.391   1.164   3.595 -0.1898  0.1416 -1.6106
12587TIP3   OH259175   5.825   5.806  13.821 -0.0369  0.2181  0.1707
12587TIP3    H159176   5.884   5.751  13.872 -2.4215 -2.3512  0.4096
12587TIP3    H259177   5.841   5.781  13.730  2.5970  3.1424 -0.3062
12588TIP3   OH259178   1.378   1.588  14.500  0.1891 -0.7556  0.1167
12588TIP3    H159179   1.365   1.619  14.411 -1.0391 -1.0292  0.1852
12588TIP3    H259180   1.472   1.601  14.517  0.6850 -1.7903 -1.6248
12589TIP3   OH259181   2.410   3.810   2.931 -0.2162 -0.1344  0.1386
12589TIP3    H159182   2.484   3.847   2.979 -0.9632 -0.3578  1.5097
12589TIP3    H259183   2.447   3.737   2.882  0.2255 -1.3837  2.1843
12590TIP3   OH259184   2.434   4.090   5.284  0.3752  0.2290 -0.2833
12590TIP3    H159185   2.440   4.182   5.309 -2.6235 -0.0129  1.9351
12590TIP3    H259186   2.357   4.085   5.228 -0.2048 -1.0418  0.5727
12591TIP3   OH259187   4.628   6.369  11.717  0.1065  0.1247  0.1233
12591TIP3    H159188   4.541   6.330  11.720  0.9476 -1.8583  1.1166
12591TIP3    H259189   4.617   6.457  11.752 -1.6146  0.2071 -0.5435
12592TIP3   OH259190   2.092   2.201   1.016  0.1686 -0.2952 -0.1732
12592TIP3    H159191   2.138   2.270   0.968  0.2330  1.0215  1.7011
12592TIP3    H259192   2.162   2.145   1.050  0.3165  0.4573  0.8188
12593TIP3   OH259193   2.273   0.035  11.446 -0.3162 -0.0711 -0.6202
12593TIP3    H159194   2.215   0.080  11.384 -1.9015 -1.0578  0.0596
12593TIP3    H259195   2.359   0.072  11.430 -1.4429  3.0449 -0.2764
12594TIP3   OH259196   6.538   2.198   4.997  0.3939  0.2169 -0.4892
12594TIP3    H159197   6.554   2.292   5.004  0.7283  0.0780  0.8565
12594TIP3    H259198   6.554   2.165   5.085 -1.3021 -0.8619 -0.5552
12595TIP3   OH259199   3.991   1.996   0.149 -0.9568 -0.7562 -0.1786
12595TIP3    H159200   4.056   2.009   0.079 -1.3459 -0.3304 -0.4614
12595TIP3    H259201   3.945   2.080   0.155 -1.0880 -0.8673  0.4289
12596TIP3   OH259202   1.106   4.756  11.232 -0.4201 -0.1764  0.3296
12596TIP3    H159203   1.189   4.709  11.227 -0.3728 -0.0919  0.3065
12596TIP3    H259204   1.130   4.848  11.215 -0.5097 -0.1440  0.3801
12597TIP3   OH259205   6.472   4.642   5.321 -0.6134 -0.1045 -0.1004
12597TIP3    H159206   6.393   4.696   5.312 -2.4450 -2.2395  1.7398
12597TIP3    H259207   6.439   4.555   5.345  2.3107 -1.0060  1.1534
12598TIP3   OH259208   3.200   5.960   2.923 -0.1560  0.0105  0.1167
12598TIP3    H159209   3.262   5.891   2.899 -0.3520 -0.2553  0.3631
12598TIP3    H259210   3.126   5.913   2.962  0.8673  0.4791  2.8511
12599TIP3   OH259211   2.298   2.343  11.538 -0.0622  0.4771 -0.5053
12599TIP3    H159212   2.284   2.437  11.551 -2.1058 -0.0343  1.6884
12599TIP3    H259213   2.212   2.308  11.515  0.4588 -1.0029 -0.3077
12600TIP3   OH259214   1.589   0.005  15.971  0.7987  0.0298 -0.1393
12600TIP3    H159215   1.537   0.036  16.045  0.8171  0.1851 -0.1905
12600TIP3    H259216   1.535  -0.061  15.929  1.1252 -0.6506  0.4884
12601TIP3   OH259217   6.073   4.965   6.362  0.6819  0.4814 -0.3179
12601TIP3    H159218   6.160   4.984   6.328  1.1975  0.2603  0.8323
12601TIP3    H259219   6.078   4.874   6.391 -0.0938  0.3058 -0.7150
12602TIP3   OH259220   0.872   0.869  13.146  0.1739 -0.0467  0.0896
12602TIP3    H159221   0.779   0.891  13.147  0.6644  2.3627  0.1732
12602TIP3    H259222   0.903   0.892  13.233  0.8785 -0.6197 -0.0054
12603TIP3   OH259223   4.977   1.751   0.770  0.3472 -0.5890  0.1867
12603TIP3    H159224   4.949   1.759   0.861  0.1007  0.8165  0.0166
12603TIP3    H259225   4.980   1.657   0.754 -0.4919 -0.8475  1.3754
12604TIP3   OH259226   2.783   0.499   3.117  0.0817  0.2317 -0.3110
12604TIP3    H159227   2.837   0.438   3.068 -0.0919 -0.7927  0.7276
12604TIP3    H259228   2.845   0.560   3.156  0.2776  0.5716 -1.1430
12605TIP3   OH259229   6.046   5.226  17.172  0.3707 -0.2601  0.2799
12605TIP3    H159230   6.121   5.286  17.174  1.0849 -1.1367  0.3212
12605TIP3    H259231   6.079   5.145  17.211 -0.2242 -1.0794 -0.8848
12606TIP3   OH259232   5.480   2.661   3.114  0.1988 -0.2203  0.1603
12606TIP3    H159233   5.502   2.739   3.063 -1.0894 -0.1257 -0.2932
12606TIP3    H259234   5.388   2.644   3.092  0.1080 -1.1421  1.2020
12607TIP3   OH259235   3.198   0.719   3.144 -0.0192  0.4468  0.4765
12607TIP3    H159236   3.155   0.642   3.109  2.0311 -0.8050  0.5140
12607TIP3    H259237   3.292   0.703   3.129  0.4613  3.1726 -0.0127
12608TIP3   OH259238   1.668   3.926  14.590  0.3312  0.2714 -0.4047
12608TIP3    H159239   1.674   3.867  14.516  1.0191  0.6429 -0.6546
12608TIP3    H259240   1.574   3.939  14.604  0.1078 -1.9780  0.5639
12609TIP3   OH259241   6.254   1.491  11.562  0.2924 -0.2212  0.3866
12609TIP3    H159242   6.275   1.582  11.581 -0.1720  0.0150 -0.2264
12609TIP3    H259243   6.169   1.494  11.518  0.7660 -0.8690 -0.5937
12610TIP3   OH259244   4.959   3.692  14.939  0.0586 -0.1574 -0.1786
12610TIP3    H159245   4.987   3.731  14.857 -1.2640  1.2020 -0.0138
12610TIP3    H259246   4.869   3.663  14.923 -0.5493  0.9615  1.0383
12611TIP3   OH259247   1.279   6.766  16.876 -0.4072  0.4894  0.4597
12611TIP3    H159248   1.222   6.807  16.811 -0.5557 -0.1514  0.1795
12611TIP3    H259249   1.361   6.749  16.828 -0.7954 -0.7239  0.1983
12612TIP3   OH259250   1.006   0.267  16.372 -0.3689 -0.1293 -0.1086
12612TIP3    H159251   0.917   0.291  16.347 -0.4008 -2.3218 -2.4847
12612TIP3    H259252   0.995   0.207  16.446 -0.6858  1.2932  1.0366
12613TIP3   OH259253   0.528   0.423   1.277 -0.0142 -0.9551 -0.3570
12613TIP3    H159254   0.590   0.419   1.350  2.6931  0.0821 -2.3988
12613TIP3    H259255   0.488   0.510   1.284  0.2882 -0.8315 -0.1278
12614TIP3   OH259256   6.043   4.619  10.775 -0.3785  0.0502 -0.0624
12614TIP3    H159257   6.107   4.689  10.761  0.9002 -0.9604  0.5005
12614TIP3    H259258   6.030   4.580  10.689 -1.9961  1.6750 -0.6113
12615TIP3   OH259259   4.747   0.562  11.101  0.1791 -0.1032  0.0191
12615TIP3    H159260   4.826   0.538  11.052 -1.4924 -0.7446 -2.5183
12615TIP3    H259261   4.693   0.484  11.100 -1.2533  0.8466  0.1601
12616TIP3   OH259262   1.156   3.206   1.327  0.4097 -0.1166  0.1091
12616TIP3    H159263   1.248   3.225   1.312  0.7889 -2.3096 -0.7733
12616TIP3    H259264   1.150   3.179   1.418  0.8289 -0.7527 -0.0417
12617TIP3   OH259265   2.819   0.538  11.282  0.4028 -0.7806  0.1269
12617TIP3    H159266   2.769   0.610  11.243 -0.6062 -1.2776  0.4884
12617TIP3    H259267   2.860   0.494  11.207 -0.6214 -1.0559 -0.2902
12618TIP3   OH259268   1.747   1.310   5.969  0.3657  0.5158 -0.5960
12618TIP3    H159269   1.803   1.382   5.996 -1.4088  2.4906 -1.8658
12618TIP3    H259270   1.692   1.292   6.045  0.3768  0.9622 -0.4798
12619TIP3   OH259271   0.329   1.951   3.495 -0.0369  0.1124 -1.1589
12619TIP3    H159272   0.278   1.878   3.459  0.3053 -0.7829  0.0978
12619TIP3    H259273   0.354   2.003   3.419 -0.2325 -1.1164 -2.0913
12620TIP3   OH259274   3.246   2.851   0.993 -0.1502 -0.1228 -0.5738
12620TIP3    H159275   3.192   2.840   0.915 -0.0743  1.7152 -0.9442
12620TIP3    H259276   3.328   2.888   0.960 -0.7074  2.2236  0.4812
12621TIP3   OH259277   0.024   2.399   2.424 -0.1216 -0.5198 -0.1651
12621TIP3    H159278  -0.063   2.434   2.402  0.0524 -0.7725 -1.3126
12621TIP3    H259279   0.026   2.313   2.384  0.1937 -1.0622  0.9741
12622TIP3   OH259280   4.088   4.212  14.095  0.3097  0.7793 -0.0778
12622TIP3    H159281   4.131   4.294  14.120 -1.2431  1.8085 -0.6479
12622TIP3    H259282   4.039   4.235  14.016 -2.2603 -0.0053  1.2206
12623TIP3   OH259283   1.633   0.313  16.367 -0.3024  0.2898 -0.0413
12623TIP3    H159284   1.709   0.258  16.389 -1.4501 -0.5458  2.1263
12623TIP3    H259285   1.660   0.402  16.390  0.3116  0.1096 -0.0570
12624TIP3   OH259286   2.349   1.881   2.534 -0.0041  0.0038 -0.0021
12624TIP3    H159287   2.269   1.915   2.494  0.7036  0.7016 -0.8642
12624TIP3    H259288   2.319   1.838   2.614 -1.2446  0.1925 -0.3419
12625TIP3   OH259289   2.849   0.745  15.882 -0.3275  0.1232  0.3622
12625TIP3    H159290   2.816   0.686  15.949  0.9490  1.0058  1.8444
12625TIP3    H259291   2.820   0.832  15.909 -0.9993  0.3534 -1.0221
12626TIP3   OH259292   6.455   2.883  16.690 -0.1205  0.5185 -0.0798
12626TIP3    H159293   6.528   2.824  16.668 -1.1334 -0.5850 -0.5698
12626TIP3    H259294   6.497   2.967  16.707  1.9603 -1.1584  4.9520
12627TIP3   OH259295   5.929   3.886   5.618  0.1146 -0.0175 -0.3511
12627TIP3    H159296   6.013   3.864   5.578  0.3683  1.4629 -0.6993
12627TIP3    H259297   5.928   3.839   5.701  0.3827 -1.6738 -1.2482
12628TIP3   OH259298   5.370   5.541  10.587 -0.1182  1.1847 -0.3642
12628TIP3    H159299   5.337   5.525  10.498  2.1045  0.2692 -1.1015
12628TIP3    H259300   5.403   5.631  10.585  0.2308  1.0567 -0.5988
12629TIP3   OH259301   0.320   2.320  16.153  0.8276  0.7478 -0.2710
12629TIP3    H159302   0.348   2.293  16.240  0.6023 -1.2722 -0.7813
12629TIP3    H259303   0.326   2.416  16.155  4.2234  0.6629  0.8318
12630TIP3   OH259304   3.707   2.762  15.930  0.0270 -0.4658 -0.4561
12630TIP3    H159305   3.670   2.748  16.017  0.2498  0.0352 -0.2778
12630TIP3    H259306   3.640   2.811  15.883  0.8565  1.3551  0.1938
12631TIP3   OH259307   2.621   3.903   3.467 -0.6356 -0.7334  0.1061
12631TIP3    H159308   2.650   3.821   3.427  1.2915  0.3772 -0.8930
12631TIP3    H259309   2.688   3.967   3.444 -2.3765  1.2999  0.3195
12632TIP3   OH259310   2.663   3.125  12.008 -0.4589  0.0711  0.5155
12632TIP3    H159311   2.691   3.212  12.036 -0.3662 -0.2403  1.3976
12632TIP3    H259312   2.596   3.099  12.071  1.2446 -1.5129  1.7628
12633TIP3   OH259313   2.838   5.046   4.217 -0.1842  0.2559 -0.3632
12633TIP3    H159314   2.823   5.078   4.307  0.2179 -0.9820  0.1669
12633TIP3    H259315   2.751   5.035   4.181 -0.3509  0.8363 -0.1508
12634TIP3   OH259316   1.082   6.214  17.169  0.1035 -0.3614  0.1242
12634TIP3    H159317   1.161   6.267  17.179  1.4884 -1.9996 -1.4305
12634TIP3    H259318   1.041   6.247  17.089  0.2972 -0.8218 -0.1653
12635TIP3   OH259319   4.649   3.112  15.052 -0.4239 -0.7253  0.2302
12635TIP3    H159320   4.610   3.037  15.097  2.3082 -1.5651  1.3628
12635TIP3    H259321   4.693   3.074  14.976 -1.6283  0.1937 -0.9815
12636TIP3   OH259322   2.467   2.616   0.356 -0.0544  0.0181  0.1595
12636TIP3    H159323   2.390   2.670   0.340 -0.7515 -1.2299 -1.0344
12636TIP3    H259324   2.509   2.609   0.270 -0.4772 -1.9792  0.0608
12637TIP3   OH259325   2.047   2.608  17.007  0.3451  0.1502 -0.0043
12637TIP3    H159326   1.969   2.642  17.050  1.6480  1.9150  1.1528
12637TIP3    H259327   2.058   2.663  16.930  0.9114  0.5137  0.3263
12638TIP3   OH259328   3.977   0.967  11.835 -0.7410  0.0828  0.0305
12638TIP3    H159329   3.923   0.890  11.850  0.4295 -0.7923 -0.0823
12638TIP3    H259330   4.057   0.951  11.885  0.5105  0.1111 -1.8479
12639TIP3   OH259331   3.681   5.071   6.593  0.5037 -0.1500 -0.0567
12639TIP3    H159332   3.714   5.154   6.629  1.0965 -0.3031 -0.2288
12639TIP3    H259333   3.693   5.081   6.498 -0.4993  0.0198 -0.1739
12640TIP3   OH259334   0.817   1.436   4.421  0.5391 -0.0232  0.1399
12640TIP3    H159335   0.800   1.416   4.513 -1.4606 -0.6712 -0.3118
12640TIP3    H259336   0.806   1.352   4.376  1.9728  0.1923 -0.6529
12641TIP3   OH259337   6.157   0.852  12.200  0.1925  0.2665  0.1650
12641TIP3    H159338   6.244   0.876  12.235  0.4250 -2.5821  1.8647
12641TIP3    H259339   6.176   0.792  12.129 -0.3365 -1.0843  1.1309
12642TIP3   OH259340   6.028   3.398  13.967 -0.7047 -0.7812  0.2577
12642TIP3    H159341   6.053   3.483  13.930  0.5063 -1.7632 -1.3190
12642TIP3    H259342   6.019   3.340  13.891 -3.8799 -1.5491  1.0724
12643TIP3   OH259343   4.605   4.730  13.782 -0.6390  0.0473 -0.1194
12643TIP3    H159344   4.527   4.751  13.732  0.0084  0.9569 -0.7764
12643TIP3    H259345   4.655   4.812  13.784 -0.1374 -0.2670  1.0828
12644TIP3   OH259346   0.458   3.392   1.801 -0.3000 -0.5969 -0.3730
12644TIP3    H159347   0.460   3.303   1.837  1.2363 -0.3991  0.1077
12644TIP3    H259348   0.492   3.382   1.712  1.0909 -0.3582  0.0964
12645TIP3   OH259349   4.825   0.144  13.746 -0.1674  0.4968 -0.1536
12645TIP3    H159350   4.913   0.126  13.710  1.1820  0.4366  2.8796
12645TIP3    H259351   4.822   0.239  13.753 -0.5503  0.5257 -0.7061
12646TIP3   OH259352   0.750   5.910   2.532  0.4010 -0.0163  0.3005
12646TIP3    H159353   0.838   5.942   2.510  0.6885  0.1949  1.6833
12646TIP3    H259354   0.759   5.875   2.620 -0.3957 -2.0998 -0.4024
12647TIP3   OH259355   6.162   2.118   4.606 -0.2544  0.6084 -0.1772
12647TIP3    H159356   6.138   2.055   4.537  1.4585  0.1903 -0.4288
12647TIP3    H259357   6.080   2.162   4.626 -0.6930  1.4042 -3.1405
12648TIP3   OH259358   0.366   0.340   2.197 -0.4267  0.0280  0.4248
12648TIP3    H159359   0.439   0.297   2.243  1.5176  4.1369  1.6873
12648TIP3    H259360   0.398   0.355   2.108  0.5522  2.0430  1.0432
12649TIP3   OH259361   4.551   2.511  16.308  0.2232 -0.4292 -0.6332
12649TIP3    H159362   4.579   2.530  16.218  0.2375  1.1094 -0.3308
12649TIP3    H259363   4.548   2.597  16.351 -0.5292 -1.0547  0.6279
12650TIP3   OH259364   0.798   4.303  15.424 -0.4079 -0.2814  0.3653
12650TIP3    H159365   0.812   4.285  15.518  0.3180  0.3473  0.3871
12650TIP3    H259366   0.884   4.331  15.392 -0.3405 -1.6560 -0.7756
12651TIP3   OH259367   0.512   4.631   0.770 -0.3171  0.2122 -0.2267
12651TIP3    H159368   0.546   4.708   0.725  0.9477  0.4680  1.1050
12651TIP3    H259369   0.563   4.557   0.735  0.3653  0.3535  0.4540
12652TIP3   OH259370   0.259   2.035  12.602  0.6143 -0.0883 -0.0373
12652TIP3    H159371   0.216   1.968  12.549  0.0300  1.0284 -1.0101
12652TIP3    H259372   0.352   2.012  12.597  0.4634 -0.6216 -0.6524
12653TIP3   OH259373   5.132   1.494   4.969 -0.0980 -0.0677 -0.3753
12653TIP3    H159374   5.091   1.575   4.938  0.3999 -0.4742 -2.2173
12653TIP3    H259375   5.116   1.431   4.899 -0.0740 -1.4481  0.8243
12654TIP3   OH259376   2.137   6.468   2.261  0.2716  0.2826 -0.2326
12654TIP3    H159377   2.150   6.473   2.166  0.5964 -0.9614 -0.2813
12654TIP3    H259378   2.051   6.506   2.276 -0.2943 -0.5840 -1.1799
12655TIP3   OH259379   1.040   1.214   4.221 -0.4405 -0.0780 -0.1822
12655TIP3    H159380   0.984   1.177   4.289  0.1697  0.8163  0.8478
12655TIP3    H259381   1.093   1.141   4.191  0.0181 -0.2947  1.0708
12656TIP3   OH259382   6.558   0.425   5.449  0.3538 -0.5531  0.1946
12656TIP3    H159383   6.469   0.427   5.486 -1.5835 -1.2375 -3.8274
12656TIP3    H259384   6.577   0.331   5.441 -0.1119 -0.5162 -1.9723
12657TIP3   OH259385   6.769   5.600  15.239  0.1605  0.0203 -0.6795
12657TIP3    H159386   6.783   5.674  15.298 -3.6884  0.2242  0.2777
12657TIP3    H259387   6.814   5.625  15.158 -0.5110  3.2052 -0.2270
12658TIP3   OH259388   4.618   1.906   3.077  0.3007 -0.3798  0.2323
12658TIP3    H159389   4.538   1.870   3.039 -0.4886  1.2025  0.2854
12658TIP3    H259390   4.685   1.892   3.010 -0.4572 -0.0485 -0.6153
12659TIP3   OH259391   4.173   3.216  17.125  0.2645  0.1118  0.8153
12659TIP3    H159392   4.238   3.154  17.093 -0.3883  0.8520 -2.2166
12659TIP3    H259393   4.224   3.290  17.158  1.0376  0.4659 -1.0645
12660TIP3   OH259394   1.120   3.891  14.868  0.7198 -0.6031 -0.8243
12660TIP3    H159395   1.213   3.897  14.889  0.7928  1.1881 -1.5076
12660TIP3    H259396   1.080   3.966  14.912 -0.5601 -1.7757  0.1120
12661TIP3   OH259397   6.354   2.865  13.351 -0.3748  0.3095 -0.3891
12661TIP3    H159398   6.290   2.932  13.373 -0.3630 -0.4696  2.3529
12661TIP3    H259399   6.352   2.804  13.425  0.6137 -1.9769 -2.1263
12662TIP3   OH259400   1.559   6.410  12.990 -0.1875 -0.4148  0.1153
12662TIP3    H159401   1.582   6.473  13.058 -2.2731  0.8469 -0.2293
12662TIP3    H259402   1.575   6.457  12.908 -0.5398 -0.7927 -0.1735
12663TIP3   OH259403   5.613   3.918  16.231  0.5796  0.6166  0.2749
12663TIP3    H159404   5.648   3.938  16.318 -0.4168 -1.2485  1.1661
12663TIP3    H259405   5.679   3.862  16.191  0.5424  0.5672  0.2811
12664TIP3   OH259406   0.036   2.367   1.965 -0.0346  0.0770 -0.6365
12664TIP3    H159407  -0.015   2.409   1.896  0.5788 -1.0417 -1.7938
12664TIP3    H259408  -0.030   2.323   2.019 -0.5519  1.2707 -0.2464
12665TIP3   OH259409   1.052   3.327   2.656  0.1353  0.7693 -0.0812
12665TIP3    H159410   1.063   3.409   2.608  0.0621  0.2379 -1.0339
12665TIP3    H259411   0.978   3.284   2.613 -1.4850  1.3012  1.9923
12666TIP3   OH259412   1.469   0.277   0.713  0.2404  0.5669 -0.6953
12666TIP3    H159413   1.461   0.350   0.775  0.2345 -0.8382  1.0448
12666TIP3    H259414   1.539   0.304   0.654 -0.1626  2.2238 -0.4873
12667TIP3   OH259415   6.171   4.444  12.566  0.0010 -0.5564  0.0440
12667TIP3    H159416   6.232   4.475  12.633  0.9928 -2.1007 -0.0965
12667TIP3    H259417   6.084   4.457  12.604  0.5309 -0.9825  1.4589
12668TIP3   OH259418   2.544   6.491   5.692  0.0255  0.6567  0.0405
12668TIP3    H159419   2.634   6.459   5.694 -0.6208 -1.6191 -2.2563
12668TIP3    H259420   2.507   6.455   5.612 -2.8898  1.7212  0.7715
12669TIP3   OH259421   3.106   1.799   0.957  0.6082  0.3766 -0.3808
12669TIP3    H159422   3.026   1.852   0.950  0.0766 -0.0033  2.0980
12669TIP3    H259423   3.094   1.749   1.037  1.8028 -2.3675 -1.8081
12670TIP3   OH259424   0.012   4.190  14.504 -0.1850 -0.3061 -0.5778
12670TIP3    H159425   0.016   4.286  14.504  2.1412 -0.3164 -1.4518
12670TIP3    H259426  -0.075   4.169  14.470 -1.1321  1.4673  0.6478
12671TIP3   OH259427   4.924   0.202  12.566  0.7243  0.4116 -0.3705
12671TIP3    H159428   4.981   0.279  12.570  0.9581  0.3033 -1.3080
12671TIP3    H259429   4.844   0.234  12.525  1.2138 -0.0459 -1.7423
12672TIP3   OH259430   5.246   0.329  12.679 -0.3845 -0.3391  0.1576
12672TIP3    H159431   5.254   0.253  12.621 -0.4534 -1.6827  1.8121
12672TIP3    H259432   5.336   0.358  12.692 -0.1020 -1.6736  1.3981
12673TIP3   OH259433   1.173   1.747   6.362 -0.0527  0.0559  0.1628
12673TIP3    H159434   1.246   1.749   6.424  0.7185  0.1940 -0.7426
12673TIP3    H259435   1.167   1.656   6.334 -0.8518 -0.1511  0.9410
12674TIP3   OH259436   6.439   4.842  12.702 -0.3492  0.8714  0.0183
12674TIP3    H159437   6.368   4.787  12.669  0.2141 -0.8681  1.5260
12674TIP3    H259438   6.518   4.807  12.662 -0.0567  1.0895  0.3943
12675TIP3   OH259439   2.296   4.556  11.327  0.3870  0.0848  0.2871
12675TIP3    H159440   2.386   4.526  11.338  0.7190  0.9582  0.0121
12675TIP3    H259441   2.298   4.609  11.247 -0.4645 -0.2494  0.0347
12676TIP3   OH259442   5.620   1.336   4.360  0.2408 -0.1898  0.0955
12676TIP3    H159443   5.640   1.383   4.441 -1.4366 -1.3788  1.2671
12676TIP3    H259444   5.577   1.402   4.305 -2.9411 -0.3640  2.0686
12677TIP3   OH259445   6.364   1.125  16.634 -0.7803 -0.0560 -0.0247
12677TIP3    H159446   6.420   1.114  16.557 -0.1561 -1.1709  0.5548
12677TIP3    H259447   6.393   1.207  16.673  0.3544 -0.5325  0.1738
12678TIP3   OH259448   6.556   6.625   6.355  0.2874  0.1551  0.7290
12678TIP3    H159449   6.537   6.711   6.392 -1.3128 -0.9336  2.6404
12678TIP3    H259450   6.539   6.564   6.427 -1.8563 -2.0581 -1.4764
12679TIP3   OH259451   5.467   0.642  15.649  0.6273 -0.1745  0.1006
12679TIP3    H159452   5.504   0.618  15.735  2.2716 -1.3281 -0.8761
12679TIP3    H259453   5.527   0.708  15.616  1.7015 -1.7624 -1.3227
12680TIP3   OH259454   5.870   3.816  13.983  0.0266 -0.6123  0.5256
12680TIP3    H159455   5.907   3.757  13.917  0.3017  0.2410 -0.0920
12680TIP3    H259456   5.786   3.776  14.006 -1.4186  0.4545 -2.3858
12681TIP3   OH259457   3.506   4.940  11.335  1.0314 -0.1869  0.1459
12681TIP3    H159458   3.547   4.898  11.410 -0.2283  0.2863  1.1276
12681TIP3    H259459   3.557   5.020  11.321  1.6370 -0.5716  0.0913
12682TIP3   OH259460   1.561   1.900  16.535 -0.4920 -0.2119 -0.1711
12682TIP3    H159461   1.526   1.926  16.450 -0.8155  0.7311  0.2340
12682TIP3    H259462   1.495   1.930  16.598 -0.1605 -0.7183  0.4289
12683TIP3   OH259463   6.624   1.442   1.019 -0.7138 -0.2894 -0.7725
12683TIP3    H159464   6.622   1.486   1.104 -2.7979  0.2063 -1.0194
12683TIP3    H259465   6.716   1.418   1.007  0.2541  2.5146  0.1427
12684TIP3   OH259466   4.435   0.511  13.542  0.1550  0.4074  0.0283
12684TIP3    H159467   4.446   0.488  13.634 -2.7687  0.9496  0.5864
12684TIP3    H259468   4.446   0.428  13.495 -2.1385 -0.6632  1.2534
12685TIP3   OH259469   5.157   2.029  13.184  0.2821  0.2754  0.7700
12685TIP3    H159470   5.245   2.031  13.147 -1.4105 -0.1346 -4.0531
12685TIP3    H259471   5.142   1.937  13.206  0.7448  0.1772  0.6862
12686TIP3   OH259472   5.377   3.132  16.512 -0.3137  0.4186 -0.0908
12686TIP3    H159473   5.427   3.057  16.479  1.3889  1.2765  0.4259
12686TIP3    H259474   5.329   3.165  16.435 -0.3722 -0.6365 -0.5227
12687TIP3   OH259475   5.054   0.732  15.058  0.0285  0.3730  0.1511
12687TIP3    H159476   5.131   0.682  15.032  1.2050  1.8654  0.6321
12687TIP3    H259477   4.981   0.673  15.042  1.1844 -0.7973 -1.1031
12688TIP3   OH259478   5.918   1.614   5.663 -0.3784  0.1438  0.5684
12688TIP3    H159479   5.994   1.597   5.608 -1.7726 -1.0589 -1.1028
12688TIP3    H259480   5.901   1.531   5.707 -1.2730  0.1214  0.1986
12689TIP3   OH259481   0.044   2.787  13.832 -0.4258 -0.0940  0.0199
12689TIP3    H159482   0.052   2.873  13.791 -1.2457  0.1553  0.3412
12689TIP3    H259483   0.005   2.731  13.765  2.6099 -0.9979 -1.1477
12690TIP3   OH259484   0.670   1.042   3.717 -0.5786 -0.4110 -0.5727
12690TIP3    H159485   0.760   1.063   3.741 -0.3307 -0.4634 -1.4021
12690TIP3    H259486   0.621   1.042   3.799 -0.6974  3.6788 -0.4835
12691TIP3   OH259487   6.485   5.961  10.989 -0.3103  0.0820 -0.0632
12691TIP3    H159488   6.480   5.927  10.900 -0.5638 -0.0308 -0.0083
12691TIP3    H259489   6.577   5.987  11.000 -0.7037  2.2123 -1.1432
12692TIP3   OH259490   0.536   6.304  12.566  0.4014  0.2176 -0.4414
12692TIP3    H159491   0.629   6.282  12.568  0.4325  0.1255 -1.9871
12692TIP3    H259492   0.526   6.362  12.490 -1.1258 -1.4476 -1.6004
12693TIP3   OH259493   4.009   5.618  13.720 -0.4887 -0.1441 -0.2984
12693TIP3    H159494   4.076   5.628  13.652  0.1878 -1.3167  0.1633
12693TIP3    H259495   4.031   5.685  13.785 -0.3700  0.1406 -0.6266
12694TIP3   OH259496   2.583   5.111   2.296 -0.1409  0.1381 -0.2124
12694TIP3    H159497   2.676   5.133   2.293  0.1833 -1.2544 -1.3612
12694TIP3    H259498   2.576   5.028   2.249 -2.0054  0.3224 -0.3504
12695TIP3   OH259499   1.036   0.613   1.001 -0.1403 -0.4001 -0.4168
12695TIP3    H159500   1.100   0.610   0.930 -0.1649  0.0893 -0.4659
12695TIP3    H259501   0.951   0.602   0.958 -0.1383 -0.3243 -0.4415
12696TIP3   OH259502   6.077   5.535  11.277  0.4017  0.7788  0.0840
12696TIP3    H159503   6.153   5.484  11.304  0.8784  1.5053  0.1459
12696TIP3    H259504   6.005   5.501  11.331  0.7264  0.2493  0.1945
12697TIP3   OH259505   5.483   5.248  15.676  0.1097  0.2532 -0.1293
12697TIP3    H159506   5.405   5.192  15.675 -1.2739  2.0818  0.1979
12697TIP3    H259507   5.512   5.250  15.585  2.0716 -3.3479  0.2313
12698TIP3   OH259508   6.343   4.737   6.400  0.5559  0.4153  0.0240
12698TIP3    H159509   6.370   4.645   6.404  1.5790  0.6151 -1.4309
12698TIP3    H259510   6.410   4.779   6.346  0.0964  2.0228  0.6456
12699TIP3   OH259511   2.457   1.283  13.383  0.2332 -0.3225 -0.4275
12699TIP3    H159512   2.365   1.257  13.390  0.1796 -0.2108 -0.7168
12699TIP3    H259513   2.487   1.287  13.474  0.3999 -1.9426 -0.3872
12700TIP3   OH259514   3.398   6.328   1.988  0.0493 -0.1594  0.0877
12700TIP3    H159515   3.334   6.274   2.035  0.3091 -0.3570  0.2206
12700TIP3    H259516   3.346   6.383   1.930 -0.2472 -0.2419  0.2744
12701TIP3   OH259517   0.868   5.799   5.106  0.0639  0.0148  0.4353
12701TIP3    H159518   0.836   5.863   5.043  1.1649  1.3526  1.1952
12701TIP3    H259519   0.950   5.768   5.068 -1.7835 -3.2333 -1.3931
12702TIP3   OH259520   1.498   3.344  13.230  0.0279  0.5114  0.0028
12702TIP3    H159521   1.490   3.440  13.235 -0.6666  0.6474 -2.2682
12702TIP3    H259522   1.574   3.330  13.174  0.0043 -0.2701  0.1614
12703TIP3   OH259523   6.522   1.025   4.360  0.9528 -0.3438 -0.2125
12703TIP3    H159524   6.486   0.989   4.280 -0.2905 -1.3730  0.7644
12703TIP3    H259525   6.616   1.031   4.344  0.8328 -1.4334 -1.3985
12704TIP3   OH259526   1.857   0.609   6.128  0.0481  0.1358 -0.1506
12704TIP3    H159527   1.944   0.570   6.140 -0.9659 -2.2607 -0.0575
12704TIP3    H259528   1.798   0.535   6.126 -1.9563  1.6723 -0.9229
12705TIP3   OH259529   4.602   5.616  16.469  0.1896 -0.1741 -0.1901
12705TIP3    H159530   4.595   5.703  16.428  0.2769 -0.7139 -1.3923
12705TIP3    H259531   4.559   5.557  16.408 -1.9751 -0.6806  1.7159
12706TIP3   OH259532   5.950   6.562   0.266 -0.0773 -0.0834  0.2185
12706TIP3    H159533   5.944   6.489   0.204 -1.9831 -0.3389  0.6488
12706TIP3    H259534   5.949   6.520   0.352 -3.3597  0.4163  0.5562
12707TIP3   OH259535   0.807   4.212   3.016 -0.2335  0.0722  0.6982
12707TIP3    H159536   0.840   4.136   2.968 -0.0225 -0.0106  0.9700
12707TIP3    H259537   0.837   4.198   3.106 -1.9640 -0.5860  1.2245
12708TIP3   OH259538   3.378   5.785   3.903 -0.5997 -0.2327 -0.3379
12708TIP3    H159539   3.295   5.753   3.869 -0.2525 -0.6060 -0.8426
12708TIP3    H259540   3.398   5.726   3.976 -1.5341  0.8018  0.8015
12709TIP3   OH259541   1.100   2.941   4.845 -0.0721 -0.6805  0.1184
12709TIP3    H159542   1.057   2.908   4.766 -0.3628  0.6730 -0.3165
12709TIP3    H259543   1.169   2.999   4.812  0.0261 -0.3654  0.8530
12710TIP3   OH259544   4.163   3.354  16.254 -0.0459 -0.3673  0.1096
12710TIP3    H159545   4.195   3.439  16.285  0.3461 -0.5665  0.2611
12710TIP3    H259546   4.199   3.291  16.316  1.4844 -0.8705 -1.2092
12711TIP3   OH259547   1.510   0.848   5.587 -0.2778 -0.1779 -0.4103
12711TIP3    H159548   1.544   0.924   5.540  0.8336 -2.0514 -2.8019
12711TIP3    H259549   1.415   0.857   5.580 -0.1808 -0.5090 -3.3896
12712TIP3   OH259550   4.654   1.526   5.114  0.2905 -0.2717 -0.0472
12712TIP3    H159551   4.603   1.584   5.170  0.2292 -1.0901  0.7708
12712TIP3    H259552   4.714   1.584   5.067  1.1695  0.3533  1.7381
12713TIP3   OH259553   0.682   2.209  13.885  0.2612  0.2803  0.2191
12713TIP3    H159554   0.736   2.256  13.948  0.4020  1.9466 -1.0780
12713TIP3    H259555   0.652   2.276  13.824 -2.5431 -0.7349  0.3372
12714TIP3   OH259556   0.836   4.187  12.974  0.0745 -0.0263  0.6939
12714TIP3    H159557   0.801   4.179  12.886 -0.1383  0.5128  0.7249
12714TIP3    H259558   0.807   4.107  13.019 -0.0209 -0.1882  0.3474
12715TIP3   OH259559   2.602   0.001   5.649  0.6779 -0.0784  0.5032
12715TIP3    H159560   2.593  -0.093   5.665 -1.4771  0.2860  1.9262
12715TIP3    H259561   2.696   0.016   5.649  1.0691 -2.1458  0.8190
12716TIP3   OH259562   4.639   5.743   4.410  0.0700 -0.2353  0.4280
12716TIP3    H159563   4.594   5.813   4.364 -2.6296 -2.0106  0.1378
12716TIP3    H259564   4.684   5.694   4.341  1.0024  0.5038  0.4920
12717TIP3   OH259565   3.993   4.966   1.891 -0.0999  0.2699 -0.7694
12717TIP3    H159566   4.025   4.880   1.865 -2.1239 -0.7744  0.0182
12717TIP3    H259567   4.004   4.968   1.986 -0.1693  0.8495 -0.7703
12718TIP3   OH259568   6.514   4.963   0.583 -0.1769 -0.3495  0.4014
12718TIP3    H159569   6.449   4.907   0.627  1.1457 -2.2743  0.0559
12718TIP3    H259570   6.585   4.970   0.647 -0.2512  0.8528  0.3705
12719TIP3   OH259571   4.336   0.368  11.852 -0.2895  0.7771  0.3964
12719TIP3    H159572   4.275   0.341  11.921 -0.8793 -0.1789 -0.4821
12719TIP3    H259573   4.407   0.412  11.899 -1.2652  1.2090  1.5059
12720TIP3   OH259574   5.541   6.586  14.645  0.3675  0.3139  0.4264
12720TIP3    H159575   5.613   6.616  14.588 -0.7040  0.8073 -0.7047
12720TIP3    H259576   5.462   6.620  14.603 -0.7770 -2.3596  0.2346
12721TIP3   OH259577   2.512   5.780  13.184  0.1139  0.1521  0.1500
12721TIP3    H159578   2.479   5.723  13.253  0.2792 -0.0290  0.0834
12721TIP3    H259579   2.436   5.830  13.155  0.1090  0.4605  0.6838
12722TIP3   OH259580   5.114   1.106  12.180 -0.3693 -0.3938  0.4275
12722TIP3    H159581   5.125   1.028  12.234  1.7307  0.2104  0.9957
12722TIP3    H259582   5.105   1.178  12.243 -0.7095  0.0029 -0.0647
12723TIP3   OH259583   1.934   4.548  15.667  0.2068 -0.3892 -0.0251
12723TIP3    H159584   1.941   4.482  15.736  0.4929  0.4814  0.8006
12723TIP3    H259585   1.985   4.513  15.594  1.2585 -0.5912  0.7968
12724TIP3   OH259586   6.674   3.447   6.320  0.2028 -0.2196  0.4280
12724TIP3    H159587   6.687   3.483   6.407  0.0632  1.1188 -0.0821
12724TIP3    H259588   6.743   3.487   6.266  0.2239 -0.9422 -0.0999
12725TIP3   OH259589   5.160   1.910  14.125 -0.1117 -0.2975 -0.8554
12725TIP3    H159590   5.203   1.989  14.157  1.5896 -1.3565 -0.3514
12725TIP3    H259591   5.067   1.926  14.136  0.2733  0.6365  1.6997
12726TIP3   OH259592   1.649   5.289   3.984  0.2323 -0.4195  0.0679
12726TIP3    H159593   1.678   5.373   3.948  0.6255 -0.0906  1.1199
12726TIP3    H259594   1.720   5.228   3.964  0.7984 -0.0593  0.9420
12727TIP3   OH259595   0.159   3.833   5.960 -0.4796 -0.0187  0.1454
12727TIP3    H159596   0.152   3.765   6.027  0.2065  1.2469  1.5351
12727TIP3    H259597   0.225   3.893   5.992 -0.0540  0.6004 -1.7288
12728TIP3   OH259598   2.476   6.242  16.279 -0.0150  0.2028  0.1066
12728TIP3    H159599   2.490   6.297  16.356 -1.9204  0.6650  0.1777
12728TIP3    H259600   2.543   6.271  16.217 -1.2733  3.0768 -0.0700
12729TIP3   OH259601   6.125   1.783  16.556 -0.2302 -0.5763  0.7478
12729TIP3    H159602   6.137   1.841  16.631  0.1756  0.8334 -0.3670
12729TIP3    H259603   6.057   1.722  16.584 -1.2012  0.8846  1.7135
12730TIP3   OH259604   1.452   5.921   0.702 -0.6306 -0.0776  0.2478
12730TIP3    H159605   1.370   5.969   0.690 -1.2558 -1.6082 -2.4150
12730TIP3    H259606   1.426   5.840   0.746 -0.4331 -0.2334  0.0784
12731TIP3   OH259607   4.006   4.327  11.872 -0.5062 -0.6563 -0.2452
12731TIP3    H159608   4.059   4.405  11.855 -0.8550 -0.0876  1.0794
12731TIP3    H259609   4.032   4.264  11.806  0.1445  0.4233 -1.0374
12732TIP3   OH259610   5.247   0.348  12.151 -0.2509  0.5610  0.3482
12732TIP3    H159611   5.159   0.372  12.178 -0.2201  1.0023  0.0763
12732TIP3    H259612   5.244   0.347  12.056  0.0238  0.5371  0.3383
12733TIP3   OH259613   4.770   4.213  11.482 -0.5189  0.3018  0.5143
12733TIP3    H159614   4.820   4.256  11.551  1.9335  0.0444 -0.9615
12733TIP3    H259615   4.761   4.280  11.414 -0.2528 -0.2931 -0.1234
12734TIP3   OH259616   5.381   4.788  11.940 -0.4688 -0.2660 -0.4959
12734TIP3    H159617   5.456   4.731  11.924  0.3028 -0.1054  2.1199
12734TIP3    H259618   5.325   4.739  12.001 -0.3809  1.2344  0.8624
12735TIP3   OH259619   3.611   2.068   4.860 -0.6934  0.1105 -0.6142
12735TIP3    H159620   3.606   2.092   4.952 -0.7770 -0.1368 -0.5538
12735TIP3    H259621   3.702   2.041   4.847 -0.2636  1.6230 -0.9744
12736TIP3   OH259622   5.490   3.562  12.108  0.4512 -0.3779  0.4056
12736TIP3    H159623   5.576   3.548  12.070  0.5856 -1.9641  1.1891
12736TIP3    H259624   5.430   3.515  12.050  0.2218 -0.0039  0.3353
12737TIP3   OH259625   2.153   4.868  11.858  0.0300 -0.1678 -0.0673
12737TIP3    H159626   2.149   4.954  11.901 -0.4404 -0.2460  0.0595
12737TIP3    H259627   2.063   4.852  11.830 -0.0825 -1.0200  0.7196
12738TIP3   OH259628   3.730   6.337   2.751 -0.0842  0.1939 -0.2168
12738TIP3    H159629   3.662   6.358   2.815  1.0311  1.7643  0.5352
12738TIP3    H259630   3.704   6.384   2.672 -0.3980 -0.0494 -0.2582
12739TIP3   OH259631   0.295   5.502   2.464 -0.1987 -0.5921  0.1404
12739TIP3    H159632   0.361   5.438   2.437 -0.5185 -0.4085 -1.1530
12739TIP3    H259633   0.336   5.551   2.534  1.4428  0.1373 -1.2539
12740TIP3   OH259634   6.001   4.921  14.727  0.2793  0.0807  0.2235
12740TIP3    H159635   6.001   4.955  14.817  0.3737 -2.7912  1.4334
12740TIP3    H259636   5.975   4.830  14.737  1.9502 -0.8042 -2.5155
12741TIP3   OH259637   6.271   1.489   0.432 -0.4496 -0.1681  0.3994
12741TIP3    H159638   6.191   1.436   0.423 -1.1883  1.1041 -0.8052
12741TIP3    H259639   6.274   1.542   0.352  0.8915  0.7675  1.0428
12742TIP3   OH259640   5.816   4.072  15.562  0.5704 -0.0604  0.2128
12742TIP3    H159641   5.808   4.040  15.472 -0.9744 -1.5362  0.8302
12742TIP3    H259642   5.792   4.164  15.557 -0.2914 -0.3233 -0.7716
12743TIP3   OH259643   1.368   5.700   6.383 -0.4675 -0.4492 -0.4635
12743TIP3    H159644   1.435   5.755   6.342 -0.0571 -0.5703  0.0207
12743TIP3    H259645   1.331   5.649   6.311  0.0606 -0.4789 -0.7229
12744TIP3   OH259646   6.725   2.728   3.310  0.2839 -0.2040 -0.2370
12744TIP3    H159647   6.716   2.805   3.253  1.3565  0.7205  0.7757
12744TIP3    H259648   6.817   2.729   3.337 -0.5064  0.3846  2.7979
12745TIP3   OH259649   2.432   6.077  15.309 -0.5318 -0.4940  0.1461
12745TIP3    H159650   2.336   6.072  15.314 -0.4499 -1.9329  0.4757
12745TIP3    H259651   2.459   5.992  15.276  0.6009  0.2125 -0.8354
12746TIP3   OH259652   5.429   5.434  14.643 -0.4528  0.0890  0.4293
12746TIP3    H159653   5.389   5.366  14.698 -0.7524 -1.0117 -1.0944
12746TIP3    H259654   5.509   5.392  14.609  0.1969  1.0682  0.7205
12747TIP3   OH259655   2.078   0.924   0.828  0.0756 -0.0318  0.2361
12747TIP3    H159656   2.099   1.016   0.816  2.7514 -0.4737  0.8579
12747TIP3    H259657   2.149   0.877   0.785 -0.9757 -1.8140  0.3286
12748TIP3   OH259658   6.285   4.767   4.392  0.1070  0.0974  0.1691
12748TIP3    H159659   6.293   4.689   4.337 -2.1671 -0.8110  1.0025
12748TIP3    H259660   6.374   4.783   4.423  0.7688 -1.7509 -0.5872
12749TIP3   OH259661   0.228   2.976  14.503 -0.0482 -0.7488  0.3222
12749TIP3    H159662   0.263   3.064  14.522  0.7402 -0.2167 -2.9490
12749TIP3    H259663   0.294   2.917  14.538  0.5808  0.0440  0.5210
12750TIP3   OH259664   1.329   2.120   2.536 -1.1648  0.2234 -1.2538
12750TIP3    H159665   1.253   2.081   2.579 -0.0695  0.3606  0.9392
12750TIP3    H259666   1.296   2.203   2.502 -2.3969 -0.4986 -1.8807
12751TIP3   OH259667   4.903   3.046  12.323 -0.3831 -0.1364  0.1889
12751TIP3    H159668   4.863   2.967  12.288 -0.7231 -0.0958  0.4756
12751TIP3    H259669   4.966   3.014  12.388 -0.7252 -0.1642  0.5104
12752TIP3   OH259670   1.732   5.061   2.781  0.0856  0.3545 -0.0559
12752TIP3    H159671   1.709   4.969   2.792 -0.8636  0.5197 -0.4861
12752TIP3    H259672   1.817   5.071   2.824  0.5015 -0.8570 -0.5648
12753TIP3   OH259673   5.490   5.959   1.979 -0.3486 -0.1360 -0.0034
12753TIP3    H159674   5.498   5.896   1.906  1.4705  1.4821 -1.3040
12753TIP3    H259675   5.407   6.003   1.963  0.4191  0.8296 -1.7472
12754TIP3   OH259676   2.605   4.339  12.245 -0.0302 -0.0976  0.0144
12754TIP3    H159677   2.622   4.253  12.208  0.1776 -1.2128  2.4749
12754TIP3    H259678   2.536   4.324  12.311  1.1459  1.2486  1.6500
12755TIP3   OH259679   2.847   3.064  16.828 -0.0501  0.1931 -1.1826
12755TIP3    H159680   2.905   3.115  16.884 -1.2062  0.6820 -0.3753
12755TIP3    H259681   2.785   3.129  16.793 -0.7223 -0.4480 -1.2062
12756TIP3   OH259682   3.170   1.247   5.812 -0.1821 -0.1083  0.1249
12756TIP3    H159683   3.109   1.175   5.801 -0.5180 -0.1473  1.9692
12756TIP3    H259684   3.183   1.253   5.907  1.1588  1.1560 -0.1090
12757TIP3   OH259685   6.383   2.923   2.450  0.1411  0.0881 -0.2717
12757TIP3    H159686   6.368   2.879   2.366  4.1824  1.0130 -1.7041
12757TIP3    H259687   6.334   3.004   2.444 -3.6998 -1.9556  0.5320
12758TIP3   OH259688   0.256   2.893   4.154  0.2505  0.1585 -0.4674
12758TIP3    H159689   0.201   2.842   4.095 -0.1215 -0.3451  0.2905
12758TIP3    H259690   0.297   2.828   4.211 -0.5482  0.7076  0.7864
12759TIP3   OH259691   3.027   3.415   1.734  0.2778 -0.2778  0.0747
12759TIP3    H159692   3.056   3.474   1.804 -0.6849 -0.7540  0.8997
12759TIP3    H259693   3.044   3.464   1.654  3.2202 -0.4619  0.4633
12760TIP3   OH259694   6.661   4.172   1.177 -0.8447  0.3987 -0.3218
12760TIP3    H159695   6.630   4.251   1.132 -2.4229 -0.2835 -0.5169
12760TIP3    H259696   6.691   4.114   1.106 -1.0959  0.2464 -0.3045
12761TIP3   OH259697   3.378   1.506  12.663 -0.0457 -0.4195  0.6896
12761TIP3    H159698   3.341   1.569  12.601  0.2453 -0.9498 -0.0345
12761TIP3    H259699   3.458   1.548  12.694  0.2492 -0.5064  0.0627
12762TIP3   OH259700   6.207   4.648   4.684 -0.1000  0.1334  0.5885
12762TIP3    H159701   6.161   4.579   4.636 -0.2029 -0.8546  2.0595
12762TIP3    H259702   6.254   4.697   4.616 -0.6762 -0.8792 -0.5712
12763TIP3   OH259703   1.611   0.031   0.793  1.0087 -0.1467 -0.2291
12763TIP3    H159704   1.667   0.083   0.851  1.3989  0.5163 -1.1744
12763TIP3    H259705   1.533   0.084   0.780  0.2247 -0.9799  0.9178
12764TIP3   OH259706   4.007   4.122   5.211  0.0495  0.4260 -0.5044
12764TIP3    H159707   4.091   4.076   5.219  0.2770  0.7277 -1.0682
12764TIP3    H259708   3.959   4.073   5.145 -1.1221 -1.0394  1.3334
12765TIP3   OH259709   4.635   1.943   6.755  0.4964  0.0596 -0.3420
12765TIP3    H159710   4.561   1.947   6.695  0.0012 -0.7708  0.2015
12765TIP3    H259711   4.698   1.885   6.712  0.8226  0.7212 -0.7774
12766TIP3   OH259712   5.061   5.651   3.747 -0.4714 -0.7802  0.6178
12766TIP3    H159713   4.970   5.663   3.720 -0.0576  0.2030 -0.4176
12766TIP3    H259714   5.108   5.633   3.666  0.2442 -1.4127  1.1599
12767TIP3   OH259715   1.771   3.984   0.437  0.5111  0.2916 -0.7137
12767TIP3    H159716   1.744   3.989   0.345  3.2678  1.1367 -1.5686
12767TIP3    H259717   1.734   4.063   0.477 -0.5106  0.0409 -1.1202
12768TIP3   OH259718   3.969   0.064   1.999 -0.5170  0.2852 -0.4008
12768TIP3    H159719   3.935   0.005   2.066  1.1124  1.0634  1.2140
12768TIP3    H259720   4.002   0.140   2.048  0.8538  0.8410 -2.0654
12769TIP3   OH259721   5.767   0.390   3.168 -0.0270 -0.1131  0.1464
12769TIP3    H159722   5.785   0.468   3.221 -2.3066 -0.2393  1.2184
12769TIP3    H259723   5.796   0.317   3.223  0.3502 -0.1191 -0.0562
12770TIP3   OH259724   0.560   3.206  11.022 -0.0741 -0.2232 -0.0434
12770TIP3    H159725   0.642   3.179  10.980 -0.4523 -0.4980 -0.6149
12770TIP3    H259726   0.549   3.145  11.094 -0.2192 -0.7322 -0.4926
12771TIP3   OH259727   5.550   4.232   3.780  0.3423  0.5785 -0.3983
12771TIP3    H159728   5.519   4.161   3.723  0.1695  0.3258  0.0082
12771TIP3    H259729   5.565   4.306   3.720  2.4111 -0.3693 -1.1407
12772TIP3   OH259730   3.359   5.539  13.268 -0.6622  0.3567  0.0301
12772TIP3    H159731   3.398   5.527  13.354 -1.8429  0.1330  0.5604
12772TIP3    H259732   3.430   5.519  13.207  0.1162  0.2346  0.9424
12773TIP3   OH259733   6.551   5.897  12.610 -0.1657 -0.2372  0.5643
12773TIP3    H159734   6.551   5.958  12.535  0.0072 -0.8306  0.0705
12773TIP3    H259735   6.635   5.914  12.654  0.8662 -1.5226 -0.7741
12774TIP3   OH259736   5.768   1.932   1.989  0.0020  0.0738  0.0068
12774TIP3    H159737   5.843   1.988   1.967  0.9332 -0.8237  0.7459
12774TIP3    H259738   5.694   1.971   1.943  1.0733  0.5608 -1.3797
12775TIP3   OH259739   5.150   1.246   1.311 -0.0517 -0.6654 -0.3372
12775TIP3    H159740   5.224   1.289   1.354  1.1497 -0.9078 -2.0376
12775TIP3    H259741   5.162   1.153   1.330 -1.2034 -0.5173  1.2227
12776TIP3   OH259742   4.006   6.276   4.256  0.0299 -0.2007  0.1981
12776TIP3    H159743   4.091   6.254   4.217  0.5551  0.8311  0.7314
12776TIP3    H259744   3.943   6.219   4.210  0.9730 -0.8491 -0.3257
12777TIP3   OH259745   0.645   4.030   6.256  0.2427  0.5981 -0.0617
12777TIP3    H159746   0.739   4.016   6.257  0.1092 -0.4433 -0.6061
12777TIP3    H259747   0.633   4.112   6.208  0.8205  0.1196 -1.0529
12778TIP3   OH259748   2.699   1.946  12.584  0.0114  0.0687  0.6192
12778TIP3    H159749   2.725   1.889  12.511  0.1996 -0.0918  0.8142
12778TIP3    H259750   2.730   1.901  12.662 -0.4868  0.0793  0.8266
12779TIP3   OH259751   2.150   1.820  16.073  0.1782 -0.3756  0.7505
12779TIP3    H159752   2.166   1.754  16.005  0.5226 -0.6817  1.1303
12779TIP3    H259753   2.236   1.837  16.111 -0.1620 -0.9588  1.8068
12780TIP3   OH259754   1.021   5.410  12.403 -0.5558 -0.0060 -0.3135
12780TIP3    H159755   1.014   5.403  12.498 -0.7579  2.1989 -0.1035
12780TIP3    H259756   1.102   5.459  12.389 -1.5423  1.4539 -1.1357
12781TIP3   OH259757   5.352   3.223   1.538  0.4527  0.2092  0.2625
12781TIP3    H159758   5.376   3.273   1.460  0.7664  0.3202  0.4316
12781TIP3    H259759   5.383   3.276   1.611  0.0720  0.1522  0.4671
12782TIP3   OH259760   0.190   1.245   6.002 -0.0314 -0.3231 -0.0671
12782TIP3    H159761   0.272   1.198   6.014  1.0710  0.7144 -2.8282
12782TIP3    H259762   0.214   1.324   5.954 -2.3975  1.0610  0.8151
12783TIP3   OH259763   1.542   5.494  12.288  0.9192  0.1452  0.3197
12783TIP3    H159764   1.569   5.490  12.196  0.5111 -0.3465  0.2206
12783TIP3    H259765   1.597   5.563  12.325 -1.2315  2.8051 -1.0700
12784TIP3   OH259766   5.428   2.497  16.459  0.0123  0.4821 -0.1349
12784TIP3    H159767   5.500   2.517  16.519  0.1707  1.6099 -0.6766
12784TIP3    H259768   5.412   2.579  16.413 -0.4786 -0.2228 -1.2507
12785TIP3   OH259769   2.168   5.363  16.648 -0.7787  0.2607 -0.2200
12785TIP3    H159770   2.088   5.408  16.624  0.1835  1.4434 -1.3914
12785TIP3    H259771   2.189   5.310  16.571 -1.4064 -1.5276  0.7944
12786TIP3   OH259772   0.431   5.557  14.555  0.2511  0.0592  0.0777
12786TIP3    H159773   0.365   5.608  14.508  0.2661  0.0713  0.0699
12786TIP3    H259774   0.514   5.585  14.518  0.1673 -1.2785 -1.2002
12787TIP3   OH259775   1.746   3.213   0.907  0.0601 -0.5143 -0.1666
12787TIP3    H159776   1.801   3.204   0.985  0.9875 -0.7454 -0.8228
12787TIP3    H259777   1.670   3.158   0.925  0.5665 -1.0746  0.3125
12788TIP3   OH259778   0.326   2.522  14.887  0.4467 -0.2082 -0.3304
12788TIP3    H159779   0.311   2.573  14.966  2.3864  0.4597 -0.3448
12788TIP3    H259780   0.340   2.587  14.818  0.0743 -0.7818 -0.9742
12789TIP3   OH259781   4.015   3.536   4.846 -0.0830 -0.0912 -0.3796
12789TIP3    H159782   4.077   3.464   4.841  0.0102  0.0228 -0.9884
12789TIP3    H259783   4.037   3.592   4.771 -1.0066 -0.1323 -0.7008
12790TIP3   OH259784   1.405   2.360   5.384 -0.1323  0.4731  0.1079
12790TIP3    H159785   1.335   2.410   5.426 -1.7474 -0.6881 -1.0887
12790TIP3    H259786   1.382   2.269   5.401  0.3369  0.0414 -1.4536
12791TIP3   OH259787   2.348   0.755  15.496 -0.4483 -0.3710  0.4207
12791TIP3    H159788   2.420   0.779  15.555  0.3310 -0.9114 -0.2832
12791TIP3    H259789   2.283   0.824  15.508  1.1819  1.4331 -0.6162
12792TIP3   OH259790   4.181   2.565   1.738 -0.4007  0.1408  0.0655
12792TIP3    H159791   4.167   2.646   1.786  0.2076  0.2293  0.1011
12792TIP3    H259792   4.093   2.537   1.713 -0.4983  2.6158 -2.9694
12793TIP3   OH259793   0.485   1.706  15.415  0.3702  0.0982  0.1282
12793TIP3    H159794   0.533   1.663  15.486  1.7899  0.0382 -0.8057
12793TIP3    H259795   0.552   1.757  15.369 -0.6536  0.7076 -0.7356
12794TIP3   OH259796   0.643   3.024   1.600  0.0168 -0.2220  0.4469
12794TIP3    H159797   0.590   3.076   1.540  1.0736 -0.3849 -0.6813
12794TIP3    H259798   0.585   2.954   1.629  0.0238 -1.3806 -2.0666
12795TIP3   OH259799   0.153   6.352   5.428  0.5162  0.1297 -0.2214
12795TIP3    H159800   0.101   6.288   5.478  0.9030 -0.5936 -0.7348
12795TIP3    H259801   0.123   6.341   5.338  0.0437  1.2167 -0.2152
12796TIP3   OH259802   0.986   6.150  15.591 -0.1730  0.5405 -0.5519
12796TIP3    H159803   1.071   6.176  15.557  0.5831 -1.0024  0.0628
12796TIP3    H259804   0.984   6.185  15.680  0.3724 -0.4628 -0.1241
12797TIP3   OH259805   2.842   2.004  10.953  0.2873 -0.5836  0.2865
12797TIP3    H159806   2.827   1.909  10.951 -0.7652 -0.4565 -2.8128
12797TIP3    H259807   2.928   2.015  10.912 -0.2697 -0.1308 -0.7768
12798TIP3   OH259808   3.123   1.828  12.328  0.6489  0.0280 -0.1324
12798TIP3    H159809   3.145   1.905  12.381 -0.8357  1.3737 -1.3488
12798TIP3    H259810   3.180   1.835  12.251  0.4290 -0.0054 -0.3019
12799TIP3   OH259811   5.320   1.401   6.699  0.1101  0.0644 -0.1731
12799TIP3    H159812   5.368   1.360   6.770  0.3980  0.9889  0.1792
12799TIP3    H259813   5.294   1.329   6.642 -0.6287 -0.7593  1.1682
12800TIP3   OH259814   4.278   2.600   4.466  0.3354 -0.0065 -0.8195
12800TIP3    H159815   4.303   2.536   4.400  0.0092  0.7989 -1.7482
12800TIP3    H259816   4.319   2.569   4.547 -0.9502 -2.1340 -0.9216
12801TIP3   OH259817   1.493   4.632  14.238 -0.4522  0.1388 -0.3453
12801TIP3    H159818   1.575   4.680  14.243 -0.8336  0.7556  0.1179
12801TIP3    H259819   1.519   4.540  14.232  0.2674  0.1813  1.4898
12802TIP3   OH259820   0.320   4.985  12.685  0.4671  0.1452 -0.4850
12802TIP3    H159821   0.272   5.063  12.657  0.4591 -0.0950 -1.1391
12802TIP3    H259822   0.390   4.975  12.621  1.2029  0.3019  0.2776
12803TIP3   OH259823   4.527   4.457  11.920 -0.4320  0.5277 -0.2377
12803TIP3    H159824   4.549   4.365  11.902  0.0417  0.3874  0.9260
12803TIP3    H259825   4.563   4.473  12.008 -2.0801  1.3043  0.3360
12804TIP3   OH259826   2.306   5.252  12.674  0.3378  0.0424  0.5728
12804TIP3    H159827   2.338   5.232  12.586 -1.2521  2.2347 -0.6245
12804TIP3    H259828   2.382   5.287  12.720  1.0569 -0.5807 -0.1112
12805TIP3   OH259829   3.628   0.350   5.860  0.2314  0.0597  0.7010
12805TIP3    H159830   3.715   0.311   5.861  0.8487  1.2915  3.3152
12805TIP3    H259831   3.643   0.443   5.873 -1.3756  0.7988 -1.9352
12806TIP3   OH259832   4.532   1.551   0.053  0.1342  0.1941 -0.1463
12806TIP3    H159833   4.533   1.479  -0.011  0.3049 -2.5112  2.6421
12806TIP3    H259834   4.445   1.591   0.042 -0.7822 -1.7690 -0.5056
12807TIP3   OH259835   3.742   2.370   4.343  0.4377 -0.8778 -0.1550
12807TIP3    H159836   3.830   2.399   4.317  0.9431 -1.6603  0.6496
12807TIP3    H259837   3.747   2.361   4.438 -0.2237 -1.8861 -0.2037
12808TIP3   OH259838   1.510   1.057  13.879 -0.3159  0.0630  0.3952
12808TIP3    H159839   1.587   1.081  13.828 -1.3702 -1.9308 -2.4351
12808TIP3    H259840   1.536   0.977  13.925 -0.4679 -0.2255 -0.0145
12809TIP3   OH259841   1.841   5.170   6.662 -0.1304 -0.5325 -0.0634
12809TIP3    H159842   1.876   5.085   6.688  3.1098  0.1929 -1.5512
12809TIP3    H259843   1.871   5.181   6.572 -3.0257  0.9833 -0.9770
12810TIP3   OH259844   3.464   0.469   3.693 -0.5847  0.0903 -0.4256
12810TIP3    H159845   3.430   0.446   3.606  2.1033 -0.9962 -1.2996
12810TIP3    H259846   3.524   0.397   3.715  1.4508  1.9987  0.7325
12811TIP3   OH259847   1.158   4.926   0.002  0.2785 -0.0880 -0.8281
12811TIP3    H159848   1.175   4.987  -0.069  1.3760  0.4003 -0.1678
12811TIP3    H259849   1.068   4.896  -0.013 -0.4247  1.9318 -0.9955
12812TIP3   OH259850   3.400   0.374   4.690 -0.2218 -0.2704  0.7195
12812TIP3    H159851   3.404   0.325   4.607  0.3581  1.9645 -0.6378
12812TIP3    H259852   3.487   0.411   4.700 -1.2033  2.2383  0.5445
12813TIP3   OH259853   0.702   0.412   1.021  0.3061 -0.4737 -0.0584
12813TIP3    H159854   0.757   0.366   1.084 -0.6938 -0.6767  0.6954
12813TIP3    H259855   0.621   0.432   1.069 -0.5534 -0.7817 -1.3105
12814TIP3   OH259856   0.225   1.658   4.542  0.9823  0.3457 -0.4343
12814TIP3    H159857   0.203   1.569   4.514 -0.2867  0.8287 -1.0455
12814TIP3    H259858   0.198   1.714   4.469 -2.0566  1.6217  1.4790
12815TIP3   OH259859   0.282   0.015  17.164 -0.3245 -0.1784  0.5186
12815TIP3    H159860   0.357  -0.036  17.132 -0.0386  0.2903  0.4423
12815TIP3    H259861   0.320   0.096  17.197 -1.0832  1.7957 -2.9482
12816TIP3   OH259862   5.835   2.962  15.965 -0.5165 -0.2971  0.7495
12816TIP3    H159863   5.870   2.873  15.959 -1.5144 -0.8309  2.3376
12816TIP3    H259864   5.761   2.961  15.904  1.0025  0.2930 -1.2300
12817TIP3   OH259865   5.587   2.423   0.393  0.1274  0.4065 -0.0277
12817TIP3    H159866   5.607   2.460   0.307  1.4767  1.0630  0.5437
12817TIP3    H259867   5.620   2.487   0.455 -0.1499 -0.4087  0.9923
12818TIP3   OH259868   2.178   3.285   2.362  0.2239 -0.1584 -0.4754
12818TIP3    H159869   2.190   3.297   2.268  1.1520  1.4134 -0.2078
12818TIP3    H259870   2.100   3.231   2.370  1.6530 -2.6578 -2.2015
12819TIP3   OH259871   3.808   5.088   4.882  0.6595 -0.5134 -0.1030
12819TIP3    H159872   3.819   5.158   4.947 -0.4293  1.1892 -1.6500
12819TIP3    H259873   3.893   5.045   4.879  0.8467 -0.4500  2.1884
12820TIP3   OH259874   0.445   3.890  13.873  0.4605 -0.1832  0.8715
12820TIP3    H159875   0.423   3.939  13.794  1.7087 -0.7406  0.1509
12820TIP3    H259876   0.399   3.936  13.943 -0.9712  0.1240 -0.2037
12821TIP3   OH259877   3.220   4.310  11.401 -0.6303 -0.0921 -0.0830
12821TIP3    H159878   3.157   4.261  11.347 -2.4931  0.7672  1.2040
12821TIP3    H259879   3.166   4.372  11.450  1.0270 -0.5177  2.4433
12822TIP3   OH259880   1.034   2.111   1.152  0.4020 -0.1270  0.0525
12822TIP3    H159881   0.987   2.187   1.116 -2.5051 -1.4464  0.7511
12822TIP3    H259882   0.999   2.102   1.241  0.0709 -2.6970 -0.2776
12823TIP3   OH259883   1.509   4.621   4.352 -0.1001 -0.0609  0.3115
12823TIP3    H159884   1.471   4.549   4.302 -1.5837  0.6752  0.3506
12823TIP3    H259885   1.549   4.678   4.287  1.0808 -0.8766  0.2790
12824TIP3   OH259886   5.827   5.847   4.310  0.4392  0.3400  0.3072
12824TIP3    H159887   5.787   5.803   4.235  0.5124 -0.7036  0.8542
12824TIP3    H259888   5.764   5.837   4.381  0.9708  0.0645  0.7562
12825TIP3   OH259889   3.505   1.081  11.518  0.1311 -0.2113  0.2559
12825TIP3    H159890   3.474   1.093  11.608  0.3020  0.0513  0.2815
12825TIP3    H259891   3.433   1.113  11.464 -0.2840 -1.0877  0.2829
12826TIP3   OH259892   5.224   6.037   1.982  0.3243  0.4476  0.7228
12826TIP3    H159893   5.154   5.985   2.022  0.8475  1.0891  2.5905
12826TIP3    H259894   5.192   6.127   1.986  0.2126  0.4977 -0.7696
12827TIP3   OH259895   2.075   5.587   2.658 -0.1992 -0.0058 -0.2817
12827TIP3    H159896   2.138   5.542   2.602  0.0468  1.6199 -1.3738
12827TIP3    H259897   2.077   5.538   2.740 -0.1346 -2.1022 -1.4596
12828TIP3   OH259898   4.614   2.642  10.607  0.0379 -0.3658 -0.1820
12828TIP3    H159899   4.632   2.676  10.694  1.6866 -1.3424 -0.1028
12828TIP3    H259900   4.683   2.678  10.551  0.1165 -1.2519 -0.6841
12829TIP3   OH259901   4.406   2.110   2.131  0.3405 -0.3618 -0.2878
12829TIP3    H159902   4.453   2.038   2.173  1.6397  2.4815  3.8192
12829TIP3    H259903   4.317   2.104   2.166  0.0109 -0.8530 -1.2023
12830TIP3   OH259904   2.628   6.392  13.048  0.1395 -0.7676  0.6412
12830TIP3    H159905   2.723   6.402  13.036  0.1419 -3.3688 -3.0615
12830TIP3    H259906   2.593   6.478  13.026  1.5280 -0.3241  0.0356
12831TIP3   OH259907   0.658   4.985  11.332  0.1010 -0.1228 -0.9105
12831TIP3    H159908   0.613   4.903  11.351 -0.2817  0.2763 -0.0241
12831TIP3    H259909   0.731   4.960  11.275  0.8316 -1.3099  0.4567
12832TIP3   OH259910   0.169   3.980  14.345  0.2637  0.1711  0.0912
12832TIP3    H159911   0.249   3.934  14.370  1.8596  1.9766 -1.4156
12832TIP3    H259912   0.149   4.037  14.420  1.3987  0.9716 -0.1991
12833TIP3   OH259913   0.504   1.524   4.524 -0.7589  0.8862  0.0748
12833TIP3    H159914   0.414   1.545   4.548  0.2509  2.6846  2.7771
12833TIP3    H259915   0.550   1.515   4.608  1.8731  1.4779 -1.1961
12834TIP3   OH259916   4.491   4.247  13.443 -0.1301 -0.1397 -0.0263
12834TIP3    H159917   4.514   4.154  13.449 -0.5151 -0.1408  2.0768
12834TIP3    H259918   4.475   4.274  13.533  0.3719  2.0881 -0.5384
12835TIP3   OH259919   1.470   2.074   0.863  0.7241  0.1951  0.4121
12835TIP3    H159920   1.466   2.035   0.950  1.9042  0.6347  0.6830
12835TIP3    H259921   1.405   2.144   0.865 -1.0592 -1.3889  0.0802
12836TIP3   OH259922   0.584   5.971  14.872  0.4201 -0.3693  0.5258
12836TIP3    H159923   0.645   5.905  14.905 -2.4627 -2.6591  1.6152
12836TIP3    H259924   0.528   5.924  14.810  0.3545  1.9229 -1.3114
12837TIP3   OH259925   0.734   1.282  14.472  0.0614 -0.4920 -0.3876
12837TIP3    H159926   0.674   1.356  14.475 -0.8529 -1.2310  0.0138
12837TIP3    H259927   0.764   1.273  14.563  0.8231 -0.0990 -0.5953
12838TIP3   OH259928   5.537   2.819  11.790  0.3278 -0.4621 -0.5165
12838TIP3    H159929   5.446   2.847  11.798  0.3002 -1.1933  2.6641
12838TIP3    H259930   5.587   2.901  11.791 -0.1763 -0.1551  0.2203
12839TIP3   OH259931   2.657   1.372  15.424  0.1504  0.6431 -0.0111
12839TIP3    H159932   2.647   1.400  15.515 -1.7132  0.6697 -0.1897
12839TIP3    H259933   2.670   1.453  15.376  1.0501  0.6367  0.1932
12840TIP3   OH259934   6.525   4.951   0.282  0.9913 -0.3307 -0.3452
12840TIP3    H159935   6.474   4.874   0.255 -1.0281  0.7108  0.3176
12840TIP3    H259936   6.506   4.961   0.375  3.6926 -0.7852  0.3369
12841TIP3   OH259937   1.966   1.650  11.226 -0.2935  0.1017  0.1782
12841TIP3    H159938   1.890   1.661  11.169  1.3828  1.2719 -1.9999
12841TIP3    H259939   2.021   1.586  11.181 -0.2230 -1.2320  2.0509
12842TIP3   OH259940   3.898   2.275   0.123  0.3536 -1.0269 -0.0876
12842TIP3    H159941   3.905   2.360   0.165 -1.5393 -1.7212  1.8400
12842TIP3    H259942   3.889   2.295   0.030  0.2766  0.8572  0.2878
12843TIP3   OH259943   2.059   6.638  17.014  0.1003  0.5182  0.4119
12843TIP3    H159944   2.088   6.700  16.947 -0.8855  0.6863  0.1211
12843TIP3    H259945   2.002   6.689  17.071 -0.2475  0.0293  0.5134
12844TIP3   OH259946   1.052   4.999  13.631  0.3945 -0.4585  0.5069
12844TIP3    H159947   1.007   5.013  13.714 -0.3210 -2.1185  0.4438
12844TIP3    H259948   1.145   5.004  13.653  0.2198 -1.2063  1.4873
12845TIP3   OH259949   5.011   0.021   3.527  0.1036 -0.0787 -0.5725
12845TIP3    H159950   5.037   0.072   3.605 -0.0240  1.2831 -1.3842
12845TIP3    H259951   4.919   0.043   3.514 -0.7325 -2.5878  0.5539
12846TIP3   OH259952   0.522   1.807   2.404 -0.0915  0.2923  0.0157
12846TIP3    H159953   0.469   1.885   2.413 -0.7808 -0.2044  0.3553
12846TIP3    H259954   0.600   1.836   2.357  0.1173  1.3932  0.9845
12847TIP3   OH259955   6.038   3.224   5.054 -0.3116 -0.6946 -0.2164
12847TIP3    H159956   5.977   3.275   5.000 -1.3736 -0.4320  1.1631
12847TIP3    H259957   5.991   3.210   5.136  0.7062 -2.2894  0.1372
12848TIP3   OH259958   1.941   2.518   6.303  0.1314 -0.3426 -0.4663
12848TIP3    H159959   1.874   2.584   6.321 -0.1914 -0.1482 -2.2137
12848TIP3    H259960   1.912   2.441   6.351  0.6303  0.7859  1.8078
12849TIP3   OH259961   4.457   1.245   1.241  0.7789  0.3915  0.1991
12849TIP3    H159962   4.404   1.169   1.265  0.4339  1.4770  3.2737
12849TIP3    H259963   4.423   1.272   1.155 -1.0046 -1.2123  0.3415
12850TIP3   OH259964   2.991   5.596   4.203  0.0015 -0.5602  0.9622
12850TIP3    H159965   2.974   5.556   4.117 -2.8696  0.2574  1.0322
12850TIP3    H259966   3.011   5.688   4.183  2.9859 -1.1105  1.0258
12851TIP3   OH259967   3.473   4.453  13.239 -0.0055  0.0325  0.2081
12851TIP3    H159968   3.542   4.443  13.174 -1.4309  0.2529 -1.3776
12851TIP3    H259969   3.414   4.380  13.223  0.0015 -0.3783  1.8005
12852TIP3   OH259970   1.413   4.522   1.856  0.0150  0.0898  0.4142
12852TIP3    H159971   1.384   4.488   1.771  2.4089  2.2403 -1.4304
12852TIP3    H259972   1.495   4.475   1.873 -0.4069 -0.2688  1.5731
12853TIP3   OH259973   2.197   2.434   0.850 -0.2344  0.4504  0.3492
12853TIP3    H159974   2.237   2.426   0.937  0.0000  1.0540  0.3013
12853TIP3    H259975   2.267   2.468   0.795 -0.2462 -0.3731 -0.1905
12854TIP3   OH259976   6.470   4.246   0.741  0.0998 -0.8670 -0.4152
12854TIP3    H159977   6.424   4.174   0.698  0.3958 -2.6698  2.0960
12854TIP3    H259978   6.412   4.272   0.812 -0.4001  2.0843 -1.7502
12855TIP3   OH259979   2.411   5.399  12.218 -0.4270  0.4304  0.2316
12855TIP3    H159980   2.456   5.432  12.296  2.4436 -2.4574  0.0265
12855TIP3    H259981   2.426   5.467  12.152  0.7878  1.0742  1.1160
12856TIP3   OH259982   4.548   1.726   0.390 -0.0328  0.2259  0.4745
12856TIP3    H159983   4.588   1.783   0.456 -0.2383  0.4902  0.3714
12856TIP3    H259984   4.563   1.771   0.307  2.3582 -1.2460  0.0064
12857TIP3   OH259985   4.854   2.249  13.750  0.4814  0.4025 -0.2113
12857TIP3    H159986   4.912   2.321  13.777  0.8910  1.2288 -2.9941
12857TIP3    H259987   4.874   2.178  13.810  1.0900  2.1279  1.7480
12858TIP3   OH259988   1.852   2.550   4.314 -0.3328  0.0491  0.0190
12858TIP3    H159989   1.857   2.644   4.332 -1.4130  0.0436  0.4108
12858TIP3    H259990   1.932   2.531   4.264 -0.5319  1.3365 -0.8192
12859TIP3   OH259991   2.107   1.607  11.688  0.4404 -0.1753  0.2012
12859TIP3    H159992   2.101   1.682  11.628 -1.9648  0.9293  1.6439
12859TIP3    H259993   2.076   1.533  11.638 -4.0145  1.1635  0.5154
12860TIP3   OH259994   0.754   0.485  12.778  0.5063  0.0964  0.0124
12860TIP3    H159995   0.667   0.521  12.758  0.7509  0.2192 -0.8622
12860TIP3    H259996   0.786   0.540  12.850 -0.2210 -0.0852  0.4935
12861TIP3   OH259997   6.381   4.897  15.408  0.0525  0.3391 -0.0127
12861TIP3    H159998   6.372   4.822  15.467 -1.6191  0.6294  0.1500
12861TIP3    H259999   6.341   4.868  15.327 -2.4803  1.6532  0.6585
12862TIP3   OH260000   2.492   5.727  11.878  0.0543  0.5623  0.0321
12862TIP3    H160001   2.454   5.773  11.803  0.5011  0.5912 -0.1788
12862TIP3    H260002   2.504   5.637  11.847 -1.4920  0.1034  0.6731
12863TIP3   OH260003   1.713   0.271   3.307  0.4471 -0.6202 -0.3255
12863TIP3    H160004   1.750   0.289   3.393 -0.5819  0.0966 -0.0143
12863TIP3    H260005   1.751   0.338   3.250 -0.1807 -0.0158 -0.0504
12864TIP3   OH260006   4.182   1.705  15.303 -0.3471 -0.2696 -0.1719
12864TIP3    H160007   4.098   1.680  15.340 -0.1065  1.7048  1.9484
12864TIP3    H260008   4.234   1.734  15.378  2.1064 -1.0036 -1.4544
12865TIP3   OH260009   3.280   1.943  17.028  0.0248  0.5619  0.3712
12865TIP3    H160010   3.309   1.895  17.105 -1.8092  0.7858  1.2666
12865TIP3    H260011   3.219   1.883  16.985  1.4063  0.2434 -1.2251
12866TIP3   OH260012   5.387   2.167  14.621 -0.4673 -0.1497  0.5010
12866TIP3    H160013   5.372   2.075  14.642 -1.7027 -0.1856 -0.4407
12866TIP3    H260014   5.475   2.185  14.654  0.2143 -1.9518 -0.2133
12867TIP3   OH260015   6.113   0.081   3.688  0.4387 -0.2657 -0.3513
12867TIP3    H160016   6.022   0.064   3.662 -0.1636  1.3942  0.4802
12867TIP3    H260017   6.166   0.032   3.626 -1.0211 -0.3272 -1.5964
12868TIP3   OH260018   2.292   3.707   4.882  0.3587 -0.3894  0.3851
12868TIP3    H160019   2.344   3.653   4.941  1.6160 -0.6811 -0.9242
12868TIP3    H260020   2.298   3.796   4.918 -0.2078 -0.7999  1.5366
12869TIP3   OH260021   1.022   1.306   0.806 -0.6431  0.2878 -0.5481
12869TIP3    H160022   0.983   1.351   0.732  0.1385 -0.2790 -1.3376
12869TIP3    H260023   0.948   1.277   0.859 -1.1737  3.1718  0.4664
12870TIP3   OH260024   1.971   2.898   5.056 -0.0540  0.2993  0.3722
12870TIP3    H160025   1.963   2.971   5.117  0.1170  0.5381  0.1138
12870TIP3    H260026   1.955   2.937   4.970  1.7670  0.4011  0.0442
12871TIP3   OH260027   6.246   2.540  13.218 -0.0417  0.5458  0.2668
12871TIP3    H160028   6.242   2.475  13.148 -0.4947 -1.5141  2.0915
12871TIP3    H260029   6.339   2.559  13.228  0.2286 -0.7673  0.4676
12872TIP3   OH260030   2.786   0.709   4.857 -0.6645 -1.0065 -0.2950
12872TIP3    H160031   2.795   0.620   4.889  0.2036 -0.2594  1.7021
12872TIP3    H260032   2.871   0.750   4.875 -1.2201  0.3872 -0.6573
12873TIP3   OH260033   3.684   5.179  13.702 -0.4138 -0.6620 -0.2135
12873TIP3    H160034   3.611   5.120  13.680  0.3721 -1.1159 -1.7079
12873TIP3    H260035   3.735   5.130  13.766  0.3248 -1.7438 -1.5631
12874TIP3   OH260036   3.654   1.526  12.466  0.2943 -0.4416  0.2237
12874TIP3    H160037   3.612   1.443  12.444  0.7184 -0.5300 -0.2654
12874TIP3    H260038   3.634   1.584  12.393  0.3707 -0.2461  0.3546
12875TIP3   OH260039   5.996   6.104   3.345  0.1259  0.3397  0.5105
12875TIP3    H160040   5.922   6.081   3.400  0.8750  0.1443  1.4558
12875TIP3    H260041   5.969   6.079   3.256 -0.6682 -0.3460  0.9382
12876TIP3   OH260042   6.276   5.731  16.450  0.1918  0.0962 -0.2215
12876TIP3    H160043   6.327   5.787  16.509  0.7444 -0.9970  0.3553
12876TIP3    H260044   6.186   5.761  16.461  0.4231  0.5809  0.4104
12877TIP3   OH260045   6.261   2.231  11.551 -0.7119  0.2513  0.3213
12877TIP3    H160046   6.295   2.304  11.500 -0.3089  0.4031  0.7996
12877TIP3    H260047   6.257   2.158  11.490 -0.1956  0.4190  0.0816
12878TIP3   OH260048   2.288   3.803  14.793  0.0879 -0.2926 -0.2196
12878TIP3    H160049   2.214   3.848  14.835  0.4860 -0.9749  1.2975
12878TIP3    H260050   2.363   3.860  14.810  0.1980 -0.4181 -0.2878
12879TIP3   OH260051   1.662   2.138  15.603  0.1606  0.3099  0.5238
12879TIP3    H160052   1.657   2.228  15.636  0.5950  0.0231  1.3888
12879TIP3    H260053   1.608   2.139  15.524  0.1427  1.3268  0.5343
12880TIP3   OH260054   0.744   3.300   4.637  0.4408 -0.0273 -0.3050
12880TIP3    H160055   0.807   3.244   4.590  0.5624  0.6737 -1.0017
12880TIP3    H260056   0.671   3.308   4.576  0.6658  1.0229 -0.4489
12881TIP3   OH260057   2.324   2.514   3.795 -0.3434  0.0491  0.0328
12881TIP3    H160058   2.414   2.522   3.766 -0.7866 -0.7861 -1.7392
12881TIP3    H260059   2.274   2.570   3.735 -1.2403 -1.3451 -0.6092
12882TIP3   OH260060   1.177   2.302  12.546 -0.2009  0.5750 -0.5395
12882TIP3    H160061   1.180   2.346  12.461 -0.4075 -1.1437 -1.4731
12882TIP3    H260062   1.247   2.237  12.542 -0.7603 -0.0954  0.2793
12883TIP3   OH260063   2.565   6.040  13.539 -0.1487 -0.0201  0.8043
12883TIP3    H160064   2.528   6.050  13.452 -1.2904  1.3735  1.4051
12883TIP3    H260065   2.654   6.009  13.524 -0.5326 -0.4190 -0.8179
12884TIP3   OH260066   3.960   6.489   2.980  0.1282  0.5458  0.2541
12884TIP3    H160067   4.029   6.448   3.031  2.6633  1.6176 -2.0527
12884TIP3    H260068   3.905   6.534   3.044  1.9064  0.1114  2.1562
12885TIP3   OH260069   6.414   1.962  15.530  0.8141 -0.4746  0.6729
12885TIP3    H160070   6.461   1.884  15.559  0.1427 -0.6011  1.4801
12885TIP3    H260071   6.343   1.929  15.475  0.7680 -0.4085  0.6920
12886TIP3   OH260072   5.234   2.656   2.070  0.7805 -0.7426 -0.0779
12886TIP3    H160073   5.158   2.692   2.117 -1.2966 -3.2192 -1.2401
12886TIP3    H260074   5.221   2.682   1.979  1.1929 -1.3662 -0.3238
12887TIP3   OH260075   1.033   4.781  14.543  0.2402 -0.1235 -0.0838
12887TIP3    H160076   1.012   4.784  14.450  0.0800 -0.4662 -0.0599
12887TIP3    H260077   0.967   4.836  14.584  0.5792  0.3874 -0.2202
12888TIP3   OH260078   2.539   1.021   0.562 -0.2635 -0.2584 -0.0849
12888TIP3    H160079   2.558   1.002   0.470  0.0964  2.0795 -0.5583
12888TIP3    H260080   2.517   1.115   0.563 -0.7853 -0.3451  2.1438
12889TIP3   OH260081   4.397   3.679  15.168 -0.3393 -0.0230 -0.6435
12889TIP3    H160082   4.372   3.673  15.075 -1.0646  0.0176 -0.4554
12889TIP3    H260083   4.321   3.718  15.211 -0.6512 -1.5148  0.2334
12890TIP3   OH260084   0.022   2.355  14.583  0.6655 -0.4589 -0.2564
12890TIP3    H160085   0.005   2.429  14.641 -0.4597 -0.0224 -1.1013
12890TIP3    H260086   0.107   2.321  14.611  0.1236 -0.3394  1.7215
12891TIP3   OH260087   5.848   1.346   1.290  0.0347 -0.0093 -0.6518
12891TIP3    H160088   5.849   1.271   1.351 -2.6803 -1.1301 -1.8246
12891TIP3    H260089   5.889   1.312   1.210 -3.0115 -1.1045 -1.9130
12892TIP3   OH260090   6.023   3.265  11.024 -0.2121 -0.3957 -0.4929
12892TIP3    H160091   5.943   3.316  11.016 -0.0444 -0.1540 -0.6530
12892TIP3    H260092   6.005   3.184  10.977 -0.6646 -0.7143  0.2070
12893TIP3   OH260093   1.340   2.354   0.432  0.4945 -0.2445  0.4311
12893TIP3    H160094   1.344   2.414   0.357  2.1965 -2.8468 -1.7127
12893TIP3    H260095   1.429   2.324   0.444 -0.2631 -2.2392  1.5170
12894TIP3   OH260096   5.042   3.393  16.961 -0.5390 -0.4218 -0.0135
12894TIP3    H160097   5.093   3.329  16.912 -2.4229 -1.6400 -0.5102
12894TIP3    H260098   5.024   3.350  17.045 -0.8670 -0.0822  0.0935
12895TIP3   OH260099   4.666   3.125  11.899 -0.3846  0.1744 -0.1229
12895TIP3    H160100   4.732   3.102  11.833 -1.4153  0.4139 -1.2580
12895TIP3    H260101   4.672   3.221  11.906 -0.6938  0.2077 -0.3148
12896TIP3   OH260102   0.527   4.497   5.205  0.5749  0.3605  0.2755
12896TIP3    H160103   0.566   4.412   5.182 -0.8539 -0.4443  0.7342
12896TIP3    H260104   0.548   4.553   5.130  1.8696 -0.2659  0.1324
12897TIP3   OH260105   0.631   1.281   4.070  0.1180 -0.0898 -0.4399
12897TIP3    H160106   0.654   1.373   4.053  0.1160 -0.2514 -1.3743
12897TIP3    H260107   0.709   1.232   4.044 -0.0118 -0.3805 -0.2786
12898TIP3   OH260108   5.129   5.465  12.711  0.4918 -1.2075 -0.5300
12898TIP3    H160109   5.159   5.497  12.626 -1.0278 -0.8143 -0.9397
12898TIP3    H260110   5.052   5.412  12.691 -0.1922 -0.6919  0.6303
12899TIP3   OH260111   6.020   2.834  16.704 -0.6096 -0.3992 -0.2918
12899TIP3    H160112   5.999   2.824  16.611  0.2179 -1.4182 -0.3777
12899TIP3    H260113   6.098   2.890  16.704 -0.6596 -0.3293 -0.1959
12900TIP3   OH260114   0.288   3.451   5.833 -0.3608  0.6530  0.0032
12900TIP3    H160115   0.216   3.510   5.809 -1.5828 -0.3048  1.1566
12900TIP3    H260116   0.272   3.429   5.925  1.3891  0.3627  0.2726
12901TIP3   OH260117   6.753   2.040  13.218  0.0553  0.1119 -0.2825
12901TIP3    H160118   6.777   1.969  13.158  0.1173  0.7911 -1.0828
12901TIP3    H260119   6.703   2.101  13.164 -2.2999 -0.5628  0.9975
12902TIP3   OH260120   5.311   0.453   6.908  0.1065 -0.1272 -0.7080
12902TIP3    H160121   5.225   0.471   6.871 -0.9874 -0.9800  1.2742
12902TIP3    H260122   5.296   0.385   6.973  1.3123  2.9664  3.2762
12903TIP3   OH260123   4.275   5.143  16.743 -0.3828 -0.1338  0.5176
12903TIP3    H160124   4.225   5.194  16.806  0.2845  0.6697  0.4197
12903TIP3    H260125   4.277   5.054  16.779 -0.8148  0.1027  1.1367
12904TIP3   OH260126   2.865   4.411   4.889  0.0613  0.2104  0.3898
12904TIP3    H160127   2.911   4.406   4.973  0.4574  0.3755  0.1854
12904TIP3    H260128   2.935   4.426   4.824  0.1606 -2.9548 -0.3861
12905TIP3   OH260129   6.752   2.498  12.806 -0.1856 -0.1069 -0.4626
12905TIP3    H160130   6.709   2.523  12.887  2.2167  2.4070  0.1880
12905TIP3    H260131   6.681   2.477  12.746 -2.0923 -0.2772  1.7263
12906TIP3   OH260132   5.066   2.553  11.543  0.8728 -0.1107 -0.2816
12906TIP3    H160133   5.036   2.606  11.470  2.0083  2.1315  0.7529
12906TIP3    H260134   4.989   2.503  11.570 -0.6536  1.9468 -0.5687
12907TIP3   OH260135   6.045   2.883   4.013  0.1212  0.1209  0.2903
12907TIP3    H160136   6.048   2.857   3.921  0.2708 -1.1893  0.6512
12907TIP3    H260137   5.988   2.818   4.055 -0.4911  1.0876  1.0159
12908TIP3   OH260138   4.260   1.278   2.269 -0.7350  0.2317 -0.8125
12908TIP3    H160139   4.339   1.300   2.318 -1.0733  0.6497 -0.4450
12908TIP3    H260140   4.291   1.254   2.182 -0.1268 -0.5158 -0.4035
12909TIP3   OH260141   0.886   1.210   5.606  0.0969  0.0349  0.1303
12909TIP3    H160142   0.823   1.274   5.574 -1.5930 -0.7067  1.7834
12909TIP3    H260143   0.936   1.184   5.528 -3.2089 -1.0877 -1.8032
12910TIP3   OH260144   5.165   2.980   1.882 -0.2710  0.2155 -0.0827
12910TIP3    H160145   5.145   3.073   1.894  1.1028  0.5447 -0.1207
12910TIP3    H260146   5.198   2.974   1.792 -2.4737 -0.7393 -0.8965
12911TIP3   OH260147   0.814   5.944  16.735 -0.2619  0.3722  0.1838
12911TIP3    H160148   0.785   5.896  16.812  0.5057 -0.5208 -0.0705
12911TIP3    H260149   0.910   5.945  16.741 -0.2520  2.0081  0.2550
12912TIP3   OH260150   3.575   3.422  12.349  0.0242 -0.1111 -0.4710
12912TIP3    H160151   3.611   3.389  12.267  0.6777  0.5056 -0.4415
12912TIP3    H260152   3.519   3.496  12.322 -0.2905 -0.3278 -0.4170
12913TIP3   OH260153   6.594   1.273   4.861  0.5377 -0.1725  0.1301
12913TIP3    H160154   6.538   1.218   4.917 -0.6483  1.9833  1.1749
12913TIP3    H260155   6.672   1.290   4.915  0.8092 -0.6283 -0.1114
12914TIP3   OH260156   3.715   2.619   2.505 -0.7785 -0.2084 -0.3914
12914TIP3    H160157   3.713   2.586   2.416  0.5488  1.8570 -1.2612
12914TIP3    H260158   3.715   2.541   2.560  0.3746 -1.5839 -2.2459
12915TIP3   OH260159   1.345   4.831  13.422  0.2672  0.2329  0.3423
12915TIP3    H160160   1.338   4.920  13.386 -0.2705  1.0623  2.3811
12915TIP3    H260161   1.438   4.810  13.415  0.5657  1.3702  0.7363
12916TIP3   OH260162   1.225   4.191  15.689  0.4571  0.6730 -0.5946
12916TIP3    H160163   1.318   4.169  15.683  0.0896 -0.9221 -1.0776
12916TIP3    H260164   1.190   4.127  15.752 -0.1793  1.7678  0.1941
12917TIP3   OH260165   6.437   4.887  14.322 -0.1720  0.1859 -0.2075
12917TIP3    H160166   6.438   4.821  14.391 -2.1610  0.9457  0.6236
12917TIP3    H260167   6.417   4.838  14.242  0.6755 -0.4948 -0.0211
12918TIP3   OH260168   4.743   4.270  13.653  0.0053  0.3009  0.8442
12918TIP3    H160169   4.683   4.301  13.721 -0.0464  2.8716 -0.2650
12918TIP3    H260170   4.701   4.295  13.570  0.7056 -1.5375 -0.1366
12919TIP3   OH260171   3.489   2.500   4.398  0.2384  0.0080 -0.1655
12919TIP3    H160172   3.578   2.474   4.420 -0.2833 -0.9284  0.9034
12919TIP3    H260173   3.499   2.588   4.359  1.5843  0.0225  0.1637
12920TIP3   OH260174   0.612   4.263   2.105 -0.6183  0.3959  0.7509
12920TIP3    H160175   0.704   4.273   2.082 -0.6628  1.8576  1.1297
12920TIP3    H260176   0.599   4.168   2.112  1.2693  0.2153  2.4017
12921TIP3   OH260177   3.994   2.532   4.333  0.1892  0.2752 -0.2898
12921TIP3    H160178   4.027   2.603   4.389  0.7678 -1.1243  1.2209
12921TIP3    H260179   4.071   2.476   4.318 -0.7129 -1.1743  0.3438
12922TIP3   OH260180   0.341   6.398  12.989 -0.2165 -0.1287 -0.1172
12922TIP3    H160181   0.310   6.352  12.911 -1.5978  0.7860 -0.1405
12922TIP3    H260182   0.431   6.422  12.968 -0.5499  0.0662 -1.4315
12923TIP3   OH260183   5.135   6.661  16.904 -0.0135 -0.2283 -0.3662
12923TIP3    H160184   5.070   6.656  16.974  1.9889  0.7157  1.6982
12923TIP3    H260185   5.217   6.682  16.949  1.5847 -0.5491 -2.9219
12924TIP3   OH260186   1.430   3.524   6.262 -0.4730  0.0699 -0.2152
12924TIP3    H160187   1.467   3.471   6.192  0.1337 -1.3014  1.0788
12924TIP3    H260188   1.487   3.507   6.338 -1.9733  0.2907  1.0166
12925TIP3   OH260189   5.908   5.211  16.654 -0.4539  0.5595 -0.2426
12925TIP3    H160190   5.865   5.215  16.568  0.0494  0.5647 -0.5001
12925TIP3    H260191   5.876   5.289  16.700 -0.6707  0.5991 -0.4555
12926TIP3   OH260192   6.277   6.771  11.349  0.3111  0.1254  0.1172
12926TIP3    H160193   6.201   6.714  11.334  0.8317 -0.2605 -1.1850
12926TIP3    H260194   6.344   6.736  11.291  1.1398  1.1396  0.4524
12927TIP3   OH260195   5.893   1.003  13.065  0.7787 -0.5998  0.1009
12927TIP3    H160196   5.865   1.094  13.062  0.4410 -0.6649  1.1420
12927TIP3    H260197   5.826   0.955  13.017  0.3374 -0.4490  0.5647
12928TIP3   OH260198   3.332   1.213   0.746 -0.2716  0.4598  0.3708
12928TIP3    H160199   3.365   1.302   0.759 -2.0760  0.9597  1.9474
12928TIP3    H260200   3.244   1.224   0.712  0.3633 -0.8268 -1.9384
12929TIP3   OH260201   6.788   3.508   4.198 -0.5066  0.0787 -0.1467
12929TIP3    H160202   6.779   3.461   4.281  1.9450 -1.6971 -0.7870
12929TIP3    H260203   6.716   3.572   4.200 -1.1348 -0.5272  2.8758
12930TIP3   OH260204   0.007   6.720  16.095 -0.3752 -0.3233 -0.1278
12930TIP3    H160205  -0.036   6.760  16.170 -0.4609 -0.3858 -0.1439
12930TIP3    H260206   0.054   6.792  16.053  0.3247 -0.4414  0.4374
12931TIP3   OH260207   6.397   3.137  14.425 -0.2174 -0.2352 -0.6592
12931TIP3    H160208   6.418   3.196  14.497 -2.1439  0.9569 -1.0183
12931TIP3    H260209   6.480   3.095  14.404  0.3351 -1.1146  2.6314
12932TIP3   OH260210   1.353   0.341   2.513  0.7711 -0.3931 -0.0980
12932TIP3    H160211   1.375   0.345   2.606  0.3878 -2.2121  0.1122
12932TIP3    H260212   1.271   0.389   2.506  1.9937  1.8222  0.0427
12933TIP3   OH260213   4.279   6.591   5.722 -0.5974 -0.0044  0.5766
12933TIP3    H160214   4.259   6.623   5.810 -0.1393  0.0151  0.6795
12933TIP3    H260215   4.368   6.555   5.730 -0.3791  0.4057  0.0193
12934TIP3   OH260216   2.696   6.013  11.259 -0.4842 -0.5131  0.0798
12934TIP3    H160217   2.747   5.971  11.189 -1.7776 -1.4170 -0.3532
12934TIP3    H260218   2.605   5.995  11.236 -0.9445 -2.1855  2.8037
12935TIP3   OH260219   0.900   2.642  13.633  0.5219 -0.0822  0.2369
12935TIP3    H160220   0.951   2.648  13.714 -0.4018 -0.1559  0.8364
12935TIP3    H260221   0.909   2.728  13.592 -1.6983  1.1249  2.0803
12936TIP3   OH260222   3.865   5.391   5.364  0.5570 -0.6320  0.7018
12936TIP3    H160223   3.869   5.453   5.291  0.5467 -0.6817  0.6591
12936TIP3    H260224   3.949   5.403   5.409  1.0373 -1.4010  0.0193
12937TIP3   OH260225   5.589   2.693  15.098  0.8450  0.5595 -0.0302
12937TIP3    H160226   5.502   2.703  15.059  0.0344 -2.5914  0.6957
12937TIP3    H260227   5.572   2.689  15.192  1.8727  0.5667  0.1608
12938TIP3   OH260228   6.251   1.810   3.017 -0.2439  0.1789  0.4651
12938TIP3    H160229   6.331   1.795   2.966 -0.3515  0.3815  0.2380
12938TIP3    H260230   6.261   1.752   3.093 -0.2035 -0.3146  0.0925
12939TIP3   OH260231   2.482   1.005   2.203  0.7833 -0.5966  0.2828
12939TIP3    H160232   2.387   1.000   2.189  0.5289  0.6512  1.3060
12939TIP3    H260233   2.513   1.064   2.134  0.5054  0.4761  1.0455
12940TIP3   OH260234   0.810   0.326   5.994  0.0161 -0.0619 -0.0712
12940TIP3    H160235   0.879   0.261   5.982 -0.5506 -0.6488 -0.1739
12940TIP3    H260236   0.729   0.280   5.972 -0.6601  0.0041  2.0929
12941TIP3   OH260237   1.889   3.872   0.648  0.5140  0.0916 -0.1951
12941TIP3    H160238   1.875   3.954   0.696  0.3358 -1.3044  2.3137
12941TIP3    H260239   1.836   3.882   0.569 -2.6167  1.0006  1.8031
12942TIP3   OH260240   2.995   5.456  16.275  0.0569  0.3426 -0.7544
12942TIP3    H160241   3.038   5.371  16.264  3.2175  1.9547 -1.8975
12942TIP3    H260242   2.979   5.487  16.186  0.3223  1.5742 -0.3898
12943TIP3   OH260243   3.762   2.088   3.208 -0.1510  0.4344  0.3434
12943TIP3    H160244   3.725   2.055   3.126 -0.7342 -1.5820  1.3681
12943TIP3    H260245   3.691   2.080   3.271  0.7919  0.3695  1.4165
12944TIP3   OH260246   4.382   3.776   3.506  0.7312  0.0611  0.1689
12944TIP3    H160247   4.299   3.781   3.555 -1.1888  0.0325 -2.8328
12944TIP3    H260248   4.408   3.867   3.494  1.5882  0.0568  1.6854
12945TIP3   OH260249   4.277   0.487  14.954 -0.2451 -0.1792 -0.0179
12945TIP3    H160250   4.343   0.537  14.907 -0.2723  0.1833  0.3197
12945TIP3    H260251   4.219   0.453  14.886  1.8195 -2.8646 -0.6241
12946TIP3   OH260252   5.590   4.485  14.041 -0.2542  0.3103  0.3346
12946TIP3    H160253   5.608   4.396  14.070  2.5598  0.2528 -1.2387
12946TIP3    H260254   5.498   4.483  14.013 -0.7454 -1.5892  1.8502
12947TIP3   OH260255   2.075   6.172   4.050 -0.1367 -0.5667  0.3851
12947TIP3    H160256   2.000   6.151   4.105 -0.8293  1.7633  0.4694
12947TIP3    H260257   2.037   6.191   3.964  0.6945 -2.0325 -0.3407
12948TIP3   OH260258   5.953   0.208  15.447 -0.2337 -0.0198 -0.2171
12948TIP3    H160259   5.969   0.128  15.497 -0.3766  0.8278  1.2568
12948TIP3    H260260   5.981   0.279  15.506 -1.2309  1.0714 -1.0092
12949TIP3   OH260261   5.329   2.937   3.142  0.7054  0.4620  0.3518
12949TIP3    H160262   5.350   3.029   3.154  1.1250  0.6185 -1.2707
12949TIP3    H260263   5.283   2.933   3.058  0.4764 -0.7704  0.5108
12950TIP3   OH260264   3.223   3.925  11.412  0.1397  0.0178  0.2599
12950TIP3    H160265   3.272   3.867  11.354 -0.9315 -1.3911  0.7156
12950TIP3    H260266   3.140   3.939  11.368 -0.7133 -1.1133  1.4357
12951TIP3   OH260267   3.472   0.676   1.544  0.6993 -0.3449  0.0671
12951TIP3    H160268   3.540   0.640   1.601  1.7064  0.5523 -0.5064
12951TIP3    H260269   3.519   0.699   1.463 -0.6033 -1.1788 -0.9718
12952TIP3   OH260270   3.744   0.657   3.249 -0.6684  0.1578 -0.1736
12952TIP3    H160271   3.754   0.623   3.338  2.7992 -0.1410 -0.5337
12952TIP3    H260272   3.761   0.582   3.192  1.0788  1.1050 -0.9923
12953TIP3   OH260273   2.896   5.229   5.702 -0.2161 -0.2897  1.0714
12953TIP3    H160274   2.825   5.286   5.731 -0.3843  0.4470 -0.6650
12953TIP3    H260275   2.974   5.286   5.701 -0.3067 -0.1615 -0.2923
12954TIP3   OH260276   1.753   5.343  10.834 -0.0484 -0.6176 -0.1433
12954TIP3    H160277   1.771   5.365  10.743  0.9397  1.4926  0.4859
12954TIP3    H260278   1.824   5.285  10.859 -0.2733 -1.1313 -0.6840
12955TIP3   OH260279   1.226   6.484   1.417 -0.0932 -0.4562 -1.0321
12955TIP3    H160280   1.147   6.467   1.366 -0.9575 -0.2749  0.2074
12955TIP3    H260281   1.209   6.443   1.502  1.6945 -1.5640 -1.1625
12956TIP3   OH260282   3.500   5.653   0.129  0.4602 -0.5633 -0.4161
12956TIP3    H160283   3.493   5.563   0.162  0.7815  0.1145  1.6619
12956TIP3    H260284   3.536   5.702   0.202 -0.5605  1.4537 -1.1966
12957TIP3   OH260285   2.104   2.798  12.898 -0.2984 -0.2727 -0.5327
12957TIP3    H160286   2.097   2.721  12.954 -0.5438  0.1433  0.0220
12957TIP3    H260287   2.015   2.833  12.893 -0.7179 -1.4764 -2.9262
12958TIP3   OH260288   4.287   1.138  12.687  0.3514  0.3539 -0.7316
12958TIP3    H160289   4.219   1.074  12.708 -0.1804  0.5267 -1.8775
12958TIP3    H260290   4.269   1.164  12.597  2.4092 -0.2065 -1.3569
12959TIP3   OH260291   1.217   4.699   2.250 -0.5819 -0.2185  0.0765
12959TIP3    H160292   1.134   4.731   2.214 -0.9854 -0.6361  0.6116
12959TIP3    H260293   1.234   4.619   2.201 -0.2656  0.0970 -0.3345
12960TIP3   OH260294   1.546   2.236  12.517 -0.6507  0.5029 -0.0971
12960TIP3    H160295   1.522   2.216  12.607 -0.3633  1.0725  0.1109
12960TIP3    H260296   1.549   2.151  12.473 -2.3534  0.3391  0.0311
12961TIP3   OH260297   2.567   4.100   1.582  0.1137  0.2509  0.5051
12961TIP3    H160298   2.561   4.007   1.560  1.7331  0.3966 -0.6749
12961TIP3    H260299   2.507   4.110   1.657 -2.3209 -1.1355 -1.1165
12962TIP3   OH260300   5.183   2.829  11.234  0.2731 -0.1687  0.0690
12962TIP3    H160301   5.175   2.780  11.316  0.3961  1.2603  0.9649
12962TIP3    H260302   5.099   2.875  11.225  1.2045  1.8068  0.8474
12963TIP3   OH260303   5.648   4.697  17.075  0.0081  0.2588  0.0482
12963TIP3    H160304   5.626   4.673  17.165 -1.7916 -1.6343 -0.8090
12963TIP3    H260305   5.714   4.766  17.084 -2.3701  2.4038  2.8130
12964TIP3   OH260306   2.937   2.351   1.673 -0.0375 -0.1279 -0.7067
12964TIP3    H160307   3.018   2.373   1.628 -1.2622  2.2572 -1.9643
12964TIP3    H260308   2.871   2.408   1.633 -2.2216 -1.4899  0.7082
12965TIP3   OH260309   2.221   4.971  17.098  0.3663  0.0023 -0.1163
12965TIP3    H160310   2.241   5.009  17.184 -1.7416  0.0838  0.3789
12965TIP3    H260311   2.194   4.881  17.116  1.3504 -0.4705 -0.8760
12966TIP3   OH260312   1.837   0.976  14.678  0.1362 -0.2842 -0.2065
12966TIP3    H160313   1.854   0.895  14.630  3.9210 -1.4328  2.5551
12966TIP3    H260314   1.861   1.046  14.616  2.7066 -1.6002 -0.8574
12967TIP3   OH260315   5.406   6.142  13.615 -0.4361  0.4277 -0.5140
12967TIP3    H160316   5.385   6.155  13.523  1.1603  0.6213 -0.8704
12967TIP3    H260317   5.364   6.059  13.638 -2.2739  1.1955 -0.9252
12968TIP3   OH260318   3.767   6.785   0.657  0.1856 -0.3333  0.1272
12968TIP3    H160319   3.719   6.731   0.720  0.9173  0.5796  1.5183
12968TIP3    H260320   3.700   6.836   0.613 -0.3049 -0.6452  0.5059
12969TIP3   OH260321   4.202   1.907  16.314 -0.3247 -0.1380  0.0909
12969TIP3    H160322   4.121   1.955  16.325  0.0056  0.5574 -0.4403
12969TIP3    H260323   4.252   1.958  16.249  1.2634  0.3931  1.6548
12970TIP3   OH260324   5.337   6.743  11.016  0.3089  0.0510  0.3128
12970TIP3    H160325   5.323   6.690  10.938 -1.9628 -0.2536  0.8719
12970TIP3    H260326   5.415   6.705  11.057 -0.2456 -1.7155 -0.2250
12971TIP3   OH260327   3.277   4.894   1.173 -0.3779  0.2798  0.2224
12971TIP3    H160328   3.312   4.973   1.213 -0.9475  0.5602  0.1770
12971TIP3    H260329   3.352   4.852   1.131 -0.3634  1.6929 -1.2335
12972TIP3   OH260330   3.210   0.561  12.232  0.4383  0.0970  0.1639
12972TIP3    H160331   3.243   0.544  12.143  1.9547  1.4782  0.4082
12972TIP3    H260332   3.240   0.486  12.283  1.4890  0.3299 -0.0676
12973TIP3   OH260333   1.676   3.373  17.075 -0.1934  0.4461 -0.0650
12973TIP3    H160334   1.680   3.278  17.068  0.0175  0.5601 -1.8421
12973TIP3    H260335   1.583   3.394  17.075 -0.2467  0.3211 -1.5223
12974TIP3   OH260336   3.201   4.081   2.026 -0.4320  0.7486 -0.4184
12974TIP3    H160337   3.135   4.105   2.091 -0.5739  0.1283 -0.3291
12974TIP3    H260338   3.177   3.993   1.998 -0.4713  1.0566 -1.4314
12975TIP3   OH260339   0.734   0.390   2.189  0.9822  0.1853  0.0813
12975TIP3    H160340   0.764   0.332   2.259  1.1879  0.1227 -0.0559
12975TIP3    H260341   0.641   0.370   2.179  0.7437  0.7923  0.9114
12976TIP3   OH260342   6.543   3.240  14.639 -0.2963 -0.1921  0.0020
12976TIP3    H160343   6.593   3.162  14.663 -1.4042 -1.0399 -0.3708
12976TIP3    H260344   6.486   3.256  14.714 -1.1687 -0.6668 -0.5552
12977TIP3   OH260345   5.129   1.671  13.760 -0.2725 -0.7028 -0.3901
12977TIP3    H160346   5.081   1.642  13.838 -0.9157 -0.4819 -0.6986
12977TIP3    H260347   5.194   1.733  13.794  0.2481 -1.5051  0.1137
12978TIP3   OH260348   4.892   3.635  11.431 -0.6582 -0.1707 -0.4764
12978TIP3    H160349   4.869   3.551  11.471  0.8041 -0.4634 -0.1903
12978TIP3    H260350   4.842   3.699  11.480  0.4553 -0.6035  1.3194
12979TIP3   OH260351   0.080   3.348  13.779 -0.1682  0.1230  0.2732
12979TIP3    H160352   0.056   3.346  13.686  0.7557 -0.5916  0.0374
12979TIP3    H260353  -0.002   3.369  13.824 -0.6591  0.3457 -0.6882
12980TIP3   OH260354   0.782   5.544  16.094 -0.9517 -0.0114 -0.0720
12980TIP3    H160355   0.716   5.566  16.029 -1.0033 -0.4658 -0.1776
12980TIP3    H260356   0.732   5.530  16.175 -1.0260 -0.6872 -0.2289
12981TIP3   OH260357   4.483   6.775   2.298  0.1817  0.0332 -0.3373
12981TIP3    H160358   4.455   6.756   2.209  0.2301  0.1785 -0.3841
12981TIP3    H260359   4.433   6.714   2.353 -0.8058  0.7884 -0.3580
12982TIP3   OH260360   3.353   1.013  14.580 -0.3764 -0.0335  0.1867
12982TIP3    H160361   3.400   1.038  14.500 -0.1579  1.1766  0.6795
12982TIP3    H260362   3.295   1.086  14.598 -1.0405 -0.6699  0.6817
12983TIP3   OH260363   6.457   3.571  10.688 -0.2604 -0.6508  0.0441
12983TIP3    H160364   6.532   3.518  10.711  0.0220 -0.9623 -1.5071
12983TIP3    H260365   6.446   3.630  10.762  1.8574 -0.2111  0.0702
12984TIP3   OH260366   3.723   6.054  12.786 -0.1475  0.6387 -0.1022
12984TIP3    H160367   3.751   6.007  12.708 -1.3656 -1.8970  0.8794
12984TIP3    H260368   3.805   6.077  12.830  0.5424  1.7546 -1.8615
12985TIP3   OH260369   6.140   3.873   5.257  0.3863 -0.3252  0.0359
12985TIP3    H160370   6.221   3.909   5.222  0.4400 -0.4434  0.0364
12985TIP3    H260371   6.163   3.845   5.346  0.6359 -1.3565 -0.3319
12986TIP3   OH260372   5.332   3.070  13.033  0.3833  0.0744  0.4354
12986TIP3    H160373   5.328   3.020  13.114  1.5932  0.0491  0.5034
12986TIP3    H260374   5.312   3.006  12.964  0.9090 -0.2767  0.6011
12987TIP3   OH260375   4.830   1.521  15.968  1.0434  0.5128 -0.2215
12987TIP3    H160376   4.786   1.557  15.891  1.2668  1.4757  0.0981
12987TIP3    H260377   4.803   1.578  16.040  1.4521  0.0767  0.2778
12988TIP3   OH260378   0.340   5.131  13.573  0.7124  0.0294  0.1680
12988TIP3    H160379   0.280   5.135  13.498  0.4745 -3.5496 -0.0068
12988TIP3    H260380   0.396   5.208  13.562 -1.5979  1.6042 -1.6135
12989TIP3   OH260381   4.931   6.560  11.976 -0.1456  0.2743 -0.0778
12989TIP3    H160382   5.005   6.517  12.018 -0.8428 -2.0243 -1.0227
12989TIP3    H260383   4.967   6.598  11.896 -0.0400 -1.3117 -0.8155
12990TIP3   OH260384   0.210   0.403  16.028  0.0533 -0.6512 -0.1522
12990TIP3    H160385   0.233   0.491  16.057  0.6206  0.3623 -3.3426
12990TIP3    H260386   0.294   0.358  16.016 -0.1922 -1.2289  0.1987
12991TIP3   OH260387   3.067   5.586   2.823 -0.0078 -0.4418 -0.1565
12991TIP3    H160388   3.146   5.618   2.867  0.6173 -2.0096 -0.0913
12991TIP3    H260389   3.100   5.540   2.746 -0.9580  0.0645 -0.8856
12992TIP3   OH260390   3.628   3.839  12.901 -0.3086  0.6886 -0.7550
12992TIP3    H160391   3.702   3.799  12.855  0.0518  0.6239 -0.1324
12992TIP3    H260392   3.619   3.787  12.981 -0.3289  1.3648 -0.3079
12993TIP3   OH260393   3.488   0.238  12.249 -0.0037  0.2988 -0.1390
12993TIP3    H160394   3.419   0.277  12.302  1.1089  0.4968  1.1895
12993TIP3    H260395   3.457   0.149  12.231 -0.8792  0.5904 -0.0923
12994TIP3   OH260396   5.099   5.668  11.477  0.2802  0.0078  0.0474
12994TIP3    H160397   5.126   5.629  11.560 -2.2827 -0.5987  0.6792
12994TIP3    H260398   5.081   5.760  11.499 -1.4381 -0.3978  0.4748
12995TIP3   OH260399   5.255   3.336  12.980 -0.2783  0.1491 -0.4679
12995TIP3    H160400   5.269   3.248  13.016  1.3336  0.7904  0.5690
12995TIP3    H260401   5.341   3.378  12.985 -0.7381  1.3794 -2.1122
12996TIP3   OH260402   0.991   2.279   2.529 -0.2801 -0.5793 -0.0754
12996TIP3    H160403   1.020   2.201   2.577 -1.4911 -0.6817  0.5513
12996TIP3    H260404   1.051   2.348   2.556 -0.1592 -0.9363  0.6146
12997TIP3   OH260405   2.000   2.752  16.363 -0.0782  0.6546 -0.7648
12997TIP3    H160406   2.016   2.809  16.287  1.5541  3.1803  1.3136
12997TIP3    H260407   2.087   2.734  16.398 -0.7725 -0.8415  0.3007
12998TIP3   OH260408   0.806   1.561   0.330  0.2486  0.0054 -0.2273
12998TIP3    H160409   0.811   1.495   0.260  0.4903  0.1756 -0.3714
12998TIP3    H260410   0.743   1.625   0.298  0.2656  0.0188 -0.2339
12999TIP3   OH260411   3.934   3.137  16.686  0.3399  1.0810 -0.5946
12999TIP3    H160412   3.958   3.153  16.594 -2.5565  1.5234 -1.3761
12999TIP3    H260413   3.859   3.195  16.701 -0.8717 -0.8649  1.2501
13000TIP3   OH260414   3.636   0.250   3.446  0.2963 -0.3210 -0.3390
13000TIP3    H160415   3.666   0.240   3.356 -1.3957 -1.7301 -0.7905
13000TIP3    H260416   3.689   0.188   3.496  0.6122 -0.1854 -0.5008
13001TIP3   OH260417   0.526   4.156  16.971  0.0347 -0.0709  0.3315
13001TIP3    H160418   0.527   4.096  16.897 -1.0057  1.3499 -0.8918
13001TIP3    H260419   0.544   4.242  16.933  3.2747  0.2529  2.2622
13002TIP3   OH260420   5.728   4.298  14.374 -0.1549 -0.1030 -0.0994
13002TIP3    H160421   5.741   4.207  14.400  0.0502 -0.2809 -0.7857
13002TIP3    H260422   5.650   4.326  14.420 -0.3004 -0.6755  0.0045
13003TIP3   OH260423   3.446   5.198  14.744  0.7498 -0.2605  0.3845
13003TIP3    H160424   3.417   5.229  14.659 -1.2968 -2.1394  0.3145
13003TIP3    H260425   3.434   5.273  14.803 -0.1772  0.3068 -0.5097
13004TIP3   OH260426   2.625   4.759  11.086  0.4354  0.0395  0.1541
13004TIP3    H160427   2.561   4.706  11.039  1.2629  0.2908 -1.3391
13004TIP3    H260428   2.620   4.728  11.177 -1.7087  0.0113  0.0781
13005TIP3   OH260429   0.706   0.684   0.072 -0.1123  0.3697 -0.4185
13005TIP3    H160430   0.644   0.754   0.053  1.8475  2.3661  0.1002
13005TIP3    H260431   0.689   0.661   0.164  0.1891  1.2292 -0.1375
13006TIP3   OH260432   4.356   3.054   0.731  0.9411 -0.5877  0.3468
13006TIP3    H160433   4.299   2.986   0.765 -0.5946  1.4846  2.1940
13006TIP3    H260434   4.368   3.114   0.804  1.8871  1.3668 -1.3124
13007TIP3   OH260435   4.292   5.595  13.040 -0.1756 -0.2691 -0.3966
13007TIP3    H160436   4.277   5.534  13.113 -1.7362  0.2682 -0.2358
13007TIP3    H260437   4.262   5.680  13.072 -0.1514  0.1368 -1.3973
13008TIP3   OH260438   4.776   3.239  12.686  0.6785  0.2395 -1.0606
13008TIP3    H160439   4.730   3.246  12.603  0.7180 -1.2497 -1.2366
13008TIP3    H260440   4.819   3.154  12.682  2.0929  0.8795 -0.2159
13009TIP3   OH260441   5.806   2.437   1.240  0.1124  0.0604 -0.1266
13009TIP3    H160442   5.746   2.470   1.306  1.8109  1.3956  0.8217
13009TIP3    H260443   5.846   2.516   1.203  0.2138 -0.7319 -1.7882
13010TIP3   OH260444   5.520   6.743   2.526 -0.0112 -0.7714  0.2746
13010TIP3    H160445   5.588   6.681   2.549 -0.3796 -0.7283  1.5555
13010TIP3    H260446   5.561   6.829   2.539 -0.4137 -0.7403  1.4736
13011TIP3   OH260447   6.718   3.846  13.623 -0.2946 -0.1130  0.0501
13011TIP3    H160448   6.691   3.826  13.533 -0.0605  1.2279 -0.3339
13011TIP3    H260449   6.673   3.780  13.676  0.2569 -1.4781 -1.1176
13012TIP3   OH260450   1.463   5.937   5.217 -0.7179  0.2429 -0.3257
13012TIP3    H160451   1.485   5.969   5.130 -0.0011 -1.6207 -0.8855
13012TIP3    H260452   1.538   5.962   5.272 -0.9014  0.9053 -0.3734
13013TIP3   OH260453   1.276   1.975   0.481 -0.1792  0.4800  0.1297
13013TIP3    H160454   1.221   2.026   0.541 -1.1232 -1.6859  1.2478
13013TIP3    H260455   1.360   1.969   0.525  0.1331  1.5485 -0.3005
13014TIP3   OH260456   5.601   3.332  15.742 -0.2817 -0.0388  0.1394
13014TIP3    H160457   5.552   3.413  15.727 -0.5573 -0.0477  0.9591
13014TIP3    H260458   5.577   3.305  15.831  2.1946  0.6676  1.1106
13015TIP3   OH260459   4.558   0.590   2.121 -0.9191 -0.1860 -0.1469
13015TIP3    H160460   4.463   0.578   2.124 -0.8086 -0.8575  0.6707
13015TIP3    H260461   4.593   0.536   2.192  0.1339 -0.4733 -0.8516
13016TIP3   OH260462   1.191   1.181   2.080  0.7639  0.1278  0.3298
13016TIP3    H160463   1.162   1.185   1.989 -0.5772 -0.1679  0.7152
13016TIP3    H260464   1.159   1.263   2.119 -2.6058 -1.5747  1.5617
13017TIP3   OH260465   4.635   0.641  17.195  0.5448 -0.1390 -0.3534
13017TIP3    H160466   4.710   0.581  17.203 -0.3314 -1.0901  1.3830
13017TIP3    H260467   4.664   0.720  17.241  1.4632  0.5878 -2.0906
13018TIP3   OH260468   2.317   0.697   2.695 -0.5961 -0.3534 -0.6007
13018TIP3    H160469   2.321   0.681   2.600 -1.1482  0.4989 -0.7797
13018TIP3    H260470   2.394   0.652   2.730  0.3492  0.4032 -1.6213
13019TIP3   OH260471   0.668   3.407   1.460 -0.3000  0.0483 -0.7121
13019TIP3    H160472   0.669   3.503   1.462 -1.9503  0.1492 -2.1288
13019TIP3    H260473   0.726   3.385   1.387 -0.4646  0.0019 -0.8288
13020TIP3   OH260474   1.429   1.491   1.917  0.9087 -0.4603 -0.3877
13020TIP3    H160475   1.439   1.558   1.984 -0.5168  0.9163 -1.4751
13020TIP3    H260476   1.335   1.474   1.913  0.8169  0.1897 -2.6227
13021TIP3   OH260477   0.390   2.607   3.218  0.4926 -0.5381  0.5820
13021TIP3    H160478   0.316   2.550   3.237  0.1743  0.0279  1.0771
13021TIP3    H260479   0.439   2.561   3.149 -0.9802 -0.3339 -0.6459
13022TIP3   OH260480   1.617   6.178  15.891 -0.1446  0.0951 -0.4131
13022TIP3    H160481   1.646   6.139  15.974  1.3651  1.2843 -0.3400
13022TIP3    H260482   1.535   6.223  15.914  1.6721  2.8792  1.2360
13023TIP3   OH260483   2.968   3.249   2.104  0.1020  0.3332 -0.0354
13023TIP3    H160484   3.055   3.222   2.075  0.4760  1.8746 -0.4652
13023TIP3    H260485   2.910   3.220   2.033  0.3294 -0.2477  0.0084
13024TIP3   OH260486   2.819   3.932   6.426  0.1743  0.4155  0.1303
13024TIP3    H160487   2.855   3.878   6.496  0.7041 -2.0759 -1.9289
13024TIP3    H260488   2.891   3.942   6.364 -1.1804 -0.3203 -1.6431
13025TIP3   OH260489   5.811   5.841  15.084 -0.4216  0.3618  0.0066
13025TIP3    H160490   5.847   5.783  15.017  0.0403  1.4743 -0.7385
13025TIP3    H260491   5.797   5.924  15.039  0.5553  1.3521  1.4417
13026TIP3   OH260492   0.553   3.835   3.061 -0.0560  0.2747 -0.2715
13026TIP3    H160493   0.576   3.927   3.051 -1.7479  0.6433 -1.0788
13026TIP3    H260494   0.471   3.835   3.110  0.6416 -0.8989  0.9692
13027TIP3   OH260495   2.886   5.260   1.312  0.2910 -0.3671  0.6600
13027TIP3    H160496   2.839   5.335   1.277  1.4271  0.6566  1.2281
13027TIP3    H260497   2.896   5.200   1.237  0.8487  0.8234 -0.2440
13028TIP3   OH260498   3.195   2.247  13.594 -0.3450 -0.0269 -0.0883
13028TIP3    H160499   3.266   2.277  13.650 -0.1267 -1.9800  0.7468
13028TIP3    H260500   3.130   2.318  13.598  0.3407  0.5536  1.3722
13029TIP3   OH260501   4.454   4.208   5.898  0.4144 -0.1800 -0.4899
13029TIP3    H160502   4.544   4.213   5.930 -0.2237  0.6003  1.3467
13029TIP3    H260503   4.415   4.136   5.949 -0.7855  1.4603  1.0345
13030TIP3   OH260504   3.425   3.543  11.838 -0.5106  0.4304 -0.1537
13030TIP3    H160505   3.400   3.616  11.895 -2.9389  0.3323 -0.9817
13030TIP3    H260506   3.436   3.469  11.897  0.2634  1.0540  0.5107
13031TIP3   OH260507   1.656   1.637  16.288  0.2645  0.3729 -0.2345
13031TIP3    H160508   1.614   1.554  16.268 -2.7090  1.6722  0.1385
13031TIP3    H260509   1.626   1.659  16.377  1.0013  1.8344 -0.3059
13032TIP3   OH260510   4.972   5.207  14.740  0.0305  0.2339 -0.6869
13032TIP3    H160511   5.025   5.219  14.661  1.0379  1.3637  0.1112
13032TIP3    H260512   5.017   5.259  14.806 -1.0450 -0.3249  0.5221
13033TIP3   OH260513   5.600   4.407   2.494 -0.9262 -0.7604  0.2829
13033TIP3    H160514   5.534   4.371   2.554 -1.0792  1.1415  1.3327
13033TIP3    H260515   5.661   4.335   2.480 -1.4225 -1.5560  1.9547
13034TIP3   OH260516   6.752   1.386   3.408 -0.6874  0.0392 -0.0187
13034TIP3    H160517   6.783   1.307   3.363 -0.6107  1.1046 -1.9511
13034TIP3    H260518   6.831   1.424   3.448 -0.6451 -0.5860  0.5096
13035TIP3   OH260519   5.993   4.171   5.503 -0.1201  0.5797  0.2222
13035TIP3    H160520   5.950   4.098   5.459 -1.5266  1.0713  0.7056
13035TIP3    H260521   6.086   4.160   5.484 -0.4516 -0.5280 -0.8870
13036TIP3   OH260522   4.070   0.165  15.942 -0.4289  0.0846  0.2426
13036TIP3    H160523   3.983   0.191  15.910 -1.5954 -1.6832  1.7589
13036TIP3    H260524   4.119   0.144  15.862 -1.7631  0.0839 -0.6171
13037TIP3   OH260525   1.963   3.498  12.764  0.3609  0.2468  0.0288
13037TIP3    H160526   1.983   3.532  12.677 -0.3507 -0.9798 -0.6370
13037TIP3    H260527   2.029   3.431  12.780  0.7994  0.8056  0.6751
13038TIP3   OH260528   6.484   1.539  11.274  0.3798  0.4668 -0.1827
13038TIP3    H160529   6.552   1.603  11.294  2.0701 -1.1602 -0.4477
13038TIP3    H260530   6.514   1.497  11.194 -0.9388 -0.3212 -0.2872
13039TIP3   OH260531   1.496   6.447  14.103  0.2857 -0.2790 -0.3155
13039TIP3    H160532   1.550   6.415  14.175  0.7558  2.3053  0.5628
13039TIP3    H260533   1.408   6.454  14.140  0.0856 -0.9273 -0.6458
13040TIP3   OH260534   2.272   6.536   6.622 -0.4141 -0.1307 -0.1021
13040TIP3    H160535   2.288   6.446   6.592 -0.7458 -0.0994 -0.3785
13040TIP3    H260536   2.356   6.579   6.613 -0.2840 -0.3795 -0.0960
13041TIP3   OH260537   3.799   2.825   1.863  0.0876  0.3022  0.0955
13041TIP3    H160538   3.863   2.848   1.796 -0.4758 -2.2059 -1.4316
13041TIP3    H260539   3.714   2.841   1.822 -0.2711  0.1452  0.7585
13042TIP3   OH260540   5.285   6.422   5.086 -0.2698  0.3703  0.0583
13042TIP3    H160541   5.191   6.407   5.074  0.0132  0.4689 -2.9662
13042TIP3    H260542   5.320   6.337   5.111 -0.9791 -0.0072 -0.2173
13043TIP3   OH260543   6.357   1.156  16.152  0.0509  0.9458 -0.2997
13043TIP3    H160544   6.396   1.069  16.143 -1.4870 -0.1543  2.3316
13043TIP3    H260545   6.429   1.217  16.137  1.6000 -0.8400 -0.4439
13044TIP3   OH260546   6.266   6.695   5.936 -0.3562  0.8115  0.3651
13044TIP3    H160547   6.347   6.657   5.901 -0.6036 -0.8995  1.5142
13044TIP3    H260548   6.233   6.629   5.997 -1.8924  2.0793  0.9834
13045TIP3   OH260549   4.987   6.044   2.497 -0.2593 -0.1057  0.8328
13045TIP3    H160550   4.951   6.112   2.555 -2.1004 -0.4303  0.1353
13045TIP3    H260551   5.029   6.092   2.426  0.2781  0.2941  1.4158
13046TIP3   OH260552   2.036   6.151   2.531 -0.4670 -0.7294  0.1369
13046TIP3    H160553   2.096   6.202   2.585 -1.7015  0.4837  0.4317
13046TIP3    H260554   2.000   6.085   2.591 -0.0871 -0.8868  0.1899
13047TIP3   OH260555   5.168   4.215  13.724  0.4051 -0.2508  0.0364
13047TIP3    H160556   5.241   4.172  13.768  0.1481 -0.3226  0.3988
13047TIP3    H260557   5.147   4.159  13.650  0.2418 -0.6102  0.3556
13048TIP3   OH260558   1.144   3.864  11.189 -0.0639 -0.1654  0.1516
13048TIP3    H160559   1.234   3.841  11.212  0.1896  0.5125 -0.1478
13048TIP3    H260560   1.153   3.926  11.117 -0.7560  0.3197  0.4752
13049TIP3   OH260561   0.200   6.048   5.812 -0.0531 -0.2190  0.1793
13049TIP3    H160562   0.259   6.122   5.827 -0.2233  0.4086 -1.9028
13049TIP3    H260563   0.124   6.086   5.768  0.3605 -1.7204 -2.0369
13050TIP3   OH260564   6.359   0.994   5.793  0.1865  0.4733  0.0855
13050TIP3    H160565   6.390   0.937   5.863  1.0070 -0.2986 -0.8786
13050TIP3    H260566   6.423   1.065   5.789  1.0549 -0.3458 -0.9386
13051TIP3   OH260567   4.657   2.670   1.152 -0.0794 -0.5536  0.0154
13051TIP3    H160568   4.751   2.682   1.165 -0.3313  1.0303  0.5312
13051TIP3    H260569   4.647   2.663   1.057  0.4087  0.8527 -0.1531
13052TIP3   OH260570   0.059   4.763  12.324  0.8389  0.0656  0.6969
13052TIP3    H160571   0.141   4.765  12.374  1.1260 -0.1552  0.2455
13052TIP3    H260572   0.040   4.669  12.314  1.4963  0.0454 -0.7316
13053TIP3   OH260573   2.951   2.095   4.931 -0.1741 -0.1610 -0.7843
13053TIP3    H160574   2.923   2.187   4.925  0.2915  0.1111  0.9132
13053TIP3    H260575   2.946   2.063   4.840  0.0749  1.6577 -1.4853
13054TIP3   OH260576   0.676   1.500  11.058 -0.1473 -0.0725  0.5576
13054TIP3    H160577   0.614   1.465  10.994 -0.1382 -0.8655  0.9636
13054TIP3    H260578   0.623   1.559  11.112  0.2671  2.1699 -1.3659
13055TIP3   OH260579   0.710   6.239  12.880  0.3873  0.1201 -0.4880
13055TIP3    H160580   0.789   6.250  12.932 -0.1887  1.9111  0.0453
13055TIP3    H260581   0.665   6.323  12.884 -1.8260 -0.9848 -0.3428
13056TIP3   OH260582   4.059   1.422   6.804 -0.5172  0.2514  0.7538
13056TIP3    H160583   4.103   1.493   6.850 -0.7680  2.0563 -1.5929
13056TIP3    H260584   3.972   1.457   6.785  0.0906  0.3731 -2.4491
13057TIP3   OH260585   0.068   2.516  16.070 -0.1512  0.2889 -0.1637
13057TIP3    H160586   0.065   2.484  16.160  2.0355  1.6672  0.4764
13057TIP3    H260587   0.158   2.546  16.057 -0.3461  0.0072 -2.8806
13058TIP3   OH260588   3.771   1.668   6.518 -0.8051 -0.3914  0.5116
13058TIP3    H160589   3.693   1.723   6.509 -0.3277  0.6198  2.1085
13058TIP3    H260590   3.795   1.645   6.428 -1.1389  1.8900 -0.2213
13059TIP3   OH260591   5.630   0.843   3.222 -0.0375 -0.4815 -0.0185
13059TIP3    H160592   5.543   0.859   3.259  0.9971  2.1105  1.5414
13059TIP3    H260593   5.625   0.877   3.133 -0.4949  0.0986  0.2244
13060TIP3   OH260594   0.953   4.650   0.136  0.1284 -0.0542  0.2711
13060TIP3    H160595   1.043   4.651   0.166 -0.2115 -0.1144  1.3218
13060TIP3    H260596   0.958   4.676   0.044  1.3555 -1.4215 -0.0879
13061TIP3   OH260597   1.160   4.546   2.539  0.3488 -0.3911  0.4117
13061TIP3    H160598   1.167   4.464   2.589  0.4382 -0.1379  0.8190
13061TIP3    H260599   1.095   4.527   2.471 -2.0028  0.1358  2.3779
13062TIP3   OH260600   4.168   5.172  14.262  0.5508 -0.4115  0.1796
13062TIP3    H160601   4.101   5.147  14.327  0.9238  0.5176  0.9452
13062TIP3    H260602   4.241   5.112  14.280 -1.1570 -3.7817 -2.8362
13063TIP3   OH260603   6.421   4.593   6.030 -0.4922 -0.0745  0.9327
13063TIP3    H160604   6.420   4.688   6.041 -2.4089  0.1799 -0.7202
13063TIP3    H260605   6.475   4.579   5.952 -2.4956  0.0145 -0.5706
13064TIP3   OH260606   4.989   4.934   4.929  0.0782  0.3035 -0.0771
13064TIP3    H160607   4.969   5.026   4.913  0.0501  0.0008 -2.0224
13064TIP3    H260608   4.918   4.885   4.886  1.4500 -0.6417 -1.4022
13065TIP3   OH260609   0.934   3.107   1.187  0.1251  0.0651  0.7052
13065TIP3    H160610   0.916   3.042   1.255 -0.6238 -1.6205 -1.0046
13065TIP3    H260611   1.001   3.163   1.225 -2.1006  0.8817  3.8352
13066TIP3   OH260612   4.054   3.188  12.269  0.4132 -0.3098  0.0642
13066TIP3    H160613   4.028   3.142  12.190 -0.9645 -0.0034  0.3101
13066TIP3    H260614   4.106   3.262  12.238 -0.7984  0.2800 -0.6379
13067TIP3   OH260615   1.330   3.178  13.735  0.1427  0.2403 -0.3822
13067TIP3    H160616   1.296   3.245  13.675 -0.5274 -0.2584 -0.5637
13067TIP3    H260617   1.423   3.200  13.745  0.8566 -1.0023 -3.4134
13068TIP3   OH260618   3.516   1.042   4.242 -0.5081 -0.5231  0.1082
13068TIP3    H160619   3.566   0.962   4.258  1.2965  0.6016  0.3421
13068TIP3    H260620   3.518   1.089   4.325  0.8360  0.9944 -0.7170
13069TIP3   OH260621   5.950   6.014   0.524  0.0777 -0.3808 -0.0332
13069TIP3    H160622   5.864   6.042   0.492  0.8494  1.1266 -0.9267
13069TIP3    H260623   6.009   6.029   0.450  1.1360 -1.2861  0.5970
13070TIP3   OH260624   6.164   4.214  14.905  0.2639  0.7409  0.3029
13070TIP3    H160625   6.117   4.131  14.910 -0.4145  1.0532 -0.6490
13070TIP3    H260626   6.238   4.204  14.966 -1.4045  0.4782  2.4035
13071TIP3   OH260627   2.484   0.916   1.059  0.0519 -0.5295 -0.6048
13071TIP3    H160628   2.575   0.898   1.082  0.4038  1.6256 -0.0536
13071TIP3    H260629   2.488   0.997   1.008 -1.6287  0.3014  0.4836
13072TIP3   OH260630   2.952   1.441   3.396 -0.4776 -0.3005  0.4586
13072TIP3    H160631   2.867   1.459   3.435 -0.0151 -0.0622  1.3963
13072TIP3    H260632   2.986   1.367   3.446 -0.1609 -0.4373  0.0456
13073TIP3   OH260633   1.060   4.794   2.580 -0.3662 -0.7833 -0.0769
13073TIP3    H160634   1.048   4.755   2.667  1.4420 -0.6435  0.2638
13073TIP3    H260635   0.992   4.754   2.526 -2.1892 -0.1287  1.6156
13074TIP3   OH260636   1.403   3.718  14.485 -0.0054  0.1210 -0.4930
13074TIP3    H160637   1.396   3.784  14.415 -0.1261 -0.1190 -0.7086
13074TIP3    H260638   1.316   3.679  14.489  0.3329 -0.7187 -1.0481
13075TIP3   OH260639   3.512   3.692   3.377  0.6638  0.3766  0.2218
13075TIP3    H160640   3.454   3.620   3.404  0.8376 -0.2395 -0.9959
13075TIP3    H260641   3.584   3.689   3.440  0.9235 -0.8597 -0.1026
13076TIP3   OH260642   1.357   5.069  16.942 -0.0313 -0.4057 -0.0763
13076TIP3    H160643   1.417   5.001  16.974  0.4863  1.1004  2.4731
13076TIP3    H260644   1.353   5.132  17.014  0.4869  2.9518 -2.7670
13077TIP3   OH260645   6.745   1.994  16.800  0.0806 -0.3405 -0.8500
13077TIP3    H160646   6.805   1.955  16.864  1.3834  2.6882 -0.0471
13077TIP3    H260647   6.771   1.956  16.716 -0.3413 -2.8841  0.0678
13078TIP3   OH260648   3.321   6.508   5.579  0.0895 -0.1842 -0.3103
13078TIP3    H160649   3.387   6.465   5.632 -1.7855 -0.5166  1.8999
13078TIP3    H260650   3.329   6.601   5.602 -1.3858 -0.4447  1.4350
13079TIP3   OH260651   1.237   4.369  14.541  0.2106 -0.2663  0.0937
13079TIP3    H160652   1.278   4.326  14.616 -0.7995  0.6901  1.2425
13079TIP3    H260653   1.147   4.384  14.569 -0.3537 -0.3940 -1.5485
13080TIP3   OH260654   2.687   1.705  15.007  0.2687 -0.7304 -0.5461
13080TIP3    H160655   2.691   1.764  14.932  0.8446  0.8729  0.6901
13080TIP3    H260656   2.593   1.690  15.021  0.1566 -1.0689 -1.5780
13081TIP3   OH260657   5.653   2.846   2.383 -0.6133 -0.4970 -0.6365
13081TIP3    H160658   5.728   2.802   2.424 -2.4948 -0.8176  2.8871
13081TIP3    H260659   5.611   2.777   2.330  0.9164 -0.5952 -1.7774
13082TIP3   OH260660   2.976   6.151  15.906 -0.2129  0.0884 -0.2047
13082TIP3    H160661   2.882   6.150  15.926 -0.6846  0.1883 -2.1898
13082TIP3    H260662   3.018   6.166  15.990 -1.9372 -0.7010  0.8544
13083TIP3   OH260663   5.849   3.947  14.434  0.0809 -0.7847 -0.3853
13083TIP3    H160664   5.864   3.946  14.528 -1.1578 -1.0502 -0.1765
13083TIP3    H260665   5.755   3.962  14.425  0.0189 -1.7350 -1.5505
13084TIP3   OH260666   2.211   1.589  16.275  0.4592  0.0393  0.1667
13084TIP3    H160667   2.227   1.572  16.182 -0.3746  1.2513 -0.2302
13084TIP3    H260668   2.141   1.655  16.276  0.1073 -0.3085  1.6663
13085TIP3   OH260669   3.414   2.338  14.717  0.8517  0.5596 -0.2318
13085TIP3    H160670   3.417   2.244  14.699 -2.3588  0.1422  0.7227
13085TIP3    H260671   3.481   2.352  14.784 -0.6949 -1.7974  2.0201
13086TIP3   OH260672   5.779   4.365  16.657 -0.0942  0.2061  0.3190
13086TIP3    H160673   5.771   4.327  16.745  0.1957 -0.8221 -0.0911
13086TIP3    H260674   5.745   4.454  16.667 -1.6388 -0.4437  1.0876
13087TIP3   OH260675   4.780   2.723  11.616  0.2926 -0.2287 -0.5061
13087TIP3    H160676   4.806   2.632  11.607  1.7076  0.1476 -0.4930
13087TIP3    H260677   4.787   2.741  11.710  1.7041  0.3327 -0.6881
13088TIP3   OH260678   2.939   0.838  14.546  0.5096 -0.1143  0.2522
13088TIP3    H160679   2.968   0.838  14.455  1.0395  0.3877  0.4170
13088TIP3    H260680   3.017   0.862  14.597  0.3462 -0.8565  0.8825
13089TIP3   OH260681   4.708   5.318   6.333 -0.3227 -0.9205  0.3402
13089TIP3    H160682   4.764   5.246   6.360  0.4656 -0.7474 -0.7422
13089TIP3    H260683   4.692   5.302   6.240  1.7690  1.4424 -0.5471
13090TIP3   OH260684   2.068   2.742  12.517 -0.0098  0.0642 -0.3240
13090TIP3    H160685   2.106   2.735  12.604  1.2095 -0.2690 -0.8483
13090TIP3    H260686   2.033   2.654  12.499  0.7882 -0.2123 -0.6029
13091TIP3   OH260687   1.601   3.513  12.531 -0.7937 -0.0912  0.2520
13091TIP3    H160688   1.551   3.431  12.528  0.1616 -0.6748  0.0080
13091TIP3    H260689   1.631   3.527  12.442  0.9790 -0.7112  0.7073
13092TIP3   OH260690   2.186   4.368  15.967  0.5629  0.1213  0.5607
13092TIP3    H160691   2.170   4.275  15.984  0.2357 -0.4228 -2.1624
13092TIP3    H260692   2.169   4.411  16.050  1.4620 -2.3121  2.1262
13093TIP3   OH260693   4.755   6.588   2.239 -0.1948  0.2138 -0.1213
13093TIP3    H160694   4.674   6.539   2.247 -3.1991  4.6600  0.5091
13093TIP3    H260695   4.780   6.608   2.329  1.1783 -0.3822 -0.3453
13094TIP3   OH260696   4.086   3.187  13.233  0.3473  0.4291 -0.1648
13094TIP3    H160697   3.993   3.208  13.237 -0.9815 -4.0974 -1.0977
13094TIP3    H260698   4.089   3.095  13.207  5.1280  0.1380  0.4160
13095TIP3   OH260699   0.238   3.421  12.927  0.2591 -0.3020  0.1961
13095TIP3    H160700   0.244   3.437  13.021 -0.0982 -1.5937  0.4539
13095TIP3    H260701   0.166   3.359  12.917  0.9454 -0.9686 -0.8293
13096TIP3   OH260702   6.352   5.969   0.685  0.2716  0.1498 -0.0458
13096TIP3    H160703   6.392   5.919   0.614 -0.3506  0.8545 -0.9047
13096TIP3    H260704   6.423   5.984   0.747  0.4549 -1.9465  0.3506
13097TIP3   OH260705   2.565   6.096   1.022  0.0629  0.0368 -0.6826
13097TIP3    H160706   2.544   6.067   1.110 -1.1272 -1.8707 -1.5246
13097TIP3    H260707   2.618   6.026   0.985  0.4666  0.7629 -1.5317
13098TIP3   OH260708   6.552   1.152  16.431 -0.3303 -0.6085  0.4087
13098TIP3    H160709   6.605   1.078  16.403 -1.0447 -1.3524  0.9825
13098TIP3    H260710   6.609   1.228  16.421  0.3123 -1.1965 -0.4625
13099TIP3   OH260711   0.385   5.235  16.000  0.2438 -0.1238  0.1046
13099TIP3    H160712   0.356   5.301  15.936  0.2045 -0.1746  0.0691
13099TIP3    H260713   0.479   5.249  16.008  0.2627 -0.1697 -0.0267
13100TIP3   OH260714   1.144   6.062   1.454 -0.0240 -0.1525  0.3397
13100TIP3    H160715   1.134   6.037   1.545  0.9818 -1.1646  0.1915
13100TIP3    H260716   1.237   6.085   1.445 -0.4614  1.5852 -0.0479
13101TIP3   OH260717   1.880   3.231  14.674 -0.3652  0.0750 -0.0570
13101TIP3    H160718   1.924   3.193  14.598 -1.5723 -0.3211 -0.5824
13101TIP3    H260719   1.787   3.211  14.661 -0.9660  2.4429  0.0867
13102TIP3   OH260720   0.804   5.901   1.719 -0.4721 -0.0207 -0.1060
13102TIP3    H160721   0.775   5.978   1.767 -0.3495  0.4980 -0.8571
13102TIP3    H260722   0.734   5.837   1.732 -0.5628  0.1980  0.5424
13103TIP3   OH260723   5.505   2.580   5.687  0.4244 -0.2177 -0.1457
13103TIP3    H160724   5.531   2.665   5.722  1.5640 -0.6878  0.2125
13103TIP3    H260725   5.582   2.549   5.639 -0.3413 -0.5903 -1.1817
13104TIP3   OH260726   2.971   2.165   6.597 -0.6139  0.4327 -0.1126
13104TIP3    H160727   3.049   2.109   6.603 -0.4348  0.5494 -1.1692
13104TIP3    H260728   2.906   2.111   6.552 -0.0194  1.4597 -2.3531
13105TIP3   OH260729   0.537   1.364  12.056  0.1235 -0.2856 -0.7424
13105TIP3    H160730   0.516   1.348  12.147 -0.8651  0.4072 -0.8421
13105TIP3    H260731   0.477   1.308  12.007  1.3536 -1.4596 -0.9748
13106TIP3   OH260732   5.466   6.099   1.433 -0.0608  0.3508 -0.1175
13106TIP3    H160733   5.529   6.027   1.442 -0.2273  0.1524 -0.5437
13106TIP3    H260734   5.389   6.070   1.482  0.6701  1.1985  1.6540
13107TIP3   OH260735   3.579   3.106  12.311  0.1182  0.1250 -0.0907
13107TIP3    H160736   3.558   3.080  12.401  0.4893  0.5172  0.1132
13107TIP3    H260737   3.613   3.196  12.320 -0.5163  0.4288 -0.7011
13108TIP3   OH260738   2.595   4.869  16.719 -0.0464  0.8900  0.2094
13108TIP3    H160739   2.559   4.891  16.805 -0.8883  3.8731 -0.7827
13108TIP3    H260740   2.556   4.785  16.697  0.1879  0.0462  2.6954
13109TIP3   OH260741   5.985   0.515  16.997 -1.3396 -0.2390  0.2150
13109TIP3    H160742   5.984   0.433  16.947 -1.4376 -0.2773  0.2778
13109TIP3    H260743   6.072   0.552  16.980 -1.3490 -0.2822  0.0661
13110TIP3   OH260744   4.757   4.616  11.559 -0.8192  0.6237 -0.3926
13110TIP3    H160745   4.805   4.580  11.484  1.9702  2.3201  0.4075
13110TIP3    H260746   4.807   4.587  11.635 -1.7913  1.4862  0.6122
13111TIP3   OH260747   4.392   2.344  14.409  0.5043  0.1031 -0.9695
13111TIP3    H160748   4.340   2.358  14.489  0.9423  0.0186 -0.6667
13111TIP3    H260749   4.388   2.250  14.394  0.6981  0.0781 -0.8605
13112TIP3   OH260750   4.396   4.322  16.369 -0.4852  0.1666  0.0651
13112TIP3    H160751   4.426   4.239  16.331 -0.6253  0.1176  0.0570
13112TIP3    H260752   4.474   4.377  16.374 -0.4126  0.0719 -0.0309
13113TIP3   OH260753   0.186   0.587  15.815  0.7093 -0.1853  0.3948
13113TIP3    H160754   0.279   0.603  15.832  1.1979 -1.3091 -0.9949
13113TIP3    H260755   0.179   0.584  15.720 -0.6283 -0.7946  0.4883
13114TIP3   OH260756   4.867   6.612  15.905  0.0944  0.1577  0.2606
13114TIP3    H160757   4.856   6.672  15.832 -0.2777 -2.3798 -1.9037
13114TIP3    H260758   4.862   6.668  15.983 -0.8067  2.8005 -1.5603
13115TIP3   OH260759   5.095   2.506   1.751  0.4404  0.4937 -0.1651
13115TIP3    H160760   5.063   2.589   1.787 -0.6199 -0.9498  2.5469
13115TIP3    H260761   5.085   2.515   1.656 -1.0661  2.9054  0.1401
13116TIP3   OH260762   2.410   6.634  11.002  0.0229  0.3127  0.6097
13116TIP3    H160763   2.358   6.652  10.923  0.7125  1.7593  0.4661
13116TIP3    H260764   2.499   6.660  10.979  0.1339  1.2700  2.0491
13117TIP3   OH260765   0.843   2.026   2.107  0.1633  0.1764  0.7553
13117TIP3    H160766   0.824   2.105   2.158  1.3134  1.4879 -0.7709
13117TIP3    H260767   0.767   2.017   2.049  1.4604  2.1795 -1.4158
13118TIP3   OH260768   1.448   4.063  14.502 -0.3247  0.2772 -0.4126
13118TIP3    H160769   1.434   4.045  14.409 -1.7285  0.4535 -0.2654
13118TIP3    H260770   1.486   4.151  14.503 -0.0957  0.1881 -0.8310
13119TIP3   OH260771   1.434   3.017   4.340  0.2510  0.3708  0.6970
13119TIP3    H160772   1.493   3.074   4.292 -1.8395  1.8898 -0.2114
13119TIP3    H260773   1.431   2.936   4.289  1.5901  0.2264  0.8243
13120TIP3   OH260774   0.447   0.852   0.100  0.6776 -0.1830 -0.2468
13120TIP3    H160775   0.405   0.894   0.025 -1.6065  0.4476  1.2924
13120TIP3    H260776   0.472   0.924   0.158  2.3159 -0.6666 -0.2815
13121TIP3   OH260777   2.769   2.232   5.840 -0.5356  0.1949 -0.1176
13121TIP3    H160778   2.797   2.254   5.928 -0.5463  0.7693 -0.2582
13121TIP3    H260779   2.762   2.316   5.795 -1.5305 -0.0134 -0.3649
13122TIP3   OH260780   1.028   6.477  11.028  0.1547 -0.1645 -0.2304
13122TIP3    H160781   1.079   6.398  11.049 -0.7040 -0.7238 -0.1740
13122TIP3    H260782   1.067   6.510  10.948  0.6906 -0.5087 -0.1209
13123TIP3   OH260783   3.243   6.436  16.861 -0.7261  0.4868 -0.2081
13123TIP3    H160784   3.286   6.521  16.868  0.7557 -0.2446  0.1942
13123TIP3    H260785   3.310   6.379  16.822 -1.3240 -0.7252  0.4749
13124TIP3   OH260786   2.658   1.210   1.947  0.3352  0.2347 -0.0287
13124TIP3    H160787   2.590   1.256   1.996  1.5453  2.4917 -0.3330
13124TIP3    H260788   2.739   1.229   1.995  1.1316 -0.0245 -1.2187
13125TIP3   OH260789   6.427   1.276   3.243  0.0124 -0.0954 -0.2667
13125TIP3    H160790   6.346   1.241   3.280 -0.0843 -0.7187 -1.0315
13125TIP3    H260791   6.483   1.293   3.319 -0.3216 -0.9759  0.1943
13126TIP3   OH260792   3.380   4.018  14.075 -0.2177 -0.0105  0.3288
13126TIP3    H160793   3.321   4.027  14.001 -0.3630  0.4119  0.4922
13126TIP3    H260794   3.368   4.098  14.125  0.8531  0.3092  0.1025
13127TIP3   OH260795   1.041   0.203  12.928 -0.1051  0.2936  0.1317
13127TIP3    H160796   0.982   0.128  12.921 -2.4521  2.1383 -1.7946
13127TIP3    H260797   1.123   0.173  12.890 -0.6681 -1.5285  0.2445
13128TIP3   OH260798   0.427   2.059   3.005  0.1048  0.4615 -0.3025
13128TIP3    H160799   0.360   2.104   2.952 -0.5020  1.3082  1.1123
13128TIP3    H260800   0.486   2.019   2.941 -1.9397 -0.6254 -1.6232
13129TIP3   OH260801   5.399   1.339  14.304  0.2883 -0.4334 -0.4802
13129TIP3    H160802   5.391   1.425  14.347  0.8546 -1.0558  0.9350
13129TIP3    H260803   5.332   1.340  14.236 -0.4496  0.7306  0.2209
13130TIP3   OH260804   2.000   3.313   1.351 -0.1837 -0.3684 -0.3828
13130TIP3    H160805   1.975   3.237   1.299 -1.1906 -0.6450  0.4633
13130TIP3    H260806   1.979   3.288   1.441 -0.4219  0.8590 -0.0774
13131TIP3   OH260807   3.613   4.625   3.479  0.1427 -0.1032 -0.6245
13131TIP3    H160808   3.677   4.553   3.482  1.0264  0.6917  0.9416
13131TIP3    H260809   3.528   4.582   3.471  0.6126 -1.3687  0.7625
13132TIP3   OH260810   2.621   5.533  12.385 -0.1437 -0.6302  0.0784
13132TIP3    H160811   2.668   5.469  12.440  0.0548 -0.9134 -0.4139
13132TIP3    H260812   2.688   5.567  12.326 -0.3506 -0.2955  0.0367
13133TIP3   OH260813   2.993   5.973  14.464 -0.8715 -0.5540  0.6957
13133TIP3    H160814   2.975   6.052  14.513 -0.9788 -0.4919  0.5564
13133TIP3    H260815   2.934   5.977  14.388  0.7820  0.4328 -0.6173
13134TIP3   OH260816   2.450   3.023   1.725 -0.0936  0.2964 -0.5594
13134TIP3    H160817   2.475   3.104   1.680  1.1753 -0.0503 -0.4927
13134TIP3    H260818   2.415   2.967   1.655 -0.7713  0.8112 -0.6402
13135TIP3   OH260819   4.006   5.931   5.367 -0.1964  0.7110 -0.0375
13135TIP3    H160820   3.992   6.017   5.407 -1.6641  0.0722  0.9119
13135TIP3    H260821   3.933   5.922   5.306 -0.1040  0.1094 -0.0577
13136TIP3   OH260822   3.241   4.716   3.166  0.1487 -0.2070 -0.4945
13136TIP3    H160823   3.266   4.803   3.134  1.4934  0.7212  2.6620
13136TIP3    H260824   3.319   4.662   3.152  0.6908  0.1654  0.9126
13137TIP3   OH260825   0.419   2.175  13.070 -0.2007 -0.1126  0.4208
13137TIP3    H160826   0.493   2.171  13.008  1.2036 -0.2613  2.0397
13137TIP3    H260827   0.363   2.101  13.045  0.2562 -0.0946 -0.7396
13138TIP3   OH260828   3.687   4.637  14.768 -0.2674 -0.3175  0.2904
13138TIP3    H160829   3.641   4.670  14.845 -0.1853 -1.4147  0.8195
13138TIP3    H260830   3.625   4.649  14.696 -0.6999 -0.1664  0.6825
13139TIP3   OH260831   2.513   2.617  16.908  0.1210 -0.6591 -0.7391
13139TIP3    H160832   2.516   2.625  16.813 -0.8001  1.1077 -0.6562
13139TIP3    H260833   2.420   2.612  16.929  0.2916 -0.5128  0.1113
13140TIP3   OH260834   1.949   1.203   3.190  0.1615  0.2712  0.5329
13140TIP3    H160835   2.026   1.238   3.145  0.2744  0.4692  0.8719
13140TIP3    H260836   1.883   1.194   3.122  0.9821 -1.4360 -0.0777
13141TIP3   OH260837   0.199   4.678   3.935  0.4482  0.7679 -0.3096
13141TIP3    H160838   0.215   4.614   4.005 -4.0210  0.5225  0.7742
13141TIP3    H260839   0.218   4.763   3.974  1.0221  0.4550  0.1036
13142TIP3   OH260840   3.955   5.550  16.874 -0.0280  0.1097  0.0588
13142TIP3    H160841   3.967   5.644  16.862 -1.8082  0.4409  0.6728
13142TIP3    H260842   4.022   5.526  16.938 -1.1422  1.4729  1.8371
13143TIP3   OH260843   0.882   0.383  13.375  0.0921 -0.2566  0.1936
13143TIP3    H160844   0.880   0.370  13.280 -0.0444 -2.9996  0.5179
13143TIP3    H260845   0.908   0.299  13.411 -3.2134 -0.3560  2.7884
13144TIP3   OH260846   4.909   0.445  15.136 -0.6654 -0.2204  0.6192
13144TIP3    H160847   4.818   0.472  15.152 -0.7542  0.4159 -0.7961
13144TIP3    H260848   4.951   0.453  15.221 -1.5881  0.9182  1.0027
13145TIP3   OH260849   2.924   1.225   2.929 -0.0889  0.4451  0.0392
13145TIP3    H160850   2.936   1.130   2.928  1.8485  0.6503 -1.5979
13145TIP3    H260851   3.008   1.259   2.960 -1.5524  1.6378  3.2280
13146TIP3   OH260852   2.962   4.545  15.410 -1.2268 -0.2456 -0.7556
13146TIP3    H160853   2.888   4.575  15.461 -0.6343  2.2286 -1.2143
13146TIP3    H260854   2.984   4.619  15.354  3.0401  0.0786  0.9944
13147TIP3   OH260855   6.109   4.345  16.183 -0.0145 -0.1042  0.3206
13147TIP3    H160856   6.173   4.274  16.178  0.7977  0.6384 -0.1303
13147TIP3    H260857   6.025   4.303  16.163  0.5621 -0.7860 -0.8064
13148TIP3   OH260858   0.292   0.032   5.637  0.0668  0.1237  0.4678
13148TIP3    H160859   0.205   0.064   5.662 -0.6671  0.4170 -2.1109
13148TIP3    H260860   0.275  -0.024   5.561  2.0849 -0.3606  0.3220
13149TIP3   OH260861   5.342   1.323   5.384 -0.0736 -0.0964  0.3352
13149TIP3    H160862   5.258   1.342   5.343  0.0474 -2.0059 -0.9494
13149TIP3    H260863   5.390   1.273   5.318  1.4541 -0.4313  1.6316
13150TIP3   OH260864   6.387   3.443   4.615 -0.3455  0.4743 -0.2240
13150TIP3    H160865   6.423   3.439   4.704 -0.5270  0.9123 -0.1288
13150TIP3    H260866   6.297   3.411   4.624  0.1122 -0.9403 -0.5200
13151TIP3   OH260867   3.634   6.299  13.131 -0.0902 -0.2300  0.1213
13151TIP3    H160868   3.676   6.294  13.217 -0.6276 -0.7104  0.3568
13151TIP3    H260869   3.600   6.211  13.114 -2.2900  0.4624  0.6005
13152TIP3   OH260870   2.548   0.113   0.594  0.1520 -0.3459 -0.3749
13152TIP3    H160871   2.635   0.086   0.564  0.9729  2.5124 -0.9168
13152TIP3    H260872   2.488   0.077   0.529  1.0550 -1.2340 -0.7470
13153TIP3   OH260873   3.390   6.161  14.581 -0.3170  0.1780 -0.0010
13153TIP3    H160874   3.313   6.126  14.626  0.7584 -1.3453  0.7279
13153TIP3    H260875   3.424   6.228  14.640 -0.5590  0.2380  0.0735
13154TIP3   OH260876   4.778   5.856   1.152 -0.1683 -0.1799  0.1367
13154TIP3    H160877   4.817   5.916   1.089 -1.1359 -1.8914 -2.2310
13154TIP3    H260878   4.690   5.892   1.167  0.4515  0.8483  1.4511
13155TIP3   OH260879   3.409   1.223   1.015  0.1952  0.7379 -0.3504
13155TIP3    H160880   3.445   1.186   0.935  0.3301  0.1749 -0.0355
13155TIP3    H260881   3.381   1.312   0.990 -0.6016  0.2542 -1.2434
13156TIP3   OH260882   1.904   4.284   3.141  0.0214 -0.1361  0.3953
13156TIP3    H160883   1.950   4.208   3.177 -0.5731 -0.1970  1.0344
13156TIP3    H260884   1.895   4.344   3.215 -0.8688 -0.0941  0.2636
13157TIP3   OH260885   0.961   4.569   3.105 -0.0809  0.0793  0.2953
13157TIP3    H160886   1.005   4.560   3.190  1.1149 -0.7453 -0.3930
13157TIP3    H260887   1.028   4.548   3.040 -1.2968 -0.4857 -0.8179
13158TIP3   OH260888   0.737   2.174   1.460  0.0526 -0.5628 -0.5459
13158TIP3    H160889   0.703   2.176   1.370 -0.6459  1.9346 -0.3065
13158TIP3    H260890   0.671   2.124   1.509 -1.1517  0.6364 -0.8849
13159TIP3   OH260891   6.139   3.016  13.386  0.5415 -0.8298 -0.1041
13159TIP3    H160892   6.128   3.109  13.370 -1.1875 -0.5818  1.9897
13159TIP3    H260893   6.130   2.975  13.301 -0.3945  0.7889 -0.8196
13160TIP3   OH260894   3.761   4.249   5.139 -0.1085 -0.1405 -0.1879
13160TIP3    H160895   3.844   4.295   5.126 -0.7910  0.8827 -1.1759
13160TIP3    H260896   3.769   4.208   5.225  0.8080  1.2757  0.4455
13161TIP3   OH260897   2.358   0.481   5.101 -0.0027  0.0560  0.3203
13161TIP3    H160898   2.397   0.498   5.187  0.2828  2.4879 -0.2318
13161TIP3    H260899   2.275   0.436   5.121 -0.0243  0.7224  1.8726
13162TIP3   OH260900   1.176   4.478   2.029 -0.6086  0.3575  0.4093
13162TIP3    H160901   1.116   4.537   1.982 -0.0391  1.7812  1.3934
13162TIP3    H260902   1.257   4.482   1.979 -0.5793  0.3662  0.4584
13163TIP3   OH260903   5.614   1.752  14.208 -0.6312 -0.0284  0.0028
13163TIP3    H160904   5.685   1.813  14.188 -0.3204  0.9799  3.4424
13163TIP3    H260905   5.656   1.667  14.212  0.4012  0.5055  1.6027
13164TIP3   OH260906   6.003   6.329   2.986  0.5353  0.0632 -0.4481
13164TIP3    H160907   6.050   6.282   2.918 -0.2350 -1.2570 -0.1294
13164TIP3    H260908   5.912   6.332   2.955  0.2021 -0.4313  0.4255
13165TIP3   OH260909   2.996   6.237   0.207 -0.0029  1.0080  0.4803
13165TIP3    H160910   3.027   6.147   0.216  2.1244  1.6476  0.1428
13165TIP3    H260911   2.901   6.230   0.200  0.0877 -1.1579  0.9441
13166TIP3   OH260912   3.966   0.542  16.076 -0.3680  0.1480  0.1212
13166TIP3    H160913   3.879   0.502  16.072  0.0021 -0.9223  1.8378
13166TIP3    H260914   3.984   0.553  16.169  0.9659  1.2035 -0.2261
13167TIP3   OH260915   0.437   2.633   2.028 -0.1793  0.1112  0.1453
13167TIP3    H160916   0.387   2.655   1.950  1.3120 -2.9732 -1.8941
13167TIP3    H260917   0.390   2.559   2.067  1.0462 -0.8080 -0.0346
13168TIP3   OH260918   4.833   4.674  12.330 -0.2180  0.0402  0.0464
13168TIP3    H160919   4.829   4.768  12.350 -0.6221 -0.4479  2.6072
13168TIP3    H260920   4.921   4.648  12.357 -0.6330 -0.6017  0.8070
13169TIP3   OH260921   6.211   0.291  15.047  0.1263  0.1728 -0.9158
13169TIP3    H160922   6.157   0.262  15.121  1.0712  0.3496 -0.1456
13169TIP3    H260923   6.300   0.289  15.080  0.6261 -0.2700 -2.2272
13170TIP3   OH260924   5.081   6.629   5.300 -0.5343  0.2302  0.4109
13170TIP3    H160925   5.000   6.680   5.302 -0.4788  0.3586 -0.3540
13170TIP3    H260926   5.072   6.566   5.371 -0.7724  1.0465  1.1263
13171TIP3   OH260927   0.048   5.826  16.582 -0.1436 -0.7425  0.1569
13171TIP3    H160928   0.037   5.734  16.604  0.7300 -1.3421 -1.6882
13171TIP3    H260929   0.002   5.873  16.651 -1.6949 -2.5831  0.4530
13172TIP3   OH260930   3.711   5.433  13.376 -0.0045 -0.2587  0.2262
13172TIP3    H160931   3.738   5.525  13.373  1.9110 -0.7820  0.2814
13172TIP3    H260932   3.627   5.435  13.421 -0.4021  1.5424 -0.5115
13173TIP3   OH260933   2.390   1.266   1.800  0.8279 -0.0707 -0.8067
13173TIP3    H160934   2.315   1.286   1.745 -0.1029  0.4300  0.5906
13173TIP3    H260935   2.444   1.207   1.747 -1.0657 -1.3251 -1.4210
13174TIP3   OH260936   2.578   3.103   4.522 -0.2214  0.4469  0.2313
13174TIP3    H160937   2.540   3.051   4.593 -1.1759  2.2303  1.1074
13174TIP3    H260938   2.513   3.100   4.452  0.0152 -0.0606  0.0345
13175TIP3   OH260939   3.946   5.771   3.334 -0.3763  0.2762  0.1842
13175TIP3    H160940   4.001   5.840   3.296 -1.0297  1.4120  1.2559
13175TIP3    H260941   3.973   5.766   3.425 -1.7225  0.5212  0.6064
13176TIP3   OH260942   4.024   5.761   0.092 -0.2599  0.2187  0.1812
13176TIP3    H160943   3.950   5.723   0.139  1.6504 -2.1164  1.5264
13176TIP3    H260944   4.045   5.697   0.024  1.6485 -0.1500  1.0507
13177TIP3   OH260945   0.917   5.649  13.276 -0.3061 -0.4812 -0.0932
13177TIP3    H160946   0.857   5.683  13.210 -1.1199 -1.7671 -0.0425
13177TIP3    H260947   0.909   5.554  13.270  1.3324 -0.6774  0.2852
13178TIP3   OH260948   1.166   4.259   3.092  0.3288  0.1624 -0.4287
13178TIP3    H160949   1.096   4.236   3.154 -1.1373  1.9370 -1.3147
13178TIP3    H260950   1.244   4.269   3.147 -0.2134 -1.2403  0.6831
13179TIP3   OH260951   3.793   2.468  11.689 -0.1941 -0.1938 -0.2048
13179TIP3    H160952   3.803   2.383  11.646  1.4924 -0.1460  0.0135
13179TIP3    H260953   3.808   2.449  11.782 -3.7140 -0.2849  0.4650
13180TIP3   OH260954   6.147   0.758  14.843  0.2424  0.0519 -0.0634
13180TIP3    H160955   6.208   0.830  14.858  0.7590 -0.1996 -0.9288
13180TIP3    H260956   6.116   0.734  14.931 -1.1075  2.3102  0.1665
13181TIP3   OH260957   6.201   3.117   2.452  0.1242 -0.0622 -0.4754
13181TIP3    H160958   6.232   3.202   2.422  1.6271 -0.1585  0.6877
13181TIP3    H260959   6.134   3.138   2.517 -0.9819  0.1726 -1.6520
13182TIP3   OH260960   4.682   1.082  11.286  0.0980 -0.3791 -0.3923
13182TIP3    H160961   4.696   1.006  11.229 -0.3487 -0.0958 -0.8854
13182TIP3    H260962   4.693   1.158  11.229 -0.3108 -0.0902 -0.0950
13183TIP3   OH260963   4.361   6.200  14.339  0.0007  0.3452 -0.1906
13183TIP3    H160964   4.352   6.295  14.350  0.8981  0.1722  2.6964
13183TIP3    H260965   4.455   6.186  14.331 -0.0989 -0.3566 -0.1627
13184TIP3   OH260966   1.941   6.538   1.535 -0.3153 -0.3008  0.4288
13184TIP3    H160967   1.913   6.495   1.454 -0.5202  0.7391 -0.0703
13184TIP3    H260968   1.945   6.631   1.513 -3.8062  0.5107  2.5132
13185TIP3   OH260969   2.408   5.781  15.502 -0.5400 -0.0854  0.1091
13185TIP3    H160970   2.421   5.705  15.558  0.0445 -2.3395 -2.8217
13185TIP3    H260971   2.490   5.830  15.509 -0.4120 -0.4182  1.0772
13186TIP3   OH260972   6.584   0.474  13.886 -0.1027  0.0394  0.3299
13186TIP3    H160973   6.638   0.396  13.874  0.7098  0.5697  0.4279
13186TIP3    H260974   6.647   0.546  13.890 -0.9292  1.2329 -3.6782
13187TIP3   OH260975   6.188   2.169   1.366  0.0868 -0.1299 -0.3724
13187TIP3    H160976   6.095   2.189   1.355 -0.2804 -0.6904  1.3972
13187TIP3    H260977   6.199   2.083   1.325 -0.4316 -0.5336  0.2988
13188TIP3   OH260978   4.005   1.580   3.905  0.2394 -0.3148 -0.2357
13188TIP3    H160979   3.919   1.608   3.876 -0.3898 -1.1694  0.7143
13188TIP3    H260980   3.987   1.524   3.981  1.5671 -1.2550 -0.5851
13189TIP3   OH260981   4.342   6.767   2.042 -0.1529 -0.9519  0.9416
13189TIP3    H160982   4.354   6.862   2.030 -0.8648 -1.0483 -0.9632
13189TIP3    H260983   4.281   6.761   2.116  1.2031 -0.0290  2.2029
13190TIP3   OH260984   4.854   1.316   5.738  0.6592 -0.5372 -0.0250
13190TIP3    H160985   4.791   1.382   5.767  0.2906 -0.6170 -0.6326
13190TIP3    H260986   4.853   1.250   5.808 -0.5440 -0.9415 -0.3943
13191TIP3   OH260987   3.356   5.317   1.382 -0.3237  0.1206 -0.0350
13191TIP3    H160988   3.304   5.359   1.314 -0.1654  1.0716  0.4207
13191TIP3    H260989   3.326   5.357   1.463 -0.4683 -0.9599  0.4562
13192TIP3   OH260990   3.692   6.613  14.256  0.2053  0.4949 -0.3660
13192TIP3    H160991   3.647   6.559  14.191 -0.6927  0.3607  0.3395
13192TIP3    H260992   3.767   6.650  14.209 -0.8430  1.0184 -1.6847
13193TIP3   OH260993   1.873   5.641  11.322 -0.7991  0.7448 -0.4208
13193TIP3    H160994   1.921   5.723  11.330 -1.0775  0.6988  3.1269
13193TIP3    H260995   1.781   5.666  11.329 -0.8833  0.1833  0.7464
13194TIP3   OH260996   2.392   2.061  11.223 -0.1038 -0.1577 -0.1206
13194TIP3    H160997   2.483   2.069  11.194  0.7490 -1.6178  1.9413
13194TIP3    H260998   2.374   1.967  11.219 -0.9266 -0.0697  1.1386
13195TIP3   OH260999   4.793   1.504   1.834 -0.0299 -0.2047 -0.1636
13195TIP3    H161000   4.765   1.413   1.844 -1.2270  0.2253  0.5590
13195TIP3    H261001   4.727   1.544   1.778  0.7876  0.1003 -0.9366
13196TIP3   OH261002   1.068   0.057   4.459 -0.2709  0.3928  0.0040
13196TIP3    H161003   1.008   0.132   4.458 -1.0091 -0.1868  0.2164
13196TIP3    H261004   1.155   0.097   4.452 -0.7019  1.2021 -1.0803
13197TIP3   OH261005   0.971   3.886  15.272 -0.5321  0.3780 -0.5770
13197TIP3    H161006   0.931   3.954  15.326  0.4171  1.8740 -1.6775
13197TIP3    H261007   1.024   3.934  15.208  1.0801 -1.4275 -0.6942
13198TIP3   OH261008   5.777   4.692   1.016 -0.1670  0.1571 -0.0406
13198TIP3    H161009   5.870   4.678   1.032  0.1211  3.2358  1.8892
13198TIP3    H261010   5.744   4.731   1.097 -2.7026  0.9279 -1.3264
13199TIP3   OH261011   3.157   0.926   4.460 -0.6311 -0.5197 -0.0985
13199TIP3    H161012   3.092   0.872   4.504  0.9005 -2.1214  0.3051
13199TIP3    H261013   3.210   0.963   4.531 -1.2531  1.0402 -0.4022
13200TIP3   OH261014   1.006   6.329   4.043 -0.6214  0.0384  0.5410
13200TIP3    H161015   1.021   6.318   3.950 -1.1768 -0.5125  0.5057
13200TIP3    H261016   1.087   6.366   4.077 -0.4094  0.2209 -0.1552
13201TIP3   OH261017   6.697   4.563  12.100  0.3989  0.1606 -0.1846
13201TIP3    H161018   6.606   4.537  12.088 -0.3755  1.5276  2.1686
13201TIP3    H261019   6.728   4.510  12.173  2.4291 -2.1803 -2.5192
13202TIP3   OH261020   4.893   6.387   2.823 -0.1985 -0.0147  0.3172
13202TIP3    H161021   4.800   6.409   2.812 -0.2397 -0.2138  0.2748
13202TIP3    H261022   4.895   6.332   2.902 -0.0471  0.4551  0.6469
13203TIP3   OH261023   4.339   2.077  16.959  0.3324 -0.0316  0.2251
13203TIP3    H161024   4.294   2.139  16.902 -0.4448  0.0011  0.8536
13203TIP3    H261025   4.430   2.076  16.927  0.3117  1.2643  0.0838
13204TIP3   OH261026   5.117   3.466  14.297 -0.1806  0.3637  0.2536
13204TIP3    H161027   5.141   3.426  14.381 -0.4724 -0.1400  0.1008
13204TIP3    H261028   5.023   3.453  14.290 -0.1129  0.1348 -0.2881
13205TIP3   OH261029   3.406   6.401  16.074  0.5496 -0.2642  0.6281
13205TIP3    H161030   3.453   6.407  15.991 -0.7992 -1.4197 -0.2651
13205TIP3    H261031   3.421   6.311  16.104 -0.5635 -0.4742  0.6135
13206TIP3   OH261032   2.539   0.450   5.728 -0.3684  0.2510  0.1353
13206TIP3    H161033   2.628   0.455   5.692 -0.8691  0.9850 -1.0912
13206TIP3    H261034   2.546   0.391   5.802  1.5182  1.7672  1.2445
13207TIP3   OH261035   0.359   4.337  13.182  0.3810 -0.2602 -0.2409
13207TIP3    H161036   0.280   4.329  13.236  0.2619 -2.6987 -0.6274
13207TIP3    H261037   0.334   4.397  13.112 -1.2221 -1.0682 -0.4211
13208TIP3   OH261038   1.125   4.936  14.044  0.3038 -0.2968 -0.2064
13208TIP3    H161039   1.144   5.003  14.110 -0.8341  0.8460 -1.0169
13208TIP3    H261040   1.205   4.882  14.042  0.9704  0.5985  0.9543
13209TIP3   OH261041   6.401   1.922  15.209  0.1839  0.3621  0.0160
13209TIP3    H161042   6.359   1.979  15.273  0.7239 -0.0903  0.7957
13209TIP3    H261043   6.329   1.892  15.153 -0.3011  0.7451  0.4223
13210TIP3   OH261044   0.495   2.484   2.530  0.4493  0.4693 -0.0737
13210TIP3    H161045   0.468   2.492   2.621 -1.1164 -3.3425 -0.0295
13210TIP3    H261046   0.586   2.453   2.534  0.6687  1.1310  0.1426
13211TIP3   OH261047   6.490   6.397   4.254 -0.2306 -0.1441  0.2092
13211TIP3    H161048   6.403   6.420   4.220 -0.1330 -1.9857 -1.4552
13211TIP3    H261049   6.479   6.397   4.349 -2.3190 -1.2171  0.0291
13212TIP3   OH261050   2.286   6.314  13.517 -0.2312 -0.1247 -0.0616
13212TIP3    H161051   2.304   6.319  13.423 -2.2812  0.4456 -0.4715
13212TIP3    H261052   2.301   6.222  13.539 -1.5989 -0.7272 -1.4011
13213TIP3   OH261053   4.899   0.647   0.429 -0.4291  0.3833  0.6200
13213TIP3    H161054   4.981   0.692   0.409 -2.1589  2.7872 -1.9131
13213TIP3    H261055   4.919   0.554   0.418  1.2378  1.0202 -3.5654
13214TIP3   OH261056   4.224   4.996  16.363 -0.7374  0.1371  0.0865
13214TIP3    H161057   4.212   5.058  16.292  0.0407  0.0731 -0.1145
13214TIP3    H261058   4.317   5.000  16.383 -0.7690 -0.5736  0.4276
13215TIP3   OH261059   4.580   2.671   4.437 -0.0314 -0.5201  0.2401
13215TIP3    H161060   4.500   2.653   4.388 -0.6504  0.4193  0.8695
13215TIP3    H261061   4.647   2.617   4.395 -1.3035 -2.5152  0.6357
13216TIP3   OH261062   5.057   0.160   3.759  0.2977  0.0742 -0.0058
13216TIP3    H161063   5.033   0.076   3.797  0.2984 -0.4472 -1.1304
13216TIP3    H261064   5.122   0.196   3.819 -0.6361 -0.1280  1.1604
13217TIP3   OH261065   1.145   2.259  13.074 -0.1086  0.1167  0.6682
13217TIP3    H161066   1.097   2.253  12.992  1.1713  3.6529 -0.5314
13217TIP3    H261067   1.083   2.230  13.141 -1.2009 -2.8838 -1.4312
13218TIP3   OH261068   5.374   4.967  13.854  0.1243  0.0415  0.6573
13218TIP3    H161069   5.375   4.926  13.767 -0.9993  1.8757 -0.2686
13218TIP3    H261070   5.337   4.899  13.911  0.3534 -1.0039 -0.3847
13219TIP3   OH261071   3.077   6.674   5.522 -0.0780 -0.0844 -0.1759
13219TIP3    H161072   3.103   6.739   5.587  0.2468 -0.3608 -0.0236
13219TIP3    H261073   3.096   6.590   5.564  1.3503 -0.2594 -1.1017
13220TIP3   OH261074   0.489   3.129   4.481  0.8160  0.4710 -0.1084
13220TIP3    H161075   0.501   3.223   4.488 -4.5503  1.5964 -1.3574
13220TIP3    H261076   0.444   3.104   4.562  1.4313 -0.9103 -0.1545
13221TIP3   OH261077   6.083   0.771   3.934 -0.5150 -0.2464  0.1404
13221TIP3    H161078   6.041   0.716   4.000 -1.6202 -0.7469 -0.9236
13221TIP3    H261079   6.055   0.733   3.850 -0.3909  1.2584 -0.6196
13222TIP3   OH261080   0.737   2.894  16.047 -0.2869 -0.4146 -0.0555
13222TIP3    H161081   0.647   2.859  16.048 -0.7971  0.8480  0.3658
13222TIP3    H261082   0.781   2.848  16.119 -0.5138 -1.2235 -0.4213
13223TIP3   OH261083   0.967   4.877   4.416 -0.1308 -0.0162  0.0923
13223TIP3    H161084   0.976   4.969   4.440  2.3849 -0.0083 -0.5464
13223TIP3    H261085   0.925   4.877   4.331 -0.1927  0.5546  0.1256
13224TIP3   OH261086   3.919   2.397   5.973 -0.5729 -0.1498 -0.7560
13224TIP3    H161087   3.857   2.464   5.945 -0.9873 -0.2463 -0.0741
13224TIP3    H261088   4.001   2.422   5.929 -0.4241  1.4372  0.3133
13225TIP3   OH261089   1.447   3.306  12.015 -0.0246 -0.0408  0.6261
13225TIP3    H161090   1.478   3.279  11.928 -0.3341 -0.5329  0.6633
13225TIP3    H261091   1.393   3.383  11.999  0.6768  0.4281  0.4867
13226TIP3   OH261092   6.443   0.694   0.307 -0.3955 -0.1471  0.1456
13226TIP3    H161093   6.474   0.611   0.273  0.2522 -0.4976  1.5321
13226TIP3    H261094   6.497   0.710   0.385 -1.3682  0.9400  0.6246
13227TIP3   OH261095   0.377   6.744  16.469 -0.7832 -0.2909  0.6371
13227TIP3    H161096   0.365   6.839  16.477 -2.7859 -0.6324  2.8749
13227TIP3    H261097   0.302   6.714  16.417 -0.2124 -0.6756  0.0225
13228TIP3   OH261098   3.042   2.069   5.972  0.0810 -0.5147 -0.4049
13228TIP3    H161099   2.969   2.107   6.020 -0.0172 -2.4648  1.0841
13228TIP3    H261100   3.008   2.057   5.883 -1.4099 -1.3065  0.2412
13229TIP3   OH261101   4.805   1.729  13.132 -0.0852  0.0479  0.0978
13229TIP3    H161102   4.712   1.754  13.136 -0.5100 -1.0162 -1.6638
13229TIP3    H261103   4.842   1.759  13.215 -1.8180  1.2321  0.4994
13230TIP3   OH261104   3.162   0.137   3.058  0.1455  0.1866 -0.6537
13230TIP3    H161105   3.201   0.195   2.992 -0.9895 -0.7990 -2.2544
13230TIP3    H261106   3.086   0.185   3.090 -0.3645 -0.0840 -1.4332
13231TIP3   OH261107   3.913   1.410   4.150  0.2242 -0.5642  0.4129
13231TIP3    H161108   3.963   1.369   4.221  0.0783 -0.8965  0.3291
13231TIP3    H261109   3.847   1.344   4.127  1.2205 -1.1027 -1.0570
13232TIP3   OH261110   3.090   2.333   5.670  0.1796  0.3701  0.2120
13232TIP3    H161111   3.112   2.349   5.762 -1.0772 -0.3341  0.6483
13232TIP3    H261112   3.017   2.272   5.672  1.2172 -1.0397 -1.2930
13233TIP3   OH261113   2.698   6.228  14.347  0.3827  0.4511 -0.1735
13233TIP3    H161114   2.741   6.157  14.394  1.0127  1.2376  0.4648
13233TIP3    H261115   2.765   6.296  14.339 -0.7210  1.7292  0.8978
13234TIP3   OH261116   0.496   5.082   1.519 -0.2324 -0.5881  0.4532
13234TIP3    H161117   0.520   5.089   1.612 -0.1375 -0.8019  0.4446
13234TIP3    H261118   0.432   5.010   1.517 -0.4451 -0.3998  0.3932
13235TIP3   OH261119   2.431   1.177   2.485  0.4652  0.5263  0.2765
13235TIP3    H161120   2.508   1.145   2.532  1.0964  0.2415 -0.9058
13235TIP3    H261121   2.459   1.179   2.393 -1.8271 -2.4460 -0.6280
13236TIP3   OH261122   2.234   2.348  12.565 -0.2601 -0.2453  0.0822
13236TIP3    H161123   2.300   2.386  12.506 -0.3167 -0.7026 -0.2766
13236TIP3    H261124   2.196   2.276  12.516 -0.4047 -0.5495  0.6296
13237TIP3   OH261125   2.494   5.992   5.257 -0.1309 -0.1068  0.2457
13237TIP3    H161126   2.425   5.953   5.311 -0.2312  1.1027  1.0063
13237TIP3    H261127   2.468   6.083   5.246  1.0908  0.2361  0.0979
13238TIP3   OH261128   0.860   6.093  11.908  0.2480  0.1422  0.3143
13238TIP3    H161129   0.823   6.075  11.822 -2.1721  1.8474  0.9156
13238TIP3    H261130   0.847   6.186  11.921  0.5285 -0.0725  2.5592
13239TIP3   OH261131   4.554   0.919   3.439  0.3291 -0.0536  0.4196
13239TIP3    H161132   4.485   0.858   3.414  0.3535 -1.0255  2.4615
13239TIP3    H261133   4.626   0.900   3.379  0.7563 -2.9461  1.6709
13240TIP3   OH261134   2.068   3.749   2.646 -0.3133 -0.2359 -0.1318
13240TIP3    H161135   2.164   3.746   2.639 -0.0150  2.0294  1.7682
13240TIP3    H261136   2.044   3.667   2.687  0.6593 -1.2994 -1.5850
13241TIP3   OH261137   3.865   0.661  15.115  0.0421 -0.6876 -0.4272
13241TIP3    H161138   3.834   0.694  15.031  2.6794  0.0156 -1.2327
13241TIP3    H261139   3.960   0.670  15.110  0.3256 -1.2661  2.3943
13242TIP3   OH261140   1.489   4.974  14.340  0.3451  0.0886  0.4283
13242TIP3    H161141   1.502   5.031  14.416  0.0252 -2.8564  2.8761
13242TIP3    H261142   1.557   4.908  14.348  0.2706 -0.3474 -1.9045
13243TIP3   OH261143   4.166   6.385   2.127 -0.5623  0.2966  0.0588
13243TIP3    H161144   4.219   6.312   2.095  0.8155  1.4030 -0.2761
13243TIP3    H261145   4.204   6.407   2.212  0.3421  1.8889 -0.7269
13244TIP3   OH261146   5.462   6.123   4.405 -0.5106 -0.5466 -0.1711
13244TIP3    H161147   5.552   6.092   4.407 -1.1845 -2.6643  1.5986
13244TIP3    H261148   5.418   6.065   4.343 -0.7690  0.1121 -0.6047
13245TIP3   OH261149   1.368   5.994  12.800  0.3605 -0.1617 -0.4702
13245TIP3    H161150   1.395   6.041  12.879  2.0296 -1.8264  0.0242
13245TIP3    H261151   1.306   5.928  12.832  0.2409 -0.1718 -0.7208
13246TIP3   OH261152   3.449   2.699   2.529 -0.1063  0.5270 -0.1291
13246TIP3    H161153   3.534   2.669   2.562 -0.8842 -1.5562  0.1159
13246TIP3    H261154   3.411   2.622   2.488 -0.7003  2.1291 -2.8090
13247TIP3   OH261155   3.174   4.199  16.848  0.2860  0.3289 -0.0831
13247TIP3    H161156   3.085   4.172  16.826 -0.0679  1.5240 -0.2138
13247TIP3    H261157   3.165   4.291  16.874  1.5781  0.6794 -0.7807
13248TIP3   OH261158   4.407   5.421  16.302  0.2662  0.2193 -0.1438
13248TIP3    H161159   4.394   5.390  16.392  1.2733  1.2668  0.3988
13248TIP3    H261160   4.326   5.400  16.257  0.1127 -1.2425  0.7371
13249TIP3   OH261161   0.220   5.241  12.662  0.1078  0.1672  0.6809
13249TIP3    H161162   0.170   5.251  12.743  1.0649 -1.1365  1.4843
13249TIP3    H261163   0.163   5.277  12.593 -0.6257  1.5407  1.9377
13250TIP3   OH261164   1.266   4.154   3.520 -0.5453 -0.6888  0.6396
13250TIP3    H161165   1.356   4.132   3.495 -0.2795 -0.1216  1.0841
13250TIP3    H261166   1.272   4.175   3.613 -0.5327  2.4997  0.0174
13251TIP3   OH261167   5.925   2.763   4.318 -1.0960  0.3397  0.2653
13251TIP3    H161168   5.955   2.684   4.272 -2.8327 -0.0321 -0.2796
13251TIP3    H261169   5.876   2.730   4.394 -3.0617  0.8100 -0.7366
13252TIP3   OH261170   5.283   0.499   1.008 -0.5199 -0.1150  0.0860
13252TIP3    H161171   5.264   0.577   1.061 -2.3665  0.5063 -1.3733
13252TIP3    H261172   5.199   0.454   1.003  0.4093 -1.9602  0.4435
13253TIP3   OH261173   3.148   1.144  13.698  0.1088  0.0639  0.1083
13253TIP3    H161174   3.092   1.181  13.766  0.5001  0.8487  0.0215
13253TIP3    H261175   3.138   1.204  13.624 -1.7969 -1.7749 -1.2668
13254TIP3   OH261176   1.208   0.968  16.750  0.1023 -0.2448  0.4171
13254TIP3    H161177   1.144   1.026  16.708  0.4642 -0.5919 -0.6493
13254TIP3    H261178   1.178   0.880  16.729 -0.0696 -0.4537  1.4656
13255TIP3   OH261179   0.889   0.509  11.114 -0.0541 -0.2948  0.1509
13255TIP3    H161180   0.821   0.552  11.167 -1.8871 -1.8742 -0.8310
13255TIP3    H261181   0.951   0.475  11.179  0.0662  1.5096  1.0510
13256TIP3   OH261182   1.612   5.334   0.178  0.0002 -0.5231 -0.8679
13256TIP3    H161183   1.567   5.359   0.097 -0.4116 -1.4333 -0.9351
13256TIP3    H261184   1.673   5.265   0.151  3.1536  2.1579 -1.2177
13257TIP3   OH261185   5.243   1.706   5.926 -0.0359  0.4943 -0.7029
13257TIP3    H161186   5.174   1.640   5.935 -0.2213  0.7500 -0.2176
13257TIP3    H261187   5.202   1.788   5.954  0.1418  0.8513 -1.4568
13258TIP3   OH261188   4.659   0.619   3.307 -0.7143  0.1313  0.9403
13258TIP3    H161189   4.580   0.569   3.286 -1.2323  0.4049  2.1486
13258TIP3    H261190   4.714   0.557   3.355  0.2711 -0.3639 -0.7801
13259TIP3   OH261191   6.103   0.378   3.675 -0.2833  0.0016  0.5359
13259TIP3    H161192   6.173   0.393   3.612 -0.8251 -0.2145 -0.1400
13259TIP3    H261193   6.106   0.284   3.693 -0.3464  0.0022  0.5521
13260TIP3   OH261194   5.076   2.558   3.248 -0.3367 -0.0608 -0.2538
13260TIP3    H161195   5.046   2.483   3.197 -2.3979 -0.7400  1.7762
13260TIP3    H261196   5.044   2.634   3.200 -1.9573 -0.6622 -0.1685
13261TIP3   OH261197   6.009   1.018  14.487 -0.1194  0.3975  0.0965
13261TIP3    H161198   6.018   1.077  14.412  0.4530  0.3445  0.1177
13261TIP3    H261199   6.039   0.933  14.454 -0.1854  0.2991  0.2902
13262TIP3   OH261200   5.677   4.332  15.484 -0.5125  0.7544  0.5449
13262TIP3    H161201   5.701   4.325  15.392 -1.2106 -1.7732  0.4763
13262TIP3    H261202   5.699   4.422  15.508  0.3730  1.2559 -1.8724
13263TIP3   OH261203   3.630   1.606  15.814  0.1253 -0.1294 -0.1419
13263TIP3    H161204   3.649   1.560  15.732 -0.0300 -0.9525  0.2656
13263TIP3    H261205   3.649   1.698  15.796  0.4994 -0.3619 -0.9708
13264TIP3   OH261206   3.322   3.296  16.123  0.2940 -0.3970  0.2146
13264TIP3    H161207   3.347   3.388  16.116  0.8765 -0.6111 -0.6115
13264TIP3    H261208   3.359   3.268  16.207  2.4501 -0.5573 -0.7143
13265TIP3   OH261209   6.707   6.215   1.992 -0.2408 -0.4511 -0.2334
13265TIP3    H161210   6.691   6.271   2.068  2.2820  0.5978 -0.3963
13265TIP3    H261211   6.750   6.137   2.027  1.2875  0.2096 -0.5960
13266TIP3   OH261212   1.067   5.728   0.987  0.0872  0.1487  0.1123
13266TIP3    H161213   1.063   5.779   1.068  0.6617 -0.0029  0.2418
13266TIP3    H261214   0.988   5.752   0.939  0.7932  1.8985 -0.2506
13267TIP3   OH261215   0.136   0.414  16.806  0.2930 -0.6145  0.0409
13267TIP3    H161216   0.147   0.335  16.859 -0.6960 -0.5150  0.4185
13267TIP3    H261217   0.095   0.477  16.865  2.1483  0.5953  0.0960
13268TIP3   OH261218   6.689   4.682   5.748 -0.0973 -0.2509  0.0451
13268TIP3    H161219   6.720   4.729   5.824  0.4745 -0.0084 -0.3313
13268TIP3    H261220   6.656   4.750   5.689  1.4525 -0.2108 -0.8335
13269TIP3   OH261221   5.471   1.883   2.580 -1.1775  0.2375  0.1188
13269TIP3    H161222   5.421   1.802   2.566  0.3413 -0.4348 -2.0620
13269TIP3    H261223   5.436   1.944   2.515 -0.9395  0.6406  0.3686
13270TIP3   OH261224   3.835   1.434   4.800  0.1335  0.1119 -0.0495
13270TIP3    H161225   3.890   1.390   4.864 -0.0797  1.1960  0.9062
13270TIP3    H261226   3.896   1.477   4.740  0.3233 -0.1709 -0.0618
13271TIP3   OH261227   1.365   1.942   6.229  0.5640 -0.0068 -0.1504
13271TIP3    H161228   1.313   1.909   6.302  0.9323 -1.5823 -0.5663
13271TIP3    H261229   1.444   1.978   6.270 -0.3158  1.3976  0.3924
13272TIP3   OH261230   1.369   3.284   0.996  0.1842  0.1055 -0.0136
13272TIP3    H161231   1.331   3.317   1.077 -1.0052  1.0955 -0.9368
13272TIP3    H261232   1.449   3.336   0.984 -0.2463  0.7605 -0.0651
13273TIP3   OH261233   6.466   1.354   6.116 -0.3503 -0.3233 -0.3682
13273TIP3    H161234   6.419   1.313   6.189 -1.5474  0.8626 -0.4152
13273TIP3    H261235   6.558   1.352   6.141 -0.3355 -2.9675 -0.3779
13274TIP3   OH261236   4.583   4.034  12.803  0.5923 -0.4707 -0.2288
13274TIP3    H161237   4.651   4.099  12.783  0.9201 -1.3102 -2.0082
13274TIP3    H261238   4.631   3.963  12.846  0.2909  0.2439  1.3781
13275TIP3   OH261239   1.965   4.264  11.455  0.1550 -0.2354  0.4030
13275TIP3    H161240   2.011   4.292  11.376 -0.2646  0.6760  0.4713
13275TIP3    H261241   1.905   4.336  11.475  1.2830  0.2604  2.4005
13276TIP3   OH261242   2.927   0.058  13.937  0.2804  0.6672 -0.2595
13276TIP3    H161243   2.920   0.112  13.859  0.1767  1.1334  0.0724
13276TIP3    H261244   2.961   0.116  14.005 -2.1024  1.0013  0.7476
13277TIP3   OH261245   3.384   2.628   1.384  0.3585 -0.1740 -0.1633
13277TIP3    H161246   3.348   2.612   1.296 -3.4070  0.5250  1.0552
13277TIP3    H261247   3.429   2.546   1.406  0.4396 -0.7717 -2.3139
13278TIP3   OH261248   0.151   2.930  16.535 -0.1550 -0.2218 -0.1967
13278TIP3    H161249   0.071   2.983  16.529 -1.4819 -1.8915  1.4850
13278TIP3    H261250   0.150   2.895  16.624  2.5463 -0.2343 -0.0834
13279TIP3   OH261251   3.256   4.980   0.327  0.4277  0.1725  0.6770
13279TIP3    H161252   3.188   4.991   0.394 -0.5591 -1.9223  0.1191
13279TIP3    H261253   3.258   5.065   0.281 -2.1843  0.1972  0.4234
13280TIP3   OH261254   3.726   2.917   4.000 -0.1921  0.5586  0.2005
13280TIP3    H161255   3.763   2.958   3.921  0.4452  1.1941  0.8117
13280TIP3    H261256   3.709   2.827   3.974  1.5668  0.2942 -0.2167
13281TIP3   OH261257   1.803   6.522  16.502 -0.7248 -0.4148  0.4711
13281TIP3    H161258   1.762   6.448  16.546 -2.4305  0.8042  1.0533
13281TIP3    H261259   1.813   6.588  16.570  0.8579 -0.1313 -0.0069
13282TIP3   OH261260   5.325   1.374  14.608  0.1377 -0.1834 -0.2087
13282TIP3    H161261   5.385   1.336  14.544  2.2868  2.4593  0.0450
13282TIP3    H261262   5.288   1.450  14.563  0.0073  0.4553  0.9478
13283TIP3   OH261263   0.995   2.505   5.340 -0.1635 -0.5292 -0.2314
13283TIP3    H161264   0.962   2.422   5.305 -0.0821 -0.3156 -0.8279
13283TIP3    H261265   1.062   2.533   5.277 -0.0280 -0.1244  0.0848
13284TIP3   OH261266   5.439   0.254  17.186 -0.1000  0.0495  0.2313
13284TIP3    H161267   5.413   0.344  17.164  0.2412  0.5088  1.6148
13284TIP3    H261268   5.438   0.251  17.281 -1.3956 -1.8129  0.2143
13285TIP3   OH261269   5.478   6.157   6.029 -0.2440 -0.0480 -0.3329
13285TIP3    H161270   5.536   6.092   5.989  0.2486  0.8738 -1.1393
13285TIP3    H261271   5.416   6.105   6.080  0.3729 -1.1319 -0.6557
13286TIP3   OH261272   1.462   1.953  11.712  0.5530  0.0572  0.2315
13286TIP3    H161273   1.465   1.868  11.668 -0.2158 -0.0673  0.4056
13286TIP3    H261274   1.369   1.968  11.728  0.7952  0.2078  1.6075
13287TIP3   OH261275   2.467   0.071  11.702 -0.0448  0.1567  0.0692
13287TIP3    H161276   2.510   0.014  11.639 -0.9165  0.4673 -0.8118
13287TIP3    H261277   2.387   0.025  11.727  0.7656 -0.4413  1.7437
13288TIP3   OH261278   1.478   3.580  15.436  0.0043  0.8521 -0.5770
13288TIP3    H161279   1.540   3.522  15.481 -0.0538  1.1674 -0.0815
13288TIP3    H261280   1.474   3.546  15.347 -0.5733 -0.3769 -0.1228
13289TIP3   OH261281   0.372   2.064  15.276  0.2270 -0.1581  0.4303
13289TIP3    H161282   0.348   2.157  15.279  1.4805  0.4986 -3.5430
13289TIP3    H261283   0.332   2.032  15.195  1.8244 -2.4267  0.4476
13290TIP3   OH261284   1.567   5.332  11.961  0.1231  0.0443 -0.6539
13290TIP3    H161285   1.607   5.253  11.999 -1.3999  0.6801  2.6338
13290TIP3    H261286   1.641   5.391  11.945  1.0601 -1.1928 -1.0275
13291TIP3   OH261287   4.322   3.440   3.582  0.7724  0.3652 -0.6838
13291TIP3    H161288   4.354   3.434   3.492  0.0546 -0.1462 -0.9106
13291TIP3    H261289   4.229   3.421   3.576  0.8062 -0.1275  0.2309
13292TIP3   OH261290   5.047   4.653  16.712 -0.0770 -1.0198 -0.4114
13292TIP3    H161291   5.101   4.689  16.782  0.9687 -3.3477  0.0531
13292TIP3    H261292   4.958   4.654  16.747 -0.1391  1.2368 -0.5155
13293TIP3   OH261293   6.792   2.853   0.880 -0.2796 -0.3344 -0.7592
13293TIP3    H161294   6.820   2.770   0.919  0.2943  0.3181  0.2733
13293TIP3    H261295   6.812   2.919   0.947 -0.9561  0.6097 -1.4570
13294TIP3   OH261296   6.316   5.618   3.259 -0.1298 -0.0414 -0.1100
13294TIP3    H161297   6.380   5.631   3.189  0.0432 -0.1748  0.0225
13294TIP3    H261298   6.315   5.701   3.307  0.3848 -0.2318  0.2481
13295TIP3   OH261299   1.634   2.723  15.981  0.0004 -0.6588 -0.4857
13295TIP3    H161300   1.590   2.732  15.896 -0.1704 -0.4324 -0.3745
13295TIP3    H261301   1.703   2.789  15.979 -1.8094  1.3791  0.6820
13296TIP3   OH261302   2.351   6.018  14.823  0.3692  0.0908 -0.5554
13296TIP3    H161303   2.405   6.080  14.774  1.3669 -0.8190 -0.6440
13296TIP3    H261304   2.305   6.072  14.888 -0.4966  1.2308 -2.0401
13297TIP3   OH261305   2.324   2.404   2.781  0.3397 -0.0360 -0.0474
13297TIP3    H161306   2.253   2.435   2.724  0.7444  0.5720 -0.2301
13297TIP3    H261307   2.387   2.363   2.722  1.2372  1.4752 -0.1897
13298TIP3   OH261308   3.241   0.282   5.341  0.2396 -0.0940 -0.2254
13298TIP3    H161309   3.201   0.274   5.428 -2.9533  3.8460 -1.0280
13298TIP3    H261310   3.288   0.365   5.342  4.1577 -2.0541 -1.0987
13299TIP3   OH261311   5.787   1.442   3.698 -0.5945  0.6665  0.0437
13299TIP3    H161312   5.758   1.439   3.790  1.2003 -0.0300  0.6286
13299TIP3    H261313   5.880   1.465   3.704 -0.9632  2.9148 -1.7358
13300TIP3   OH261314   0.025   5.250   2.244  0.2031  0.2500 -0.6195
13300TIP3    H161315   0.037   5.199   2.325  0.2571 -1.8328 -1.8681
13300TIP3    H261316   0.048   5.189   2.174 -4.2365  0.3318 -2.5263
13301TIP3   OH261317   5.553   3.986   4.731  1.2561  0.2860  0.2851
13301TIP3    H161318   5.557   4.082   4.725 -2.8810  0.7266  1.2557
13301TIP3    H261319   5.570   3.955   4.642 -1.3510  2.2926 -1.0355
13302TIP3   OH261320   3.159   5.768  10.600  0.2568  0.1827  0.8016
13302TIP3    H161321   3.183   5.683  10.562  1.0150  0.5122  0.5115
13302TIP3    H261322   3.181   5.831  10.532 -0.6129  0.5939  0.8905
13303TIP3   OH261323   1.815   0.161  12.567  0.4036  0.4054 -0.7333
13303TIP3    H161324   1.836   0.245  12.527  0.6568  0.0894 -1.2689
13303TIP3    H261325   1.772   0.184  12.650  0.7907  1.0579 -0.7096
13304TIP3   OH261326   2.617   1.633   3.489 -0.1068 -0.8356 -0.0901
13304TIP3    H161327   2.628   1.687   3.568 -1.5325  0.6199 -0.8189
13304TIP3    H261328   2.564   1.559   3.517 -0.4001 -0.4554  0.3696
13305TIP3   OH261329   6.179   6.724  16.668 -0.2597  0.4907 -0.2681
13305TIP3    H161330   6.210   6.641  16.634  0.5893  0.7893 -0.2362
13305TIP3    H261331   6.238   6.744  16.741 -1.8638 -0.0083  1.2611
13306TIP3   OH261332   4.965   6.782   4.651 -0.1495  0.2472  0.1884
13306TIP3    H161333   4.948   6.876   4.656 -0.3856  0.2061  0.1563
13306TIP3    H261334   4.984   6.766   4.558  1.8522  0.5973  0.5059
13307TIP3   OH261335   3.289   2.844   4.747  0.7569 -0.0915  0.0583
13307TIP3    H161336   3.385   2.844   4.744  0.8460  2.9595  0.6635
13307TIP3    H261337   3.263   2.918   4.692 -1.2282 -0.2611  0.6903
13308TIP3   OH261338   1.670   4.415  11.335 -0.1892  0.6012  0.0441
13308TIP3    H161339   1.717   4.436  11.254 -1.4420  0.4851 -0.7395
13308TIP3    H261340   1.625   4.333  11.315 -1.9555  1.4980  0.2204
13309TIP3   OH261341   5.530   5.472  16.337 -0.2946 -0.5667 -0.2497
13309TIP3    H161342   5.442   5.433  16.341  0.2016 -1.6861 -0.0337
13309TIP3    H261343   5.589   5.401  16.360  0.7676 -0.1196 -1.4991
13310TIP3   OH261344   3.149   0.850   5.766 -0.3196 -0.1931  0.2042
13310TIP3    H161345   3.176   0.758   5.768 -0.1893 -0.1402  1.6116
13310TIP3    H261346   3.228   0.898   5.740  0.1190 -0.3161  1.2918
13311TIP3   OH261347   1.256   5.524  12.230  0.3320 -0.0289  0.6423
13311TIP3    H161348   1.214   5.548  12.148 -1.9267 -1.0162  1.4405
13311TIP3    H261349   1.320   5.456  12.205  0.8256  0.8180 -0.4798
13312TIP3   OH261350   5.303   5.290   5.190 -0.3620 -0.2000  0.0592
13312TIP3    H161351   5.349   5.280   5.273 -1.6157  0.8807  0.9224
13312TIP3    H261352   5.255   5.372   5.199  1.5252  1.3888 -2.7246
13313TIP3   OH261353   5.407   1.673  12.692 -0.4014 -0.7016 -0.2717
13313TIP3    H161354   5.340   1.620  12.647 -0.2766 -1.2054  0.1253
13313TIP3    H261355   5.482   1.614  12.699 -0.0630 -0.2763 -0.3349
13314TIP3   OH261356   3.761   4.676  13.222  0.0043 -0.1947  0.0677
13314TIP3    H161357   3.855   4.678  13.204  0.4525 -3.8768  1.1159
13314TIP3    H261358   3.730   4.593  13.184 -2.4072 -0.0236  1.4098
13315TIP3   OH261359   0.601   1.699  11.500  0.3331 -0.5985  0.0557
13315TIP3    H161360   0.677   1.642  11.489  2.1338  1.0760  2.7080
13315TIP3    H261361   0.535   1.643  11.540  2.2708 -0.8692  3.2249
13316TIP3   OH261362   6.454   4.408   6.263 -0.0381 -0.2371 -0.6433
13316TIP3    H161363   6.459   4.450   6.177  0.2440 -1.2568 -1.1366
13316TIP3    H261364   6.425   4.319   6.245 -0.7487 -0.2278  0.4047
13317TIP3   OH261365   5.802   5.493  12.988 -0.0809 -0.4306 -0.4810
13317TIP3    H161366   5.849   5.576  12.994 -0.0871 -0.5199  1.3847
13317TIP3    H261367   5.861   5.435  12.941  0.6860  0.1250 -0.2190
13318TIP3   OH261368   2.153   3.283   2.684 -0.1698 -0.0946 -0.0937
13318TIP3    H161369   2.123   3.201   2.646 -0.3720  1.6282 -4.2189
13318TIP3    H261370   2.073   3.332   2.702 -0.0640  0.8118 -1.8975
13319TIP3   OH261371   5.371   0.738   4.843 -0.4506  0.7829 -0.4373
13319TIP3    H161372   5.328   0.821   4.825  0.3472  1.2101 -0.4378
13319TIP3    H261373   5.460   0.763   4.870 -0.2452 -0.0615 -0.3124
13320TIP3   OH261374   5.138   3.603   3.589  0.1947 -0.3388  0.0055
13320TIP3    H161375   5.105   3.539   3.527 -0.6452  2.0534 -2.2011
13320TIP3    H261376   5.063   3.622   3.646 -1.0602  1.7351 -2.1234
13321TIP3   OH261377   1.163   0.804   3.528  0.0094  0.2927  0.1125
13321TIP3    H161378   1.217   0.731   3.497 -1.2034 -0.7951  0.4355
13321TIP3    H261379   1.217   0.882   3.516  0.8441 -0.4941 -1.5265
13322TIP3   OH261380   1.187   2.805  12.552  0.0749 -0.3905  0.3771
13322TIP3    H161381   1.251   2.740  12.583 -0.7293 -0.8358  1.1372
13322TIP3    H261382   1.225   2.837  12.470  2.0784  0.5625  1.5979
13323TIP3   OH261383   0.973   6.618   1.872  0.6372 -0.2695 -0.3123
13323TIP3    H161384   0.990   6.665   1.953 -0.5789  0.7320 -0.5965
13323TIP3    H261385   1.001   6.528   1.890  1.1516  0.1146  0.9289
13324TIP3   OH261386   3.519   5.997   4.605 -0.3864 -0.9066  0.0476
13324TIP3    H161387   3.556   5.919   4.563 -1.5259 -0.2005 -2.5336
13324TIP3    H261388   3.424   5.988   4.591 -0.4649  1.6004 -1.7619
13325TIP3   OH261389   6.349   4.844  11.238 -0.1672 -0.6044 -0.2689
13325TIP3    H161390   6.323   4.898  11.163 -0.8066 -1.0529 -0.3786
13325TIP3    H261391   6.408   4.778  11.200  1.1937  0.4325 -0.0134
13326TIP3   OH261392   6.400   1.535  14.992  0.3561 -0.0695  0.4132
13326TIP3    H161393   6.460   1.590  14.943  1.1353 -1.4113 -0.2063
13326TIP3    H261394   6.444   1.520  15.076 -0.5389  1.4366  1.1891
13327TIP3   OH261395   2.962   5.200   1.044  0.7389 -0.2460  0.1923
13327TIP3    H161396   2.874   5.225   1.013  1.3683  0.1015 -1.4124
13327TIP3    H261397   2.978   5.115   1.004  1.7559  0.4113 -0.8614
13328TIP3   OH261398   5.526   4.586  15.209  0.5489 -0.0200  0.3619
13328TIP3    H161399   5.552   4.601  15.118 -0.9763 -0.0635 -0.1209
13328TIP3    H261400   5.583   4.516  15.239  0.4337 -0.6842 -0.8892
13329TIP3   OH261401   0.171   0.322  13.659 -0.4543 -0.2788 -0.0848
13329TIP3    H161402   0.232   0.247  13.661 -1.9868 -1.5672  1.3199
13329TIP3    H261403   0.225   0.396  13.631  1.5833 -1.4999  0.3969
13330TIP3   OH261404   1.995   0.740   3.517  0.2023 -0.7640 -0.2814
13330TIP3    H161405   1.960   0.820   3.480  0.1357  0.2621  1.8823
13330TIP3    H261406   2.074   0.768   3.565  0.7731 -2.1529 -0.3557
13331TIP3   OH261407   3.388   6.791   5.679  0.3142  0.6968 -0.1253
13331TIP3    H161408   3.320   6.848   5.714  0.8818  1.7122 -0.6157
13331TIP3    H261409   3.463   6.849   5.664  1.3937 -0.4425  0.6681
13332TIP3   OH261410   6.590   1.558  16.984 -0.0246  0.4181  0.0254
13332TIP3    H161411   6.556   1.525  17.067  0.6923  0.6945  0.4430
13332TIP3    H261412   6.532   1.631  16.962 -1.2789 -0.7390 -0.6220
13333TIP3   OH261413   5.340   3.195   5.692 -0.0079 -0.3655 -0.3643
13333TIP3    H161414   5.376   3.124   5.638  0.1292 -0.0555 -0.6891
13333TIP3    H261415   5.378   3.275   5.654 -2.7895  0.2197 -2.2698
13334TIP3   OH261416   3.408   6.571  14.970 -0.2753 -0.1559  0.2371
13334TIP3    H161417   3.416   6.479  14.998  0.6016 -0.6745 -1.5470
13334TIP3    H261418   3.420   6.568  14.875  2.7392  2.1034  0.4025
13335TIP3   OH261419   0.548   4.259  13.585 -0.3089 -0.2656 -0.6772
13335TIP3    H161420   0.507   4.309  13.515 -1.0026 -1.0553 -0.8492
13335TIP3    H261421   0.619   4.211  13.542 -0.1417 -0.0414 -0.6558
13336TIP3   OH261422   6.698   0.635   0.639 -0.3011  0.2239  0.1425
13336TIP3    H161423   6.652   0.711   0.602  0.0561  0.7267  0.7210
13336TIP3    H261424   6.698   0.650   0.733 -0.4155 -0.6094  0.2866
13337TIP3   OH261425   4.845   5.626  16.349  0.0272  0.0071 -0.4290
13337TIP3    H161426   4.881   5.697  16.402 -0.6409  0.5596 -0.6919
13337TIP3    H261427   4.759   5.609  16.387  0.9534 -2.0504  0.8818
13338TIP3   OH261428   4.783   2.561   3.074  0.6095  0.1449  0.4187
13338TIP3    H161429   4.819   2.543   2.987 -2.0157 -1.6286 -0.4298
13338TIP3    H261430   4.845   2.522   3.134  1.9832  0.5267 -0.6907
13339TIP3   OH261431   2.451   1.386   5.482  0.0268 -0.5267 -0.0499
13339TIP3    H161432   2.376   1.423   5.528  0.9410  0.2986  0.8121
13339TIP3    H261433   2.487   1.460   5.432  1.8258 -0.1846  1.6247
13340TIP3   OH261434   5.934   6.120   1.431  0.6984 -0.2630 -0.0020
13340TIP3    H161435   5.849   6.123   1.387  1.1963 -1.7027 -1.1304
13340TIP3    H261436   5.942   6.030   1.462  0.0403  0.8061  3.8656
13341TIP3   OH261437   3.957   4.801  16.157  0.7834 -0.0240  0.0288
13341TIP3    H161438   3.909   4.832  16.080  0.2048 -0.3965  0.2364
13341TIP3    H261439   3.986   4.713  16.134  2.1045  0.5009 -0.4156
13342TIP3   OH261440   3.114   1.390  14.424  0.0837  0.4075 -0.0065
13342TIP3    H161441   3.099   1.482  14.446  3.2220  1.3449 -1.2568
13342TIP3    H261442   3.132   1.390  14.330  0.2137 -1.4832 -0.0202
13343TIP3   OH261443   1.479   2.924  13.719  0.3577  0.5131  0.2629
13343TIP3    H161444   1.498   2.949  13.810 -3.0257 -1.7672  1.8274
13343TIP3    H261445   1.410   2.984  13.691 -0.6701 -0.5901  0.3452
13344TIP3   OH261446   1.362   3.861   2.724 -0.3723 -0.0004 -0.5566
13344TIP3    H161447   1.344   3.824   2.811  0.4206 -0.5129 -0.5990
13344TIP3    H261448   1.455   3.844   2.710 -0.4652  0.2019 -1.4500
13345TIP3   OH261449   0.266   3.564  14.375 -0.1075 -0.0482 -0.1739
13345TIP3    H161450   0.264   3.601  14.286  0.6506 -2.3029 -1.2010
13345TIP3    H261451   0.188   3.509  14.380 -0.9985  1.2616  1.1792
13346TIP3   OH261452   2.696   0.909   2.351  0.2720  0.1384  0.0526
13346TIP3    H161453   2.625   0.936   2.293 -0.7896 -0.9469  0.8006
13346TIP3    H261454   2.691   0.969   2.425 -1.0041 -0.9685  0.9136
13347TIP3   OH261455   6.290   3.660   4.851  0.3306  0.0161 -0.0833
13347TIP3    H161456   6.209   3.624   4.888 -0.1145  1.6415  0.6583
13347TIP3    H261457   6.279   3.652   4.757  0.4447 -2.0870  0.0438
13348TIP3   OH261458   2.752   0.203   0.882 -0.5506  0.0907  0.2145
13348TIP3    H161459   2.826   0.212   0.942  0.4989 -1.7418 -0.7003
13348TIP3    H261460   2.709   0.288   0.883  1.8428  1.3717  0.4607
13349TIP3   OH261461   4.144   6.125  17.020 -0.3826  0.4691 -0.2903
13349TIP3    H161462   4.087   6.078  17.082 -2.2008  2.1616 -0.5869
13349TIP3    H261463   4.188   6.191  17.074 -0.7788  0.9298 -0.5303
13350TIP3   OH261464   6.031   4.804  16.322 -0.1017  0.1397 -0.0298
13350TIP3    H161465   6.068   4.848  16.245  1.1074  0.8612  0.9047
13350TIP3    H261466   6.107   4.762  16.364 -0.9132 -1.1402  0.2059
13351TIP3   OH261467   0.539   1.867   3.886 -0.1442  0.2478  0.7755
13351TIP3    H161468   0.498   1.799   3.832 -2.2357  1.5232  0.6258
13351TIP3    H261469   0.465   1.916   3.921  1.2854  2.9112  0.2610
13352TIP3   OH261470   3.642   0.220  12.800 -0.3150  0.5374  0.3164
13352TIP3    H161471   3.643   0.250  12.709 -0.8054 -0.4619 -0.0449
13352TIP3    H261472   3.659   0.126  12.794 -0.6765  0.4012  1.2250
13353TIP3   OH261473   4.883   3.506   5.150 -0.2959  0.3177 -0.6267
13353TIP3    H161474   4.933   3.541   5.223 -0.1772 -0.1052 -0.5064
13353TIP3    H261475   4.880   3.578   5.087 -2.3359  1.5054  0.7186
13354TIP3   OH261476   1.994   0.906   4.313  0.1288 -0.1662 -0.2767
13354TIP3    H161477   2.070   0.852   4.289 -0.5020 -1.5843  0.7241
13354TIP3    H261478   2.012   0.933   4.403 -0.3930 -0.2119 -0.1598
13355TIP3   OH261479   5.933   2.027   1.708 -0.0977 -0.3923 -0.0691
13355TIP3    H161480   5.974   1.940   1.714 -0.3458 -0.5290 -0.3248
13355TIP3    H261481   5.968   2.075   1.783 -1.2151 -1.2416  1.0451
13356TIP3   OH261482   0.193   6.769  15.493  0.0551  0.2271 -0.1259
13356TIP3    H161483   0.118   6.827  15.504 -0.2797 -0.4609  1.4405
13356TIP3    H261484   0.231   6.796  15.410 -0.3753  2.3596  0.2984
13357TIP3   OH261485   2.854   4.406   1.146 -0.0666 -0.8205 -0.4415
13357TIP3    H161486   2.931   4.349   1.152 -0.0323 -0.6948  0.4066
13357TIP3    H261487   2.790   4.367   1.206  0.5843  0.9618  1.5215
13358TIP3   OH261488   2.642   2.069  15.445  0.2703 -0.1650 -0.5907
13358TIP3    H161489   2.651   2.148  15.499  2.0613 -0.4125 -0.4541
13358TIP3    H261490   2.651   2.100  15.355 -1.6390  0.1017 -0.7264
13359TIP3   OH261491   3.413   1.040  16.937  0.1408  0.5570 -0.7179
13359TIP3    H161492   3.442   1.088  17.014  2.6658 -0.6338 -0.8351
13359TIP3    H261493   3.381   0.956  16.972  0.9319  0.1670 -0.9090
13360TIP3   OH261494   6.565   3.074   0.565 -0.3417  0.5641 -0.3265
13360TIP3    H161495   6.539   3.013   0.496 -1.8679  1.2240 -0.3747
13360TIP3    H261496   6.577   3.158   0.520  1.2875  0.4361 -0.1907
13361TIP3   OH261497   5.221   3.268  15.750  0.4036  0.2008 -0.2287
13361TIP3    H161498   5.301   3.244  15.796 -0.1831  0.0000  0.7200
13361TIP3    H261499   5.180   3.334  15.807  0.7596  1.6510 -1.5638
13362TIP3   OH261500   0.065   6.557  15.599 -0.4060  1.0457  0.0051
13362TIP3    H161501   0.138   6.608  15.563  0.7001  0.8536  1.8213
13362TIP3    H261502   0.020   6.522  15.522  1.6888  0.7822 -1.1791
13363TIP3   OH261503   0.606   5.249  12.721 -0.0262 -0.0873  0.4459
13363TIP3    H161504   0.648   5.178  12.770 -1.1591 -0.0694  1.5153
13363TIP3    H261505   0.575   5.208  12.640  1.0875 -0.3332  0.1326
13364TIP3   OH261506   6.581   3.390  12.505  0.6104 -0.8154 -0.9052
13364TIP3    H161507   6.563   3.335  12.428  1.6465 -1.4448 -0.7131
13364TIP3    H261508   6.617   3.470  12.468 -0.6562 -0.3489 -1.1721
13365TIP3   OH261509   0.489   4.354   4.374  0.3681  0.1500 -0.0436
13365TIP3    H161510   0.454   4.280   4.424 -0.8467  0.8306  0.1477
13365TIP3    H261511   0.459   4.431   4.422  1.6753  0.7799 -0.2051
13366TIP3   OH261512   5.470   6.279   3.749 -0.6168 -0.0171 -0.0799
13366TIP3    H161513   5.551   6.327   3.737 -0.7261 -0.0294 -0.9417
13366TIP3    H261514   5.481   6.200   3.696  0.2066 -1.7903  2.5234
13367TIP3   OH261515   2.130   1.363  14.109 -0.4660  0.3279 -0.0938
13367TIP3    H161516   2.201   1.407  14.156 -0.2572  0.7373 -0.7848
13367TIP3    H261517   2.108   1.288  14.164  0.8689 -0.1140 -0.1263
13368TIP3   OH261518   6.673   5.275  14.096  0.2864 -0.4284  0.8295
13368TIP3    H161519   6.606   5.282  14.027 -0.0782 -1.6376  1.0473
13368TIP3    H261520   6.730   5.203  14.067  0.4346 -0.6011  1.5438
13369TIP3   OH261521   6.760   1.968  16.497  0.1320 -0.1788 -0.5446
13369TIP3    H161522   6.848   1.951  16.464  0.1212  0.1073 -0.7299
13369TIP3    H261523   6.716   2.013  16.424  0.0707  0.3479 -0.1919
13370TIP3   OH261524   6.761   2.909   0.616 -0.0900 -0.3661 -0.1998
13370TIP3    H161525   6.694   2.974   0.637 -1.0548 -1.2959 -0.2913
13370TIP3    H261526   6.786   2.872   0.701 -2.1653 -2.3555 -0.3495
13371TIP3   OH261527   2.036   2.038  14.216  0.1569  1.1827  0.2643
13371TIP3    H161528   1.979   1.982  14.270 -0.9036  1.0346 -0.9588
13371TIP3    H261529   2.102   2.070  14.277 -1.4318  1.6364  1.8545
13372TIP3   OH261530   0.182   4.460   5.289  1.2679  0.3787 -0.6558
13372TIP3    H161531   0.223   4.498   5.366  1.6848 -1.9130  0.3339
13372TIP3    H261532   0.088   4.467   5.305  1.3377  0.9792 -0.5027
13373TIP3   OH261533   4.649   2.384   4.689 -0.1053  0.9626  0.2228
13373TIP3    H161534   4.648   2.289   4.687  0.8153  0.9540 -1.8761
13373TIP3    H261535   4.600   2.407   4.768 -0.6943 -1.2291  0.5427
13374TIP3   OH261536   2.635   5.510  16.707 -0.2311  0.0172 -0.0596
13374TIP3    H161537   2.588   5.441  16.660 -0.4184  0.0565  0.0711
13374TIP3    H261538   2.716   5.522  16.657 -0.1982 -0.2953 -0.0825
13375TIP3   OH261539   3.482   3.830  12.071  0.5896 -0.0621 -0.0521
13375TIP3    H161540   3.489   3.922  12.096  0.1979 -0.1651  0.4678
13375TIP3    H261541   3.455   3.785  12.151  0.9150 -0.6534 -0.2633
13376TIP3   OH261542   3.724   5.911   5.836 -0.1126  0.0920 -0.0383
13376TIP3    H161543   3.775   5.838   5.802 -1.1093 -1.5181  1.7802
13376TIP3    H261544   3.774   5.943   5.911 -1.3642 -1.1058  1.3817
13377TIP3   OH261545   1.812   5.438  13.076  0.3245 -0.6644 -0.0819
13377TIP3    H161546   1.836   5.518  13.030 -0.3874  0.3284  1.2236
13377TIP3    H261547   1.892   5.384  13.073  1.8998  1.4037  1.7487
13378TIP3   OH261548   1.057   6.480  15.356  0.6066 -0.4578  0.5395
13378TIP3    H161549   1.119   6.534  15.306 -0.4431  0.5798  0.3264
13378TIP3    H261550   1.065   6.511  15.446 -1.4659  1.5853  0.1169
13379TIP3   OH261551   5.114   4.325   2.566 -0.0189 -0.4047  1.0334
13379TIP3    H161552   5.021   4.329   2.590  0.1111  0.6666  1.4318
13379TIP3    H261553   5.132   4.232   2.556 -1.7253 -0.5574 -1.4956
13380TIP3   OH261554   0.520   6.034  16.849 -0.3615  0.0746 -0.4718
13380TIP3    H161555   0.557   6.109  16.896  1.2245  0.8208 -2.7739
13380TIP3    H261556   0.575   5.960  16.875  0.2880  0.4119 -0.8770
13381TIP3   OH261557   0.062   2.146  12.198 -0.5176  0.6855  0.3014
13381TIP3    H161558   0.138   2.140  12.140 -0.7856  3.3603 -0.4543
13381TIP3    H261559  -0.013   2.134  12.140 -0.7402  1.2750  0.4629
13382TIP3   OH261560   1.496   0.974  14.338 -0.0340 -0.4390 -0.0753
13382TIP3    H161561   1.468   1.048  14.284 -1.1519 -0.5502  0.3229
13382TIP3    H261562   1.468   0.897  14.288 -0.1651 -0.5586  0.1793
13383TIP3   OH261563   4.302   4.825  10.859  0.9901  0.8265  0.7013
13383TIP3    H161564   4.320   4.919  10.854  3.2274  0.6354  2.8741
13383TIP3    H261565   4.333   4.789  10.776  0.7428  1.9198  0.1277
13384TIP3   OH261566   6.517   1.754  14.521 -0.3982 -0.0308 -0.0705
13384TIP3    H161567   6.461   1.683  14.553 -0.5637  0.4767  0.8077
13384TIP3    H261568   6.545   1.725  14.434  0.6788 -1.8342  0.7965
13385TIP3   OH261569   0.333   3.817  15.336 -0.2876  0.8133 -0.4433
13385TIP3    H161570   0.417   3.827  15.380 -0.2271  1.0223 -0.6043
13385TIP3    H261571   0.307   3.907  15.316 -0.3358  0.7175 -0.8002
13386TIP3   OH261572   6.211   4.734  13.863  0.1128 -0.4671  0.0990
13386TIP3    H161573   6.176   4.822  13.873 -0.2566 -0.5888 -0.0676
13386TIP3    H261574   6.145   4.689  13.810  0.7116 -0.5912 -0.5569
13387TIP3   OH261575   6.497   1.765  11.832 -0.2481 -0.3540 -0.2313
13387TIP3    H161576   6.589   1.782  11.813 -0.4870 -0.7185 -1.9340
13387TIP3    H261577   6.453   1.848  11.814 -0.1719  0.0997  1.4990
13388TIP3   OH261578   0.662   4.101   1.485  0.2437  0.0551  0.2665
13388TIP3    H161579   0.585   4.100   1.542 -0.8158 -0.0946 -1.1192
13388TIP3    H261580   0.639   4.043   1.413  1.4478  0.4565 -0.4659
13389TIP3   OH261581   6.605   5.396   0.047 -0.2629 -0.2756  0.7209
13389TIP3    H161582   6.554   5.369   0.124 -0.0591 -0.6162  0.7383
13389TIP3    H261583   6.669   5.326   0.035  1.5386  1.0757  1.9171
13390TIP3   OH261584   4.074   1.278   0.274  0.4346  0.9329  0.5973
13390TIP3    H161585   4.022   1.200   0.294 -0.1026  0.8812 -0.8709
13390TIP3    H261586   4.087   1.274   0.179  0.2794  2.7002  0.4675
13391TIP3   OH261587   2.011   5.729  12.323  0.2653  0.2625 -0.0601
13391TIP3    H161588   1.993   5.777  12.243  0.4891 -0.5496 -0.6127
13391TIP3    H261589   2.010   5.795  12.392  2.4804  1.3691 -1.0069
13392TIP3   OH261590   6.010   0.906  15.604  0.1583  0.1678 -0.3408
13392TIP3    H161591   5.988   0.922  15.695 -0.5022  3.5746 -0.9753
13392TIP3    H261592   6.092   0.857  15.607  0.8314  1.3233  2.0900
13393TIP3   OH261593   3.341   3.514  12.547 -0.3557 -0.3598  0.3660
13393TIP3    H161594   3.295   3.441  12.505 -0.8647  1.0969 -1.7536
13393TIP3    H261595   3.274   3.556  12.601 -1.1214  0.6552 -1.2794
13394TIP3   OH261596   6.270   3.923  11.976  0.9663  0.0837  0.4698
13394TIP3    H161597   6.323   3.996  12.007  2.0773 -0.7911  0.7032
13394TIP3    H261598   6.287   3.918  11.882  0.0587  0.7612  0.2493
13395TIP3   OH261599   1.692   2.721   3.588  0.1566  0.5182  0.0246
13395TIP3    H161600   1.718   2.710   3.497 -0.1884  2.7783 -0.3863
13395TIP3    H261601   1.763   2.771   3.628  0.1603 -0.1912  0.9390
13396TIP3   OH261602   4.060   4.228  10.988  0.4100  0.1340  0.4860
13396TIP3    H161603   3.984   4.283  10.969  0.0424 -0.3011  0.6850
13396TIP3    H261604   4.038   4.182  11.068  0.2166 -1.1779 -0.2859
13397TIP3   OH261605   6.248   2.072  16.453  0.4280 -0.2779 -0.0850
13397TIP3    H161606   6.198   2.057  16.373  0.5660 -3.6154  0.2955
13397TIP3    H261607   6.200   2.025  16.521  2.2989 -0.7777  0.9741
13398TIP3   OH261608   5.306   1.852  13.866  0.6158 -0.5573  0.3619
13398TIP3    H161609   5.242   1.854  13.937  1.1812 -3.0363  1.0323
13398TIP3    H261610   5.385   1.893  13.902  0.8794 -1.7504  1.1920
13399TIP3   OH261611   4.565   6.359  12.863  0.1776 -0.2810  0.2677
13399TIP3    H161612   4.633   6.389  12.923  0.8934 -0.0716 -0.6378
13399TIP3    H261613   4.561   6.426  12.795 -0.7160 -0.4484  0.1386
13400TIP3   OH261614   6.465   6.589  16.680  0.4340 -0.3208 -0.3212
13400TIP3    H161615   6.403   6.534  16.729  0.7073  1.3363  2.0832
13400TIP3    H261616   6.474   6.667  16.734  0.9359  1.6124 -3.0270
13401TIP3   OH261617   3.072   5.932   2.144 -0.0996 -0.1181  0.2123
13401TIP3    H161618   3.093   5.845   2.178 -0.2722 -0.2089  0.0911
13401TIP3    H261619   2.990   5.920   2.096  0.1031  0.0196 -0.1767
13402TIP3   OH261620   0.045   0.577  12.162 -0.7975  0.3498  0.2905
13402TIP3    H161621   0.064   0.660  12.120  0.1419  0.8271  1.5889
13402TIP3    H261622   0.068   0.510  12.097  0.4246  1.0562 -0.0218
13403TIP3   OH261623   1.488   5.128   2.555 -0.6737 -0.3747  0.3572
13403TIP3    H161624   1.515   5.211   2.595  0.3658 -0.5809  0.1267
13403TIP3    H261625   1.457   5.075   2.628  2.1538 -1.1286  1.1509
13404TIP3   OH261626   5.394   5.181  13.304  0.0497 -0.3051  0.0420
13404TIP3    H161627   5.416   5.204  13.394 -2.0297 -1.1493  0.8160
13404TIP3    H261628   5.386   5.265  13.259 -2.0236  0.3278  1.4652
13405TIP3   OH261629   4.496   2.113  15.600 -0.0478 -0.3085 -0.5875
13405TIP3    H161630   4.409   2.145  15.577 -0.2474  0.4539  1.0693
13405TIP3    H261631   4.555   2.182  15.570 -0.3225  0.7905  1.2621
13406TIP3   OH261632   3.753   4.613  14.429  0.4403 -0.2346 -0.0411
13406TIP3    H161633   3.722   4.523  14.415  1.3073 -0.2587 -2.0575
13406TIP3    H261634   3.674   4.663  14.447 -0.0341 -1.4153  1.3762
13407TIP3   OH261635   0.440   1.333   2.099 -0.0491  0.4668 -0.0869
13407TIP3    H161636   0.524   1.359   2.135 -0.6389  2.5192 -0.0530
13407TIP3    H261637   0.441   1.237   2.100  1.1729  0.4501  2.4531
13408TIP3   OH261638   3.283   5.172  11.309 -0.1995  0.1586  0.3484
13408TIP3    H161639   3.344   5.119  11.257 -0.5914  2.8037 -3.2259
13408TIP3    H261640   3.333   5.198  11.386  1.7091 -1.1720 -0.3624
13409TIP3   OH261641   6.736   5.060  16.274  0.7120  0.3702 -0.9588
13409TIP3    H161642   6.772   5.149  16.274  0.2650  0.6653  2.3978
13409TIP3    H261643   6.641   5.073  16.266  0.5707  0.2898  0.4267
13410TIP3   OH261644   6.010   3.462  14.468 -0.0407 -0.4119 -0.4963
13410TIP3    H161645   6.063   3.461  14.388 -0.9593 -0.5519 -1.1246
13410TIP3    H261646   6.004   3.370  14.495 -2.5666 -0.8761 -2.2515
13411TIP3   OH261647   5.864   2.954  13.463  0.2636 -1.2483 -0.5799
13411TIP3    H161648   5.804   2.901  13.411  1.2821 -2.3024 -0.7288
13411TIP3    H261649   5.808   3.003  13.523 -0.7223 -2.7992 -0.1826
13412TIP3   OH261650   6.246   4.445   2.020 -0.0247  0.3647  0.1449
13412TIP3    H161651   6.298   4.485   1.950 -1.3812  0.0966 -1.0543
13412TIP3    H261652   6.188   4.515   2.049  0.0480  0.2693  0.5254
13413TIP3   OH261653   2.021   0.545  16.522 -0.7543  0.0638 -0.5406
13413TIP3    H161654   2.048   0.535  16.431  2.2376  0.0085  0.2471
13413TIP3    H261655   2.099   0.523  16.573 -2.1313  0.7250  2.0310
13414TIP3   OH261656   3.313   3.216  13.678  0.1691  0.1289 -0.3376
13414TIP3    H161657   3.236   3.260  13.714  1.2139  1.3948  0.4456
13414TIP3    H261658   3.327   3.141  13.736 -0.5523 -0.2050 -0.5850
13415TIP3   OH261659   3.546   3.622  15.937  0.5821  0.6572  0.9680
13415TIP3    H161660   3.616   3.571  15.896 -0.4476  0.8871 -1.2506
13415TIP3    H261661   3.498   3.560  15.991  0.4931 -0.3248 -0.1995
13416TIP3   OH261662   0.405   0.682   1.297 -0.0268  0.1692 -0.0928
13416TIP3    H161663   0.450   0.763   1.323  1.2748 -0.5817  0.1049
13416TIP3    H261664   0.370   0.647   1.379 -2.1384  1.3887 -0.4144
13417TIP3   OH261665   4.761   4.263   3.622  0.0383  0.5456  0.4660
13417TIP3    H161666   4.767   4.185   3.567  1.0575 -0.5613  2.0523
13417TIP3    H261667   4.680   4.253   3.671  0.8887 -0.3352  1.7646
13418TIP3   OH261668   6.614   0.705  11.191 -0.0305 -0.1613 -0.0346
13418TIP3    H161669   6.590   0.708  11.284  0.7446  0.8647  0.1471
13418TIP3    H261670   6.663   0.623  11.182 -1.1931 -0.9088  0.1716
13419TIP3   OH261671   4.032   6.792   3.128 -0.0067 -1.0974 -0.4146
13419TIP3    H161672   4.100   6.740   3.172  0.4429 -0.5045 -0.3908
13419TIP3    H261673   3.960   6.731   3.114 -0.1112 -1.3508  1.0388
13420TIP3   OH261674   4.847   0.552   2.119 -0.3302  0.2523 -0.3310
13420TIP3    H161675   4.760   0.533   2.085 -0.8833  1.3104  0.4443
13420TIP3    H261676   4.853   0.648   2.116 -0.1509  0.3533  1.9060
13421TIP3   OH261677   3.325   1.707   5.541  0.2994 -0.3184 -0.3858
13421TIP3    H161678   3.255   1.708   5.606  0.9254  0.1126  0.2976
13421TIP3    H261679   3.359   1.617   5.542 -0.5263 -0.6535 -1.0498
13422TIP3   OH261680   0.723   3.992   2.476 -0.2415  0.2807 -0.6141
13422TIP3    H161681   0.753   4.023   2.390  2.5111  0.8636  0.4425
13422TIP3    H261682   0.804   3.980   2.526 -1.7062 -1.0525  1.5828
13423TIP3   OH261683   2.547   3.020  16.536  0.1459  0.1279 -0.3610
13423TIP3    H161684   2.471   2.978  16.575 -0.4822  2.2874  0.9209
13423TIP3    H261685   2.512   3.063  16.458 -0.1350  1.6095  0.5441
13424TIP3   OH261686   3.479   4.427  12.288 -0.5565 -0.0709 -0.5227
13424TIP3    H161687   3.545   4.486  12.251 -1.4200  1.6838  0.6244
13424TIP3    H261688   3.396   4.472  12.274 -1.1709 -0.6506  1.0522
13425TIP3   OH261689   6.733   1.601  14.800 -0.2054 -0.0722 -0.0480
13425TIP3    H161690   6.726   1.682  14.750 -0.4731  0.6700  1.1510
13425TIP3    H261691   6.649   1.557  14.785 -1.4540  1.4758  1.9315
13426TIP3   OH261692   4.700   0.115   4.577  0.4025 -0.4799  0.4198
13426TIP3    H161693   4.723   0.023   4.594  2.1768 -0.3372 -0.9771
13426TIP3    H261694   4.780   0.164   4.596 -0.8431  0.9889  2.3002
13427TIP3   OH261695   2.667   4.046  12.193  0.3277  0.1731  0.4034
13427TIP3    H161696   2.757   4.018  12.212 -0.0189 -0.5826  0.9955
13427TIP3    H261697   2.668   4.067  12.100  1.1623  0.3458  0.4407
13428TIP3   OH261698   6.228   4.139   5.356 -0.4433 -0.2600 -0.0515
13428TIP3    H161699   6.219   4.160   5.263  1.1628 -1.0035 -0.4078
13428TIP3    H261700   6.270   4.216   5.394  0.8754 -0.7654 -0.3992
13429TIP3   OH261701   3.675   3.928  15.428 -0.6774  0.6135 -0.0813
13429TIP3    H161702   3.687   3.954  15.519  1.1751 -1.1716  0.2626
13429TIP3    H261703   3.581   3.920  15.417 -0.9068  0.0304  1.9317
13430TIP3   OH261704   4.190   1.485  11.672  0.4775 -0.2180  0.4704
13430TIP3    H161705   4.243   1.560  11.646  1.3662 -0.5987  1.1456
13430TIP3    H261706   4.129   1.473  11.599  2.5547 -0.9436 -1.2782
13431TIP3   OH261707   5.428   4.202  11.243  0.0498 -0.1626 -0.3312
13431TIP3    H161708   5.374   4.190  11.165  0.7187  0.0653 -0.8382
13431TIP3    H261709   5.421   4.295  11.263  0.6971 -0.0244 -0.7308
13432TIP3   OH261710   0.053   3.113  15.148  0.1416 -0.4910  0.7022
13432TIP3    H161711   0.090   3.057  15.080  1.3790 -0.5316  1.3817
13432TIP3    H261712  -0.035   3.133  15.117  0.4189 -1.1075 -0.5525
13433TIP3   OH261713   1.479   0.690  13.410 -0.5171 -0.2932  0.0093
13433TIP3    H161714   1.520   0.774  13.392  0.0754 -0.0132  2.3141
13433TIP3    H261715   1.400   0.690  13.357  0.3378  0.9540 -1.3433
13434TIP3   OH261716   4.837   5.481   0.856  0.1588 -0.6482 -0.6388
13434TIP3    H161717   4.872   5.495   0.944  0.2735 -2.1283 -0.4136
13434TIP3    H261718   4.829   5.569   0.819  1.0690 -0.0584  0.4771
13435TIP3   OH261719   6.649   4.993   4.617 -0.2722 -0.1426  0.0987
13435TIP3    H161720   6.568   5.028   4.581 -0.2287  1.0856  1.1344
13435TIP3    H261721   6.662   4.910   4.570 -2.4998 -0.7324  0.4157
13436TIP3   OH261722   1.574   4.734   3.811 -0.0989 -0.0108 -0.2131
13436TIP3    H161723   1.669   4.742   3.823 -0.1060  1.1669 -0.7847
13436TIP3    H261724   1.563   4.728   3.716 -0.6061  0.0269 -0.1594
13437TIP3   OH261725   1.755   0.095  15.679  0.1503 -0.1507 -0.5811
13437TIP3    H161726   1.756   0.001  15.693  0.4163  0.0622  0.9696
13437TIP3    H261727   1.698   0.130  15.747  0.9252  0.8999 -0.4406
13438TIP3   OH261728   4.393   0.847   3.793 -0.3993 -0.2387 -1.1649
13438TIP3    H161729   4.487   0.864   3.790 -0.6321  1.1687 -1.2213
13438TIP3    H261730   4.356   0.906   3.727 -1.3405 -0.6277 -0.9963
13439TIP3   OH261731   6.018   3.951  12.510 -0.1253 -0.5783  0.2659
13439TIP3    H161732   6.014   3.872  12.564 -1.1050  0.5529  1.9241
13439TIP3    H261733   6.111   3.972  12.505  0.0212 -0.9810  1.1114
13440TIP3   OH261734   4.775   2.976   6.151  0.2987  0.2696  0.2224
13440TIP3    H161735   4.696   3.004   6.197  2.2632  1.2352  3.3673
13440TIP3    H261736   4.801   2.895   6.195  1.6105  0.5422 -0.0074
13441TIP3   OH261737   0.736   0.914   1.098  0.3903 -0.1427  0.3901
13441TIP3    H161738   0.790   0.914   1.177  0.4904 -0.0068  0.3222
13441TIP3    H261739   0.789   0.960   1.033  1.1216 -1.9100 -0.3207
13442TIP3   OH261740   3.929   0.131   5.506  0.5508  0.7156 -0.4199
13442TIP3    H161741   3.997   0.066   5.523  0.4847  0.2966 -1.7036
13442TIP3    H261742   3.886   0.101   5.427 -3.1019 -0.6139  1.8367
13443TIP3   OH261743   2.054   6.032   2.963  0.3449  0.4890  0.0367
13443TIP3    H161744   2.139   6.058   2.929  0.2875  0.9192  0.2063
13443TIP3    H261745   2.073   5.960   3.023  0.7049  1.2107  0.8062
13444TIP3   OH261746   4.708   0.433   2.702 -0.1380 -0.7622 -0.1873
13444TIP3    H161747   4.803   0.419   2.709 -0.2955 -1.7054  0.1657
13444TIP3    H261748   4.669   0.357   2.746 -1.0637 -0.5068 -0.5486
13445TIP3   OH261749   2.692   0.910   6.165  0.2951  0.3243  0.6447
13445TIP3    H161750   2.758   0.859   6.118 -0.3411 -0.2531  0.3550
13445TIP3    H261751   2.659   0.850   6.232  0.5517  0.8417  1.2418
13446TIP3   OH261752   0.236   1.443  16.450  0.4893 -0.4842  0.5241
13446TIP3    H161753   0.331   1.443  16.456  0.5612 -0.3079 -0.4799
13446TIP3    H261754   0.214   1.354  16.421  0.2949 -0.6974  1.2791
13447TIP3   OH261755   5.402   0.380   4.442 -0.9678 -0.4861  0.0996
13447TIP3    H161756   5.406   0.287   4.418  0.9104 -0.1998 -0.9205
13447TIP3    H261757   5.458   0.387   4.519 -1.1518 -0.2075  0.2089
13448TIP3   OH261758   5.717   6.331  13.843 -0.4577  0.6872 -0.0741
13448TIP3    H161759   5.730   6.245  13.803  0.7050  0.8846 -0.1416
13448TIP3    H261760   5.626   6.354  13.823 -0.1065  0.4942 -2.0208
13449TIP3   OH261761   5.692   4.437  11.180  0.1650 -0.0814 -0.5776
13449TIP3    H161762   5.786   4.455  11.179  0.2481 -0.3747  0.5524
13449TIP3    H261763   5.667   4.442  11.273 -0.9308 -0.0314 -0.8540
13450TIP3   OH261764   1.398   3.368   2.597  0.3388 -0.4485 -0.2729
13450TIP3    H161765   1.389   3.360   2.692 -2.0301 -1.2230 -0.4982
13450TIP3    H261766   1.339   3.439   2.573  1.9591  0.6867 -1.0708
13451TIP3   OH261767   5.814   1.572  11.485  0.3633  0.2642  0.4000
13451TIP3    H161768   5.822   1.625  11.565  0.3836 -1.4583  1.5914
13451TIP3    H261769   5.904   1.564  11.453  0.8039 -1.4519  1.8924
13452TIP3   OH261770   5.294   2.895   5.881 -0.2872  0.3118  0.4967
13452TIP3    H161771   5.377   2.912   5.837 -1.0056  1.6219 -0.4221
13452TIP3    H261772   5.228   2.899   5.812 -1.2191  0.2300  1.3459
13453TIP3   OH261773   2.174   1.415   5.851 -0.1574 -0.4849  0.1251
13453TIP3    H161774   2.154   1.332   5.808  1.1533  0.5601 -2.8176
13453TIP3    H261775   2.158   1.481   5.784 -1.1308  1.6971  2.3575
13454TIP3   OH261776   5.002   0.611  13.175  0.0661 -0.7626 -0.3715
13454TIP3    H161777   4.935   0.554  13.138 -1.5158  1.5210 -1.2173
13454TIP3    H261778   4.974   0.626  13.265 -0.2027 -0.3322 -0.5266
13455TIP3   OH261779   0.130   5.257   0.113  0.1579 -0.5844  0.0389
13455TIP3    H161780   0.151   5.195   0.183 -1.0118 -0.8860  0.1495
13455TIP3    H261781   0.088   5.330   0.157  1.3519  0.2279 -0.1158
13456TIP3   OH261782   4.269   5.914  11.620 -0.0864 -0.2910  0.6940
13456TIP3    H161783   4.304   5.975  11.685  1.0926  0.1081 -0.2784
13456TIP3    H261784   4.345   5.866  11.588 -1.0121 -2.5585  1.6580
13457TIP3   OH261785   1.580   4.131  16.540 -0.1589 -0.2886  0.0987
13457TIP3    H161786   1.584   4.127  16.444 -1.7238 -1.0236  0.0333
13457TIP3    H261787   1.652   4.076  16.570 -1.1806 -2.1162 -0.6922
13458TIP3   OH261788   3.114   4.854  10.879 -0.4738  0.1503 -0.4598
13458TIP3    H161789   3.025   4.874  10.910  0.2329  1.8221  0.6833
13458TIP3    H261790   3.115   4.760  10.867 -2.4387  0.1089 -0.6019
13459TIP3   OH261791   2.364   4.879   2.090 -0.0584 -0.3977 -0.5377
13459TIP3    H161792   2.274   4.871   2.061 -0.9072  1.0250  1.4269
13459TIP3    H261793   2.375   4.809   2.155 -0.6735  0.9623  1.1346
13460TIP3   OH261794   1.615   5.496   1.250  0.5341 -0.2237 -0.0997
13460TIP3    H161795   1.633   5.555   1.323  0.6788 -0.0393 -0.2830
13460TIP3    H261796   1.633   5.548   1.171  1.1495 -0.6558 -0.2581
13461TIP3   OH261797   4.743   5.283   4.883  0.4221  0.7569  0.2902
13461TIP3    H161798   4.821   5.281   4.827 -0.5864 -1.1409 -1.1488
13461TIP3    H261799   4.777   5.261   4.970  1.3401 -1.9057 -0.6346
13462TIP3   OH261800   5.706   6.255   4.778  0.2683 -0.1370 -0.4289
13462TIP3    H161801   5.756   6.295   4.707  0.6890 -0.9623 -0.6055
13462TIP3    H261802   5.621   6.300   4.776  0.5666  0.4111 -0.9196
13463TIP3   OH261803   3.489   5.795  13.858  0.6982  0.1200  0.1148
13463TIP3    H161804   3.395   5.782  13.844  0.8610 -0.6020 -0.3763
13463TIP3    H261805   3.531   5.737  13.794  1.4959  1.6486 -0.7819
13464TIP3   OH261806   5.621   5.023   2.554 -0.5657 -0.2843  0.5154
13464TIP3    H161807   5.538   5.068   2.538 -0.7329 -1.0721 -1.0055
13464TIP3    H261808   5.597   4.948   2.610 -0.7991 -0.2397  0.4745
13465TIP3   OH261809   6.322   4.059   0.583  0.4266 -0.2197 -0.1183
13465TIP3    H161810   6.241   4.110   0.590  0.9657  0.5509  0.7825
13465TIP3    H261811   6.301   3.975   0.623  0.1954  0.1286  0.5063
13466TIP3   OH261812   4.636   4.388   2.428 -0.9687  0.2381 -0.1005
13466TIP3    H161813   4.631   4.295   2.448  0.4857 -0.2677 -1.7686
13466TIP3    H261814   4.681   4.427   2.503 -0.2455 -0.6732 -0.0392
13467TIP3   OH261815   3.464   0.922  14.043  0.5493  0.9822 -0.5188
13467TIP3    H161816   3.493   1.010  14.016  0.8573  0.9976 -0.1538
13467TIP3    H261817   3.447   0.931  14.137 -0.9453  1.0428 -0.7821
13468TIP3   OH261818   4.675   1.781  16.595 -0.7257 -0.0395  0.1124
13468TIP3    H161819   4.717   1.727  16.662  0.2264 -0.7069 -0.9910
13468TIP3    H261820   4.590   1.739  16.580 -1.2209  0.4839  1.3273
13469TIP3   OH261821   0.611   3.108  13.831 -0.9054 -0.3758 -0.0959
13469TIP3    H161822   0.650   3.096  13.744 -1.2845 -1.5853 -0.1175
13469TIP3    H261823   0.651   3.188  13.864 -0.0753 -0.3866 -1.0234
13470TIP3   OH261824   1.787   3.937  16.645 -0.8151  0.1927 -0.6690
13470TIP3    H161825   1.802   3.843  16.629  0.9740  0.6986 -2.3133
13470TIP3    H261826   1.833   3.955  16.727 -1.1881 -0.3619 -0.3322
13471TIP3   OH261827   0.506   0.220  14.873 -0.2700  0.4089 -0.2723
13471TIP3    H161828   0.491   0.281  14.800 -0.1452 -1.6000 -2.1062
13471TIP3    H261829   0.581   0.167  14.845 -1.8862 -2.2311 -0.0092
13472TIP3   OH261830   5.462   1.488   1.401 -0.5082 -0.5348  0.2003
13472TIP3    H161831   5.554   1.514   1.403 -0.7953  0.6145  2.6825
13472TIP3    H261832   5.428   1.523   1.318  0.4478  2.3640  0.9080
13473TIP3   OH261833   3.946   2.829   3.361  0.5962 -0.2771 -0.2972
13473TIP3    H161834   4.029   2.782   3.365  0.7219  0.0019  0.4764
13473TIP3    H261835   3.958   2.891   3.288  0.9131 -0.5245 -0.4577
13474TIP3   OH261836   6.101   0.821  11.471 -0.6607  0.1927  0.3208
13474TIP3    H161837   6.161   0.797  11.400 -3.0956 -0.6914 -1.5493
13474TIP3    H261838   6.057   0.739  11.495 -0.8196  0.7183  2.0113
13475TIP3   OH261839   0.166   5.130   1.768  0.0100 -0.4276 -0.1643
13475TIP3    H161840   0.142   5.039   1.785  1.2019 -0.3730  2.3878
13475TIP3    H261841   0.243   5.125   1.712 -0.1256 -0.9583 -0.3065
13476TIP3   OH261842   0.649   1.868   5.034 -0.0755  0.7460  0.3285
13476TIP3    H161843   0.585   1.929   4.997 -1.0909 -0.6844 -0.3559
13476TIP3    H261844   0.734   1.911   5.020 -0.4428  0.6210 -3.1340
13477TIP3   OH261845   5.560   3.335  14.066 -0.0731 -0.0673 -0.2829
13477TIP3    H161846   5.551   3.424  14.030 -2.4612  0.3873  1.2550
13477TIP3    H261847   5.506   3.335  14.144 -0.5149 -3.0440 -0.4825
13478TIP3   OH261848   0.156   0.817  12.271  0.1392  0.3930  0.0014
13478TIP3    H161849   0.143   0.727  12.301 -1.3032 -0.1924 -2.1399
13478TIP3    H261850   0.238   0.814  12.222  0.2135  0.2878  0.1335
13479TIP3   OH261851   0.420   4.534   2.577  0.3050  0.5763 -0.7688
13479TIP3    H161852   0.434   4.605   2.640 -2.7613  1.9449 -1.4315
13479TIP3    H261853   0.326   4.515   2.583  0.1478 -0.1765 -3.9347
13480TIP3   OH261854   6.368   1.164  15.104  0.4334  0.1363  0.4333
13480TIP3    H161855   6.367   1.220  15.182 -0.2346 -0.1385  0.6279
13480TIP3    H261856   6.460   1.140  15.093  0.5956  0.5448  0.8730
13481TIP3   OH261857   5.811   0.976   0.052  0.2374 -0.0468  0.1852
13481TIP3    H161858   5.841   0.906   0.110  1.2418 -0.3249 -0.6465
13481TIP3    H261859   5.717   0.960   0.042  0.2709 -0.6751  0.8074
13482TIP3   OH261860   3.862   0.510   4.418 -0.4810  0.1161 -0.1330
13482TIP3    H161861   3.905   0.546   4.496  1.0153  0.2191 -0.9718
13482TIP3    H261862   3.769   0.516   4.438 -0.1588  0.8972  1.3173
13483TIP3   OH261863   0.944   6.736  16.089 -0.5734 -0.2723  0.2367
13483TIP3    H161864   1.033   6.730  16.056 -1.1488 -2.3374 -1.0790
13483TIP3    H261865   0.954   6.736  16.184  0.8272 -0.1791  0.1085
13484TIP3   OH261866   1.704   2.124  12.767 -0.2659  0.5088 -0.2056
13484TIP3    H161867   1.784   2.125  12.819  0.0840  1.4216 -0.7369
13484TIP3    H261868   1.727   2.075  12.688  0.1795  1.8789 -0.9533
13485TIP3   OH261869   3.130   0.913  15.469  0.2059  0.4442 -0.5134
13485TIP3    H161870   3.053   0.913  15.413  0.5052  0.1706 -0.9325
13485TIP3    H261871   3.114   0.841  15.531 -0.5415  1.3289  0.3533
13486TIP3   OH261872   4.908   5.147  15.964  0.2304 -0.0104 -0.0829
13486TIP3    H161873   4.822   5.105  15.970  0.3266 -0.0858  1.2522
13486TIP3    H261874   4.888   5.238  15.945 -0.1375 -0.0740 -0.0220
13487TIP3   OH261875   0.562   5.758   5.801 -0.4835 -0.0038 -0.3193
13487TIP3    H161876   0.567   5.761   5.896  1.6437  0.3557 -0.3797
13487TIP3    H261877   0.498   5.825   5.778 -0.4252  0.4639  0.8381
13488TIP3   OH261878   4.719   4.624   2.156  0.4296  0.6828  0.3759
13488TIP3    H161879   4.745   4.533   2.141 -0.0995  0.7521 -1.2320
13488TIP3    H261880   4.789   4.676   2.115  0.2919  0.9693  0.5015
13489TIP3   OH261881   4.023   3.674   1.666 -0.4866  0.0980  0.1101
13489TIP3    H161882   3.953   3.646   1.606 -2.6139  1.1002  1.9478
13489TIP3    H261883   4.022   3.769   1.660 -0.6889  0.2141  1.6262
13490TIP3   OH261884   3.630   2.107  16.095 -0.0009  0.7165  0.1401
13490TIP3    H161885   3.699   2.050  16.062  0.7629  2.1729 -0.8878
13490TIP3    H261886   3.615   2.078  16.185  0.7566 -0.7107 -0.1786
13491TIP3   OH261887   4.547   0.476   1.003  0.1605 -0.3416 -0.0626
13491TIP3    H161888   4.470   0.529   0.985 -0.5762 -0.4377  2.4583
13491TIP3    H261889   4.620   0.528   0.969 -0.9151 -0.0683 -2.1345
13492TIP3   OH261890   6.186   0.753  15.355 -0.2451  0.1662  0.1424
13492TIP3    H161891   6.240   0.771  15.278  0.0580  0.9886  0.5402
13492TIP3    H261892   6.134   0.677  15.330  1.3053 -0.8415 -0.1529
13493TIP3   OH261893   3.223   4.304   3.051  0.2269  0.2834  0.0289
13493TIP3    H161894   3.242   4.242   2.980 -0.9411  2.4835 -2.3460
13493TIP3    H261895   3.129   4.322   3.043  0.2129  1.1671  1.6895
13494TIP3   OH261896   5.983   1.038   3.486 -0.4850 -0.4428  0.1348
13494TIP3    H161897   5.928   1.116   3.488 -0.8808 -0.7194  0.0869
13494TIP3    H261898   5.922   0.965   3.483 -0.1667 -0.7050 -2.8119
13495TIP3   OH261899   3.081   4.865  13.960  0.4280 -0.3666 -0.3662
13495TIP3    H161900   3.033   4.934  14.006  0.3186 -1.3680  1.0821
13495TIP3    H261901   3.019   4.792  13.954  0.8572 -0.6882 -1.0396
13496TIP3   OH261902   1.305   6.142  15.585 -0.0027  0.0074 -0.9344
13496TIP3    H161903   1.280   6.081  15.655 -0.0453 -0.0605 -1.0075
13496TIP3    H261904   1.296   6.090  15.505  0.8270 -0.1630 -0.9273
13497TIP3   OH261905   0.037   5.643  13.999  0.0489  0.2072  0.0140
13497TIP3    H161906   0.098   5.628  14.072  2.7389 -0.1670 -2.1325
13497TIP3    H261907   0.080   5.603  13.923 -1.1953  2.9918 -2.3653
13498TIP3   OH261908   1.846   2.058  13.429 -0.0096  0.0318 -0.1111
13498TIP3    H161909   1.927   2.087  13.388 -1.8102 -0.1017 -4.2424
13498TIP3    H261910   1.855   1.963  13.436 -0.1426 -0.1005 -1.5120
13499TIP3   OH261911   4.368   1.147  16.267  0.3820  0.1329 -0.6613
13499TIP3    H161912   4.296   1.084  16.253 -1.5647  2.1687 -0.3172
13499TIP3    H261913   4.379   1.189  16.182 -1.1469  2.0940  0.0481
13500TIP3   OH261914   4.185   0.459  11.601 -0.0961 -0.5342 -0.0810
13500TIP3    H161915   4.228   0.411  11.671  0.7460  0.2667 -0.0317
13500TIP3    H261916   4.215   0.416  11.520 -1.4513 -1.7696  0.0340
13501TIP3   OH261917   5.734   1.437  12.379 -0.2466  0.2890 -0.3185
13501TIP3    H161918   5.783   1.355  12.373 -0.3135  0.2211  0.0575
13501TIP3    H261919   5.659   1.424  12.321 -0.7047 -0.2357  0.3768
13502TIP3   OH261920   5.945   1.661  13.975  0.0968 -0.4703  0.5958
13502TIP3    H161921   5.913   1.692  13.890 -1.2769  0.5702  1.4573
13502TIP3    H261922   6.016   1.600  13.953 -0.6774 -0.7428 -1.3133
13503TIP3   OH261923   3.134   1.896   5.155 -0.4436  0.0988  0.5996
13503TIP3    H161924   3.157   1.972   5.103 -3.2923  0.2948 -0.5607
13503TIP3    H261925   3.181   1.908   5.238  2.1097  1.1197 -0.8977
13504TIP3   OH261926   5.328   4.847   2.973 -0.9915  0.1814 -0.0673
13504TIP3    H161927   5.301   4.806   3.056  0.1726 -0.3990  0.0507
13504TIP3    H261928   5.278   4.800   2.906 -0.6988 -0.5064  0.1825
13505TIP3   OH261929   6.382   2.053   3.842 -0.1453  0.4194 -0.2461
13505TIP3    H161930   6.340   1.967   3.846  0.3764  0.1406 -0.6250
13505TIP3    H261931   6.323   2.106   3.788  0.5714 -0.3323 -1.8542
13506TIP3   OH261932   2.295   5.369   4.813  0.0519 -0.4165  0.8775
13506TIP3    H161933   2.289   5.354   4.907  0.4184  0.6979  1.0821
13506TIP3    H261934   2.203   5.371   4.783 -0.0769 -0.2631  1.2865
13507TIP3   OH261935   5.548   3.698   2.477 -0.0669  0.2324  0.2600
13507TIP3    H161936   5.553   3.604   2.457  0.5427  0.3583 -0.1868
13507TIP3    H261937   5.548   3.701   2.573  0.2574 -0.2057  0.2790
13508TIP3   OH261938   5.366   5.584   0.235  0.2665  0.3043  0.3861
13508TIP3    H161939   5.461   5.581   0.248  0.0723  1.6825  2.5400
13508TIP3    H261940   5.344   5.495   0.206  2.2558  0.1136 -0.7467
13509TIP3   OH261941   1.928   4.614   4.642 -0.6859 -0.6083  0.0428
13509TIP3    H161942   1.843   4.579   4.617 -0.1551 -0.8523 -1.5463
13509TIP3    H261943   1.955   4.668   4.568  0.8044 -1.0188  0.2480
13510TIP3   OH261944   1.307   6.129  14.653 -0.0304  0.7517 -0.1905
13510TIP3    H161945   1.309   6.036  14.676  0.8077  1.1724  1.5204
13510TIP3    H261946   1.219   6.142  14.617  0.3279 -0.9949 -1.8709
13511TIP3   OH261947   5.103   3.178   4.453  0.6645  0.4545 -0.1406
13511TIP3    H161948   5.018   3.180   4.410  0.0480  0.4044  1.0345
13511TIP3    H261949   5.102   3.254   4.511  0.2810 -1.0404  1.9277
13512TIP3   OH261950   4.586   4.600  15.013  0.4992  0.2502  0.3273
13512TIP3    H161951   4.546   4.517  14.988  0.4472  0.2615  0.3733
13512TIP3    H261952   4.535   4.630  15.089  0.8104  0.0956  0.5986
13513TIP3   OH261953   0.164   0.396   4.647 -0.6649 -0.7907 -0.0231
13513TIP3    H161954   0.183   0.446   4.727 -0.5860 -0.1863 -0.4127
13513TIP3    H261955   0.071   0.413   4.630 -0.2471  0.6300 -1.0957
13514TIP3   OH261956   3.874   4.198   0.059  0.1147 -0.1114  0.2920
13514TIP3    H161957   3.841   4.138  -0.007  2.1461  0.2111 -1.1044
13514TIP3    H261958   3.955   4.159   0.090  1.4761  1.8143 -0.6288
13515TIP3   OH261959   0.442   6.522  12.429 -0.1508  0.0280  0.2652
13515TIP3    H161960   0.441   6.588  12.360  1.1150 -0.4086 -0.1930
13515TIP3    H261961   0.358   6.477  12.422 -0.8113  1.2294  0.2484
13516TIP3   OH261962   6.356   3.933   0.158 -0.2325 -0.4142  0.4713
13516TIP3    H161963   6.301   3.914   0.234 -0.8739  0.0229  0.1326
13516TIP3    H261964   6.385   4.023   0.171  0.2042 -0.5612  0.5249
13517TIP3   OH261965   1.433   2.907  12.167  0.4399  0.1987 -0.3102
13517TIP3    H161966   1.481   2.947  12.095 -0.5820 -0.3692 -1.3596
13517TIP3    H261967   1.470   2.819  12.175  1.0790  0.5284  0.3888
13518TIP3   OH261968   2.421   6.788  16.880 -0.1317  0.0252  0.4653
13518TIP3    H161969   2.438   6.867  16.931 -0.6549  0.2741  0.2631
13518TIP3    H261970   2.492   6.728  16.903 -0.4244  0.0875  1.5837
13519TIP3   OH261971   4.847   6.395   3.967 -0.6066 -0.3623 -0.7097
13519TIP3    H161972   4.834   6.448   4.046 -0.2486  1.2068 -1.6757
13519TIP3    H261973   4.895   6.452   3.907 -1.3897 -1.3181 -2.3031
13520TIP3   OH261974   4.863   1.823   2.338  0.4333 -0.1216 -0.2776
13520TIP3    H161975   4.937   1.795   2.283 -1.2566 -2.0165 -1.7246
13520TIP3    H261976   4.857   1.757   2.406 -1.6170 -1.6618 -1.8432
13521TIP3   OH261977   1.977   2.405   3.731  0.3190  0.0601 -0.5508
13521TIP3    H161978   1.899   2.350   3.725 -0.9136  1.7877 -1.4538
13521TIP3    H261979   2.035   2.373   3.661  0.4397 -1.2112  0.1052
13522TIP3   OH261980   5.777   4.183  13.952 -0.5465  0.3257  0.3475
13522TIP3    H161981   5.813   4.171  14.040 -0.7598  1.5056  0.6163
13522TIP3    H261982   5.806   4.271  13.927  0.9228 -0.6111 -1.4601
13523TIP3   OH261983   2.726   2.419   0.992 -0.0137  0.0162  0.3857
13523TIP3    H161984   2.685   2.340   0.957  0.4327  0.4595 -1.2476
13523TIP3    H261985   2.756   2.394   1.079 -0.2264 -1.4989  0.0567
13524TIP3   OH261986   6.291   4.035  11.244  0.4495 -0.0481  0.1572
13524TIP3    H161987   6.368   4.013  11.296 -0.0892  1.4181  1.6851
13524TIP3    H261988   6.245   4.101  11.297 -2.1294 -1.2361 -0.4333
13525TIP3   OH261989   5.833   2.651  14.124 -0.7042  1.0106  0.4138
13525TIP3    H161990   5.825   2.727  14.181 -1.7008  1.0974  0.1690
13525TIP3    H261991   5.783   2.582  14.168  1.1194  0.1341  1.2103
13526TIP3   OH261992   2.767   1.892  15.183 -0.0051  0.2108  0.2058
13526TIP3    H161993   2.756   1.853  15.096 -0.7099 -1.9076  1.1667
13526TIP3    H261994   2.729   1.979  15.175  0.2056  0.1813 -1.6626
13527TIP3   OH261995   4.333   5.033  13.268 -0.0947 -0.5805 -0.4565
13527TIP3    H161996   4.251   5.067  13.304  0.5087  0.6503 -0.1967
13527TIP3    H261997   4.329   4.938  13.284 -0.3569 -0.2386  1.8371
13528TIP3   OH261998   0.891   0.873   3.525 -0.6285  0.3822 -0.1504
13528TIP3    H161999   0.890   0.888   3.619 -1.4092  0.5490 -0.1715
13528TIP3    H262000   0.971   0.823   3.508 -0.6276  0.1159  0.6346
13529TIP3   OH262001   3.232   6.794   5.327 -0.0617  0.7432 -0.4619
13529TIP3    H162002   3.196   6.758   5.408 -2.9802  0.1731 -1.8954
13529TIP3    H262003   3.286   6.868   5.355  0.3121 -0.3935  2.0612
13530TIP3   OH262004   5.304   2.749  11.522  0.2502 -0.2553 -0.3390
13530TIP3    H162005   5.249   2.818  11.559  0.6941 -0.4840  0.7917
13530TIP3    H262006   5.255   2.668  11.535  0.9767 -0.5193  1.0634
13531TIP3   OH262007   0.956   4.856   5.443  0.2306  0.2929  0.0620
13531TIP3    H162008   0.953   4.826   5.352 -0.6487  0.4661  0.0249
13531TIP3    H262009   0.866   4.848   5.473  0.2727  1.4496  0.5218
13532TIP3   OH262010   4.713   5.558  12.721 -0.1954  0.5193  0.1583
13532TIP3    H162011   4.786   5.496  12.732 -2.1312 -2.0204 -0.3749
13532TIP3    H262012   4.646   5.526  12.782 -1.4321  1.8487 -0.4654
13533TIP3   OH262013   6.275   1.720  10.920 -0.4895  0.0501  0.4024
13533TIP3    H162014   6.326   1.703  10.840  1.9841  2.0325  1.4353
13533TIP3    H262015   6.184   1.717  10.891  0.2566 -0.7339 -2.1776
13534TIP3   OH262016   3.184   6.416   0.279  0.1007 -0.1715 -0.0271
13534TIP3    H162017   3.249   6.381   0.340  1.8015 -0.1256 -1.7094
13534TIP3    H262018   3.125   6.342   0.262 -0.2965 -0.2264  1.4914
13535TIP3   OH262019   4.024   4.881   1.101  0.4219 -0.5555 -0.1534
13535TIP3    H162020   4.015   4.849   1.190 -2.3793 -3.4414 -1.2937
13535TIP3    H262021   4.101   4.836   1.066 -0.2031 -1.7507 -0.0348
13536TIP3   OH262022   2.670   6.676   2.389  0.3912  0.0661 -0.1089
13536TIP3    H162023   2.603   6.631   2.336 -0.0043  0.6508 -0.1171
13536TIP3    H262024   2.749   6.624   2.377  0.2101 -0.0239 -0.9857
13537TIP3   OH262025   3.468   5.634   1.278  0.0765  0.1945  0.1358
13537TIP3    H162026   3.467   5.608   1.370  2.1591  0.1279  0.1841
13537TIP3    H262027   3.403   5.577   1.236  0.2743 -0.9053  1.2769
13538TIP3   OH262028   0.544   5.523  14.003  0.3231 -0.0943  0.3281
13538TIP3    H162029   0.516   5.575  14.079 -0.5163 -2.5332  1.8079
13538TIP3    H262030   0.481   5.545  13.935  1.9357  3.2538 -0.3182
13539TIP3   OH262031   1.838   4.991   2.221  0.1649 -0.7329  0.0509
13539TIP3    H162032   1.774   4.949   2.164 -1.6386  0.4007  1.1272
13539TIP3    H262033   1.792   4.999   2.305  1.4544  0.8204  0.6453
13540TIP3   OH262034   2.428   6.311  11.683  0.6906  0.1585  0.3551
13540TIP3    H162035   2.368   6.251  11.639  1.6817  0.5554 -1.7053
13540TIP3    H262036   2.391   6.325  11.770  0.0501 -2.8402  0.6570
13541TIP3   OH262037   2.524   5.810   6.331 -0.5756  0.2836  0.5800
13541TIP3    H162038   2.546   5.815   6.239 -1.3798  0.0264  0.3607
13541TIP3    H262039   2.544   5.897   6.366  2.1891 -0.3415  0.7692
13542TIP3   OH262040   2.484   5.151   2.795 -0.3188  0.3649  0.1372
13542TIP3    H162041   2.414   5.179   2.853 -0.8081 -1.5615  0.5643
13542TIP3    H262042   2.564   5.181   2.836 -0.6479 -1.0589  1.9481
13543TIP3   OH262043   1.669   4.351   0.167 -0.2243  0.3053 -0.6823
13543TIP3    H162044   1.643   4.366   0.258  1.0262  0.2366 -0.2921
13543TIP3    H262045   1.764   4.343   0.171  0.1966  3.0643 -2.3558
13544TIP3   OH262046   1.246   1.563   1.434 -0.1854  0.2394 -0.3800
13544TIP3    H162047   1.291   1.645   1.452  3.5440 -1.3412 -1.4722
13544TIP3    H262048   1.295   1.497   1.483 -1.5042 -1.6473 -1.4512
13545TIP3   OH262049   1.627   4.488   0.421 -0.2659 -0.2173  1.0142
13545TIP3    H162050   1.677   4.514   0.498 -0.8819 -0.9236  1.6705
13545TIP3    H262051   1.637   4.561   0.360  1.3568 -0.2390  1.2055
13546TIP3   OH262052   3.998   1.522   1.825  0.1825 -0.2166  0.1495
13546TIP3    H162053   3.931   1.520   1.757  0.2442  2.8463 -0.1593
13546TIP3    H262054   4.065   1.461   1.794 -0.9580 -0.8407 -1.2141
13547TIP3   OH262055   1.455   2.106  14.371  0.2684 -0.9223 -0.2816
13547TIP3    H162056   1.494   2.171  14.429 -0.0202 -1.8231  0.9722
13547TIP3    H262057   1.530   2.064  14.328  0.5204 -0.7250 -0.0362
13548TIP3   OH262058   5.009   2.985  13.555 -0.3430 -0.8922  0.4875
13548TIP3    H162059   5.036   3.060  13.501 -0.2724 -2.1776 -1.3734
13548TIP3    H262060   5.026   3.013  13.645  0.5921  0.9573 -0.2028
13549TIP3   OH262061   3.688   3.466   5.598  0.3824 -0.3196  0.3228
13549TIP3    H162062   3.635   3.507   5.666  1.7717  1.2081  0.5691
13549TIP3    H262063   3.625   3.436   5.533 -0.7744  2.0653  0.2334
13550TIP3   OH262064   6.089   4.633   3.785  0.1495 -0.1808  0.2055
13550TIP3    H162065   6.155   4.623   3.715 -0.2664  0.2439 -0.2545
13550TIP3    H262066   6.010   4.661   3.739 -0.2942 -0.4734  0.7852
13551TIP3   OH262067   1.990   0.113   1.483 -0.2593  0.5604  0.0258
13551TIP3    H162068   1.898   0.118   1.509  0.1047  1.5184  1.1860
13551TIP3    H262069   2.036   0.081   1.561  0.5588  1.3380 -0.1186
13552TIP3   OH262070   1.958   5.303  12.324  0.1449 -0.6845 -0.2699
13552TIP3    H162071   1.939   5.378  12.268  0.3923 -1.2351 -1.1001
13552TIP3    H262072   1.940   5.227  12.270 -1.9884 -1.3040  1.1462
13553TIP3   OH262073   3.507   6.127  13.962 -0.0513  0.2092  0.1188
13553TIP3    H162074   3.545   6.075  13.891  0.5279 -1.1631  1.3732
13553TIP3    H262075   3.580   6.179  13.995 -0.5292  1.5480 -0.8391
13554TIP3   OH262076   5.889   4.204   2.492 -0.0421 -0.0794 -0.3328
13554TIP3    H162077   5.912   4.273   2.554 -1.8022  1.8804 -1.7337
13554TIP3    H262078   5.930   4.125   2.528  2.9129  1.8198  0.8139
13555TIP3   OH262079   3.129   5.891  15.086  0.0432 -0.8644 -0.1759
13555TIP3    H162080   3.109   5.806  15.045 -0.2947 -0.6413 -0.4787
13555TIP3    H262081   3.216   5.914  15.052  1.1906 -2.1634  1.6745
13556TIP3   OH262082   0.192   0.426  14.363 -0.0010 -0.7164  0.3060
13556TIP3    H162083   0.147   0.501  14.400 -0.4590 -0.2517 -1.1060
13556TIP3    H262084   0.186   0.358  14.430 -1.2423 -0.0914  0.8556
13557TIP3   OH262085   5.154   1.641  15.857 -0.0063 -0.1419  0.0629
13557TIP3    H162086   5.110   1.579  15.799  0.7108 -0.0008 -0.6533
13557TIP3    H262087   5.096   1.717  15.859  0.4345  0.2735 -1.3396
13558TIP3   OH262088   0.976   2.816   5.373  0.7086  0.1457  0.0368
13558TIP3    H162089   0.937   2.900   5.396 -2.6470 -1.8458  2.6696
13558TIP3    H262090   0.918   2.780   5.306  0.8133 -0.9089  0.4876
13559TIP3   OH262091   1.623   2.321  12.952  0.3596  0.5745  0.5617
13559TIP3    H162092   1.633   2.250  12.889  0.8928  1.8659 -0.8550
13559TIP3    H262093   1.529   2.339  12.953  0.4921  1.6267 -1.1720
13560TIP3   OH262094   6.194   0.642   4.847  0.0167  0.7088 -0.0019
13560TIP3    H162095   6.240   0.651   4.931  0.2360  0.0140 -0.0339
13560TIP3    H262096   6.252   0.585   4.795  0.1688  1.6134 -0.8420
13561TIP3   OH262097   3.800   0.277  15.562 -0.3546  0.0013 -0.7753
13561TIP3    H162098   3.771   0.369  15.560 -1.2968 -0.2444  0.5111
13561TIP3    H262099   3.835   0.265  15.650  2.2169 -0.2015 -1.7447
13562TIP3   OH262100   5.022   0.041   0.952  0.8484 -0.1573  0.0249
13562TIP3    H162101   4.960  -0.006   1.007 -1.1621  2.1494 -0.1275
13562TIP3    H262102   5.072   0.095   1.014 -0.9589  1.9306 -0.2248
13563TIP3   OH262103   2.565   1.656  12.745 -0.0356  1.0763 -0.5927
13563TIP3    H162104   2.594   1.583  12.690  0.5397  1.1348 -0.3757
13563TIP3    H262105   2.644   1.706  12.762  0.1269  0.2037  1.5692
13564TIP3   OH262106   1.303   0.598   3.453 -0.2024  0.4399  0.3510
13564TIP3    H162107   1.265   0.512   3.438 -0.0185  0.4036  0.0919
13564TIP3    H262108   1.340   0.623   3.369  2.7201 -0.6993  1.1611
13565TIP3   OH262109   0.843   1.493  15.853  0.1092 -0.3960 -0.0226
13565TIP3    H162110   0.809   1.410  15.820 -1.3392  0.0168  0.3337
13565TIP3    H262111   0.820   1.493  15.946  1.7297 -0.3628  0.4147
13566TIP3   OH262112   1.332   6.198  12.286  0.2536  0.5327  0.0741
13566TIP3    H162113   1.287   6.141  12.348 -2.1571  1.6474 -0.5495
13566TIP3    H262114   1.368   6.139  12.220  1.2589 -0.5164  1.4886
13567TIP3   OH262115   6.161   3.671   4.611 -0.2173  0.0579  0.0512
13567TIP3    H162116   6.141   3.698   4.522  1.5679 -1.8930 -1.0116
13567TIP3    H262117   6.075   3.650   4.649 -0.8698 -0.9327 -1.8396
13568TIP3   OH262118   4.261   0.610   3.781  0.7224 -0.6105  0.2237
13568TIP3    H162119   4.324   0.541   3.797  0.2160 -1.2138 -0.3327
13568TIP3    H262120   4.300   0.689   3.820  1.3398 -1.1849  0.7783
13569TIP3   OH262121   2.784   5.233  10.824  0.7641 -0.2072 -0.3700
13569TIP3    H162122   2.855   5.215  10.886  0.1783  1.0845  0.7184
13569TIP3    H262123   2.704   5.224  10.876  0.1432 -0.8963 -1.4007
13570TIP3   OH262124   2.291   5.794  14.662  0.0333 -0.4277 -0.1164
13570TIP3    H162125   2.330   5.712  14.691  1.4079  0.7522  1.5483
13570TIP3    H262126   2.304   5.854  14.735 -1.0475  1.2621 -1.2416
13571TIP3   OH262127   6.266   2.118  15.335 -0.4535 -0.4822  0.1558
13571TIP3    H162128   6.242   2.186  15.399 -0.6746 -1.0867  0.7192
13571TIP3    H262129   6.273   2.166  15.252 -2.8217 -0.1125  0.1007
13572TIP3   OH262130   6.006   3.040  15.750  0.1487 -0.0443 -0.3703
13572TIP3    H162131   5.974   3.094  15.678  1.9840  1.3664 -0.2039
13572TIP3    H262132   5.967   3.079  15.828 -0.5335 -0.5417 -0.4631
13573TIP3   OH262133   5.034   0.069  16.358  0.2830  0.0416  0.1678
13573TIP3    H162134   4.946   0.083  16.391 -0.1280  1.4613 -1.3902
13573TIP3    H262135   5.087   0.137  16.399  0.0101  1.0632 -1.1049
13574TIP3   OH262136   2.510   3.562   0.706 -0.1156  0.4450 -0.3695
13574TIP3    H162137   2.533   3.536   0.795 -0.2384 -0.2574 -0.5395
13574TIP3    H262138   2.416   3.544   0.700  0.2656 -1.5333 -1.3040
13575TIP3   OH262139   2.836   0.230   1.569  0.2710 -0.6162  0.5031
13575TIP3    H162140   2.770   0.268   1.511  0.6456 -0.6872  0.0284
13575TIP3    H262141   2.797   0.148   1.599 -0.8811  0.4648  2.1529
13576TIP3   OH262142   3.142   3.161  11.150  0.0220  0.6289 -0.0203
13576TIP3    H162143   3.198   3.115  11.088 -1.8414  0.6056 -1.7822
13576TIP3    H262144   3.078   3.207  11.096 -1.4515  0.9564  1.8717
13577TIP3   OH262145   3.981   5.239  16.029 -0.4963  0.0855 -0.2569
13577TIP3    H162146   3.937   5.323  16.043 -0.3963 -0.2098  2.2613
13577TIP3    H262147   3.912   5.179  16.001 -1.2451  0.2489  1.1627
13578TIP3   OH262148   3.144   0.737  13.456 -0.3685  0.5558 -0.2389
13578TIP3    H162149   3.202   0.740  13.380 -0.0030 -0.8936 -0.0493
13578TIP3    H262150   3.201   0.716  13.529 -1.0164 -0.1514  0.0744
13579TIP3   OH262151   3.526   3.621   1.048  0.6259  0.7067 -0.4516
13579TIP3    H162152   3.567   3.707   1.037  0.1841  0.8694 -0.8823
13579TIP3    H262153   3.539   3.600   1.140 -0.1204  1.6872 -0.0995
13580TIP3   OH262154   5.821   2.883  14.247 -0.0291 -0.4140 -0.0578
13580TIP3    H162155   5.905   2.927  14.233  0.4042 -0.9697  0.7475
13580TIP3    H262156   5.755   2.951  14.230  0.6217  0.5677  1.1981
13581TIP3   OH262157   6.256   2.879   4.640  0.3556  0.1469 -0.2484
13581TIP3    H162158   6.285   2.816   4.573 -1.3878  0.0856 -1.0162
13581TIP3    H262159   6.333   2.931   4.659  1.1975 -0.5822 -1.4784
13582TIP3   OH262160   4.914   2.732  13.513  0.1630  0.0576  0.5032
13582TIP3    H162161   4.931   2.825  13.529 -0.7849  0.4205 -0.4964
13582TIP3    H262162   4.819   2.724  13.514  0.2380 -1.2745  2.4036
13583TIP3   OH262163   0.566   1.136  14.734 -0.7536  0.2632  0.5971
13583TIP3    H162164   0.602   1.221  14.708  0.8444 -0.1370  1.4093
13583TIP3    H262165   0.604   1.074  14.672 -1.1377 -0.0074  0.6253
13584TIP3   OH262166   0.639   6.690  14.247  0.1437 -0.3899 -0.3208
13584TIP3    H162167   0.691   6.630  14.193  0.9614 -0.2448  0.2843
13584TIP3    H262168   0.672   6.676  14.336  0.4672  1.0754 -0.1901
13585TIP3   OH262169   0.899   0.679   5.075  0.3805  0.4342  0.7174
13585TIP3    H162170   0.814   0.698   5.113  0.3556 -1.2440  1.5770
13585TIP3    H262171   0.931   0.602   5.122  1.8002  0.2364 -0.4660
13586TIP3   OH262172   1.489   4.195  16.858  0.3323 -0.4306 -0.1001
13586TIP3    H162173   1.498   4.100  16.868  2.9112 -0.1399  1.6012
13586TIP3    H262174   1.395   4.211  16.854 -0.1694 -3.0400 -0.2937
13587TIP3   OH262175   5.194   2.943   5.226  0.3328  0.0991 -0.1378
13587TIP3    H162176   5.182   2.932   5.132 -2.9576 -1.3751  0.3281
13587TIP3    H262177   5.256   2.874   5.250  0.2944 -0.2758 -1.0598
13588TIP3   OH262178   1.965   5.123   2.894 -0.3950  0.1381  0.4738
13588TIP3    H162179   2.028   5.134   2.823 -0.5897  0.7597  0.3890
13588TIP3    H262180   1.997   5.046   2.943 -0.2382 -0.2707 -0.2532
13589TIP3   OH262181   5.030   0.476   5.141 -0.0517 -0.2673 -0.2049
13589TIP3    H162182   4.962   0.414   5.112  0.3598 -0.6989 -0.2634
13589TIP3    H262183   5.071   0.433   5.215  1.5985 -1.0231 -1.4907
13590TIP3   OH262184   3.491   6.039   3.495  0.0406 -0.4273 -1.0098
13590TIP3    H162185   3.418   6.072   3.442 -0.3625 -0.3821 -0.4296
13590TIP3    H262186   3.567   6.086   3.461 -0.4377  0.7113 -0.5678
13591TIP3   OH262187   1.360   4.149   2.783 -0.3670 -0.1012  0.6730
13591TIP3    H162188   1.450   4.181   2.773 -0.0583 -0.8039  1.1447
13591TIP3    H262189   1.370   4.054   2.796 -1.3504 -0.7405 -2.4741
13592TIP3   OH262190   1.885   5.670  11.631 -0.4263  0.4358  0.1563
13592TIP3    H162191   1.974   5.691  11.601 -0.9945  1.5941 -0.7799
13592TIP3    H262192   1.876   5.716  11.714 -0.1642  0.3300  0.2453
13593TIP3   OH262193   6.388   1.936   2.179  0.3290 -0.0809 -0.2463
13593TIP3    H162194   6.319   1.897   2.233  0.2392  2.3115  1.5599
13593TIP3    H262195   6.343   1.969   2.102 -0.3966  0.5026  0.4105
13594TIP3   OH262196   5.847   2.741  15.340 -0.7779 -0.5263 -0.6612
13594TIP3    H162197   5.803   2.821  15.310 -0.4965 -0.0627  0.1403
13594TIP3    H262198   5.915   2.725  15.275 -0.1195  0.5130 -0.2368
13595TIP3   OH262199   0.011   1.220  16.568  0.8597  0.4749 -0.3399
13595TIP3    H162200   0.035   1.262  16.486  0.3156  1.1501 -0.1616
13595TIP3    H262201  -0.051   1.280  16.609  0.5745 -0.1906  0.2339
13596TIP3   OH262202   6.137   3.616   1.291  0.0350  0.5287  0.1805
13596TIP3    H162203   6.139   3.671   1.370  0.7959 -0.3925  0.8324
13596TIP3    H262204   6.110   3.530   1.323  1.7251 -0.2187 -0.3081
13597TIP3   OH262205   2.945   3.176   1.534 -0.0203 -0.5852  0.0053
13597TIP3    H162206   2.881   3.107   1.515 -1.7582  1.7202 -3.6603
13597TIP3    H262207   3.011   3.166   1.465  0.7525  0.2443  0.5984
13598TIP3   OH262208   2.769   0.432  13.765 -0.2626 -0.0002 -0.3838
13598TIP3    H162209   2.748   0.508  13.820 -0.3731  0.4589 -1.0461
13598TIP3    H262210   2.817   0.469  13.691  0.5591 -0.7092 -0.2160
13599TIP3   OH262211   0.770   0.177   3.268  0.1558  0.4777 -0.2626
13599TIP3    H162212   0.816   0.224   3.338 -0.3572  0.4452  0.0953
13599TIP3    H262213   0.713   0.115   3.314 -1.0575  1.2676 -0.6858
13600TIP3   OH262214   3.652   4.595  12.188 -0.7590  0.4619  0.0452
13600TIP3    H162215   3.634   4.687  12.171 -3.4414 -0.2191 -1.3507
13600TIP3    H262216   3.682   4.560  12.104  0.9422  0.1520  0.7317
13601TIP3   OH262217   1.757   0.195   4.698 -0.8833  0.3625  0.3491
13601TIP3    H162218   1.772   0.289   4.702 -1.3562  0.4319  0.5311
13601TIP3    H262219   1.738   0.170   4.788  1.2418 -0.2524  0.6837
13602TIP3   OH262220   0.162   2.196  11.050  0.2019 -0.1059  0.8801
13602TIP3    H162221   0.127   2.109  11.070 -1.3016  0.5325  1.2394
13602TIP3    H262222   0.138   2.211  10.958 -0.3804  0.2715  1.0825
13603TIP3   OH262223   0.490   3.603   0.655 -0.4112 -0.3305  0.3048
13603TIP3    H162224   0.507   3.626   0.747  1.2930 -2.0123  0.4858
13603TIP3    H262225   0.506   3.683   0.607 -0.7391  0.4328  1.4175
13604TIP3   OH262226   1.877   3.400   0.436 -0.3265 -0.5368 -0.1230
13604TIP3    H162227   1.923   3.318   0.420  0.5928  0.1285 -0.9786
13604TIP3    H262228   1.866   3.403   0.531 -1.0048 -1.9719 -0.1353
13605TIP3   OH262229   3.288   2.909  10.991 -0.1274  0.0834  0.4167
13605TIP3    H162230   3.264   2.831  10.942  1.6714 -0.4382  0.3113
13605TIP3    H262231   3.378   2.894  11.019 -0.3727  1.3067  2.0331
13606TIP3   OH262232   4.635   5.156  11.606  0.5148  0.0735  0.3146
13606TIP3    H162233   4.587   5.231  11.642 -0.0376 -1.1935  2.3781
13606TIP3    H262234   4.724   5.190  11.590  0.1361  1.2958  0.6826
13607TIP3   OH262235   5.364   5.847  13.495  0.2062 -0.7406 -0.6390
13607TIP3    H162236   5.387   5.876  13.407 -0.8427 -0.9904 -1.0079
13607TIP3    H262237   5.325   5.760  13.482  1.6400 -1.5588  0.2599
13608TIP3   OH262238   0.237   0.077   1.402 -0.4000  0.1593 -0.5361
13608TIP3    H162239   0.276   0.134   1.335  1.6213 -0.1140  0.3137
13608TIP3    H262240   0.143   0.079   1.384 -0.2624  2.6963 -1.3421
13609TIP3   OH262241   2.206   3.416  15.014  0.4955 -0.4205 -0.6261
13609TIP3    H162242   2.118   3.404  14.979 -0.0003  1.7317 -0.2804
13609TIP3    H262243   2.264   3.388  14.944 -0.4822 -0.1928 -1.5432
13610TIP3   OH262244   2.592   1.805  11.925  0.4161  0.1158  0.1783
13610TIP3    H162245   2.671   1.811  11.871  0.0376 -0.3270 -0.4302
13610TIP3    H262246   2.536   1.876  11.893  0.8798  0.9592  1.1588
13611TIP3   OH262247   3.578   3.997  14.771  0.5066  0.8637  0.0938
13611TIP3    H162248   3.579   3.934  14.843  0.0574  1.2902  0.4770
13611TIP3    H262249   3.567   4.082  14.813  1.6754  1.2708 -0.3828
13612TIP3   OH262250   5.117   2.491   1.065 -0.5273  0.5911  0.0850
13612TIP3    H162251   5.058   2.564   1.083 -1.4743 -0.0265 -0.4139
13612TIP3    H262252   5.155   2.468   1.149  0.7263  2.4373  0.0657
13613TIP3   OH262253   1.474   2.161   1.463  0.3779 -0.2642  0.5930
13613TIP3    H162254   1.540   2.104   1.503 -0.0743 -0.4215  1.1308
13613TIP3    H262255   1.502   2.250   1.485  1.0598 -0.2674 -0.2076
13614TIP3   OH262256   6.535   6.347   6.122  0.2330  0.1702  0.0589
13614TIP3    H162257   6.506   6.322   6.034  3.3359 -2.1305 -0.4687
13614TIP3    H262258   6.474   6.302   6.181  0.3269 -1.3949 -0.9708
13615TIP3   OH262259   1.465   5.129  14.022  0.0979  0.0750 -0.7706
13615TIP3    H162260   1.523   5.053  14.029  1.7537  1.2278 -1.2218
13615TIP3    H262261   1.390   5.108  14.077  1.9410 -0.6103  1.6586
13616TIP3   OH262262   1.852   6.614  12.417  0.4283  0.3989 -0.4466
13616TIP3    H162263   1.810   6.683  12.366 -0.1560 -0.7392 -1.5519
13616TIP3    H262264   1.788   6.543  12.419  0.7822  0.0892  1.1651
13617TIP3   OH262265   3.137   3.730  16.404  0.6437  0.1194 -0.2770
13617TIP3    H162266   3.063   3.751  16.460 -0.0838 -1.8546 -0.4256
13617TIP3    H262267   3.102   3.737  16.315  1.5115  2.1915 -0.5302
13618TIP3   OH262268   1.274   1.030  13.727 -0.6137 -0.0095 -0.6856
13618TIP3    H162269   1.246   1.119  13.707 -1.1182 -0.1415 -0.5894
13618TIP3    H262270   1.364   1.039  13.757 -0.1926  0.3232 -1.9664
13619TIP3   OH262271   4.843   6.116   6.294 -0.4401  0.3774  0.0792
13619TIP3    H162272   4.879   6.062   6.224 -1.9626 -0.1978 -0.3031
13619TIP3    H262273   4.767   6.159   6.254 -0.2925  1.4144  0.8887
13620TIP3   OH262274   0.781   3.220  10.655 -0.5230 -0.2575  0.4136
13620TIP3    H162275   0.845   3.180  10.597  1.0012 -0.2963  2.0429
13620TIP3    H262276   0.798   3.314  10.647 -1.6435 -0.1171 -0.6433
13621TIP3   OH262277   1.880   6.599   0.780  0.1136 -0.0166  0.1240
13621TIP3    H162278   1.816   6.670   0.774  0.1235 -0.0341 -0.1923
13621TIP3    H262279   1.858   6.554   0.862  0.1286  0.3694  0.3461
13622TIP3   OH262280   5.159   0.578  14.435  0.4301  0.2445 -0.0861
13622TIP3    H162281   5.231   0.593  14.495  2.4074 -1.5016 -1.8655
13622TIP3    H262282   5.155   0.656  14.380 -0.4630  1.2291  1.3112
13623TIP3   OH262283   4.462   4.432  16.001 -0.3144  0.0925 -0.2117
13623TIP3    H162284   4.431   4.380  16.075 -0.5988  3.5725  2.3703
13623TIP3    H262285   4.553   4.451  16.023 -0.3202  0.9572 -0.9067
13624TIP3   OH262286   5.694   4.680  14.688 -0.1645  0.2760  0.0981
13624TIP3    H162287   5.720   4.588  14.689 -1.0262  0.0167 -0.2287
13624TIP3    H262288   5.621   4.684  14.626 -0.1301  1.1821  0.0983
13625TIP3   OH262289   3.963   4.233   3.711  0.1070  0.1239 -0.2787
13625TIP3    H162290   3.873   4.201   3.703  0.4697 -1.4339  1.3981
13625TIP3    H262291   3.957   4.309   3.769 -0.5433  2.3369 -3.0387
13626TIP3   OH262292   2.788   6.174   2.260 -0.0345  0.1195 -0.6566
13626TIP3    H162293   2.784   6.104   2.194  1.8296  0.8742 -1.6444
13626TIP3    H262294   2.790   6.128   2.344 -0.7854 -0.9163 -1.1771
13627TIP3   OH262295   4.172   3.042  16.055  0.5893  0.3388 -0.3172
13627TIP3    H162296   4.134   3.096  15.986  1.5644  1.4259 -0.0311
13627TIP3    H262297   4.183   3.101  16.129  0.5530 -0.5573  0.4282
13628TIP3   OH262298   6.286   0.976  17.140 -0.8204  0.3472 -0.8613
13628TIP3    H162299   6.325   0.893  17.113  0.0437  0.8076 -1.0786
13628TIP3    H262300   6.314   1.038  17.073 -0.9515  0.9395 -0.3768
13629TIP3   OH262301   0.434   4.348  12.460  0.1628  0.0498 -0.2383
13629TIP3    H162302   0.437   4.438  12.492  0.3854  0.2467 -0.8017
13629TIP3    H262303   0.405   4.356  12.369  0.0789 -0.4567 -0.2607
13630TIP3   OH262304   1.961   4.706  16.366  0.4483  0.1575  0.7944
13630TIP3    H162305   1.940   4.677  16.455 -0.4155 -0.1596  0.5042
13630TIP3    H262306   1.888   4.764  16.343 -0.3175 -1.1973 -0.3613
13631TIP3   OH262307   4.333   4.523  14.744  0.1006  0.1553  0.3331
13631TIP3    H162308   4.259   4.465  14.729 -0.5917  0.7227  1.4489
13631TIP3    H262309   4.360   4.551  14.656  0.4170 -1.7656 -0.2165
13632TIP3   OH262310   0.818   6.522  16.665 -0.3296  0.4331 -0.4197
13632TIP3    H162311   0.885   6.545  16.601  0.4769 -1.6165 -0.3762
13632TIP3    H262312   0.833   6.430  16.684 -1.9754  0.4093  1.0454
13633TIP3   OH262313   3.171   5.419   3.169  0.8958  0.0207  0.2109
13633TIP3    H162314   3.190   5.418   3.263  2.7546  0.5736 -0.1150
13633TIP3    H262315   3.246   5.374   3.129 -0.1760 -0.7655 -0.9771
13634TIP3   OH262316   3.331   2.957   1.846  0.0135 -0.0578  0.3775
13634TIP3    H162317   3.315   2.888   1.782 -2.6588 -0.3098  1.1844
13634TIP3    H262318   3.280   3.031   1.815 -1.4880 -0.2395  2.2023
13635TIP3   OH262319   4.283   2.594  16.418 -0.3588  0.4732 -0.1083
13635TIP3    H162320   4.312   2.677  16.380 -0.8101 -0.2387 -2.1926
13635TIP3    H262321   4.285   2.532  16.344  0.6519 -1.5641  1.5181
13636TIP3   OH262322   2.648   5.187  14.918 -0.1051 -0.2712 -0.4202
13636TIP3    H162323   2.622   5.136  14.841 -0.9796  0.2403 -0.4738
13636TIP3    H262324   2.569   5.235  14.943  0.0713 -0.6626  0.9888
13637TIP3   OH262325   3.834   6.688  13.640 -0.2119  0.1287 -0.1217
13637TIP3    H162326   3.834   6.636  13.560 -1.1652 -1.0953  0.6282
13637TIP3    H262327   3.926   6.695  13.664  0.0141 -0.2434 -0.8625
13638TIP3   OH262328   4.951   4.406   5.866 -0.4960  0.4723  0.6621
13638TIP3    H162329   4.954   4.313   5.887 -0.0773  0.3893  0.2496
13638TIP3    H262330   4.912   4.410   5.779  4.6669  0.1831 -2.0106
13639TIP3   OH262331   3.379   5.289   3.077  0.0387  0.2159  0.2611
13639TIP3    H162332   3.371   5.273   2.983 -0.7146  0.4917  0.2733
13639TIP3    H262333   3.467   5.324   3.088  0.2878 -0.2304 -0.2806
13640TIP3   OH262334   5.832   6.543  15.751  0.2923  0.3952  0.0642
13640TIP3    H162335   5.841   6.451  15.775  0.8225  0.1734 -0.9491
13640TIP3    H262336   5.768   6.544  15.680  0.3137  0.8073  0.0459
13641TIP3   OH262337   5.403   2.138  15.690 -0.5912 -0.2943  0.3581
13641TIP3    H162338   5.350   2.070  15.733 -0.3495 -1.7500 -1.4947
13641TIP3    H262339   5.341   2.185  15.634 -0.7122  0.9120  1.4669
13642TIP3   OH262340   6.622   2.408  12.578  0.1319 -0.3664 -0.3416
13642TIP3    H162341   6.527   2.410  12.566 -0.2544 -1.7469  1.9206
13642TIP3    H262342   6.655   2.356  12.505 -0.7782  0.3263 -1.2793
13643TIP3   OH262343   0.273   3.140   3.625  0.5120 -0.3621  0.2511
13643TIP3    H162344   0.326   3.062   3.610  1.1220 -0.3704  2.1374
13643TIP3    H262345   0.187   3.106   3.649  1.1943 -0.5850  2.6400
13644TIP3   OH262346   6.270   2.001   1.946 -0.0526  0.0989 -0.6771
13644TIP3    H162347   6.307   1.927   1.899 -0.2748 -0.6219  0.2507
13644TIP3    H262348   6.184   1.970   1.975  0.4627  0.1459  1.0372
13645TIP3   OH262349   0.197   3.787   4.457  0.0765 -0.2377  0.8284
13645TIP3    H162350   0.258   3.778   4.384 -1.2023  2.2413 -0.6661
13645TIP3    H262351   0.218   3.873   4.495 -1.8881  0.3212  0.7741
13646TIP3   OH262352   2.456   2.223  16.963 -0.6589 -0.8502  0.0088
13646TIP3    H162353   2.438   2.257  16.876  0.7885 -0.8855 -0.3365
13646TIP3    H262354   2.389   2.262  17.019  0.6327  2.3364 -0.4261
13647TIP3   OH262355   0.173   4.736  11.216  0.3099 -0.6997 -0.2687
13647TIP3    H162356   0.228   4.718  11.293 -1.6530  0.8973  1.6102
13647TIP3    H262357   0.103   4.671  11.221 -1.1175  0.8270  0.7164
13648TIP3   OH262358   4.168   6.445   5.476  0.2363 -0.2818  0.2396
13648TIP3    H162359   4.164   6.500   5.554 -0.2214  0.3587 -0.2208
13648TIP3    H262360   4.244   6.388   5.491 -0.5288 -0.9790  1.6514
13649TIP3   OH262361   6.215   3.037  16.737  0.0786 -0.1137 -0.3782
13649TIP3    H162362   6.209   3.070  16.647  0.2734 -1.8615 -1.0933
13649TIP3    H262363   6.303   2.999  16.742  0.3807  0.7068  0.8449
13650TIP3   OH262364   2.314   0.456  15.471  0.1428 -0.2794  0.0003
13650TIP3    H162365   2.324   0.547  15.499  2.3733 -0.2556 -0.7226
13650TIP3    H262366   2.222   0.449  15.447 -0.1864  1.6606  0.5014
13651TIP3   OH262367   0.590   5.874   0.882 -0.7940 -0.3234 -0.1516
13651TIP3    H162368   0.520   5.877   0.947  0.9418  2.3775  1.8466
13651TIP3    H262369   0.583   5.957   0.835  0.9217 -0.0497  0.0123
13652TIP3   OH262370   5.138   5.547   1.056  0.1129 -0.6178  0.2471
13652TIP3    H162371   5.091   5.556   0.973  1.3926 -1.1081 -0.5574
13652TIP3    H262372   5.124   5.631   1.100 -0.2977 -0.2252 -0.6073
13653TIP3   OH262373   3.713   1.391  13.072 -0.5839  0.2586 -0.8044
13653TIP3    H162374   3.669   1.457  13.018  1.2137  0.4371 -2.1345
13653TIP3    H262375   3.803   1.422  13.079  0.0197 -1.4752 -0.4901
13654TIP3   OH262376   0.141   1.046   1.353 -0.8363  0.2298  0.3136
13654TIP3    H162377   0.092   0.974   1.313 -0.8479  0.8952 -0.8984
13654TIP3    H262378   0.095   1.125   1.326 -0.5603  0.7323  1.2628
13655TIP3   OH262379   2.389   3.515  10.907  0.0366  0.1478  0.0380
13655TIP3    H162380   2.417   3.434  10.863 -1.1912 -1.4860  2.0750
13655TIP3    H262381   2.470   3.562  10.924  0.9844 -1.5231  0.3626
13656TIP3   OH262382   0.356   0.490  13.547 -0.4395 -0.3391  0.0641
13656TIP3    H162383   0.338   0.487  13.453 -1.6349 -0.1639  0.2817
13656TIP3    H262384   0.302   0.561  13.580  0.5238  0.0849  0.7841
13657TIP3   OH262385   2.800   5.594   0.389 -0.1639 -0.0297  0.1876
13657TIP3    H162386   2.722   5.586   0.334  1.8032 -0.9730 -2.6871
13657TIP3    H262387   2.843   5.673   0.357  0.3853  0.1322  1.3121
13658TIP3   OH262388   4.627   2.843  11.406  0.1581  0.1844 -0.0880
13658TIP3    H162389   4.659   2.788  11.478 -1.7999 -0.1756  0.5735
13658TIP3    H262390   4.598   2.780  11.340 -1.4889  0.3894  0.3996
13659TIP3   OH262391   0.689   4.005  16.704 -0.4559 -0.5942  0.4935
13659TIP3    H162392   0.598   3.989  16.682 -0.7490 -0.7982  1.7385
13659TIP3    H262393   0.722   3.919  16.733 -0.0825 -0.3805  0.7224
13660TIP3   OH262394   3.589   1.126   0.044  0.1299  0.3149  0.2288
13660TIP3    H162395   3.591   1.167   0.130  1.6340  1.8339 -0.4634
13660TIP3    H262396   3.668   1.159  -0.000 -0.9470  0.1348 -1.9694
13661TIP3   OH262397   3.294   2.187  16.597  0.0250  0.2307 -0.1679
13661TIP3    H162398   3.339   2.235  16.528  1.8532 -0.6152  0.3733
13661TIP3    H262399   3.343   2.207  16.676 -0.0526 -1.3763  0.3184
13662TIP3   OH262400   4.494   5.490   4.369 -0.1731 -0.4022  0.3152
13662TIP3    H162401   4.550   5.540   4.309 -1.6456  0.1465 -0.6430
13662TIP3    H262402   4.548   5.477   4.447  1.0357  0.7171 -0.3042
13663TIP3   OH262403   4.513   5.482  13.523  0.3041  0.0977 -0.8048
13663TIP3    H162404   4.538   5.572  13.545  1.0296 -0.0940 -0.8300
13663TIP3    H262405   4.559   5.428  13.587 -0.4437 -0.2414 -0.5376
13664TIP3   OH262406   6.483   1.373  11.494 -0.2774 -0.3987  0.4454
13664TIP3    H162407   6.391   1.396  11.509  0.2502  1.7593  0.6418
13664TIP3    H262408   6.512   1.432  11.425  0.7580 -1.6600 -0.2501
13665TIP3   OH262409   2.500   4.436  12.816  0.2418 -0.1024  0.3646
13665TIP3    H162410   2.567   4.398  12.759  0.1341  0.1359  0.0741
13665TIP3    H262411   2.487   4.525  12.782  0.4618  0.1797  1.0087
13666TIP3   OH262412   6.624   4.500  15.651 -0.1165  0.0106  0.4330
13666TIP3    H162413   6.648   4.429  15.711  2.0165 -0.4017 -0.8077
13666TIP3    H262414   6.607   4.456  15.568 -0.2285  0.8200  0.0232
13667TIP3   OH262415   2.810   6.166   0.740 -0.2268  0.2718 -0.5921
13667TIP3    H162416   2.763   6.249   0.745  0.7396  0.8134 -0.3969
13667TIP3    H262417   2.750   6.103   0.781 -0.6330  1.0165 -0.0042
13668TIP3   OH262418   6.701   0.380  15.300 -0.7900 -0.1817  0.6192
13668TIP3    H162419   6.643   0.366  15.375  0.0512  1.6884  1.6921
13668TIP3    H262420   6.688   0.473  15.277 -0.6948 -0.5912 -1.2978
13669TIP3   OH262421   5.163   4.880   3.399  0.5634  0.3486  0.2597
13669TIP3    H162422   5.243   4.889   3.450  0.7091  1.1779 -0.0974
13669TIP3    H262423   5.103   4.832   3.456  0.7954  1.0693  1.1214
13670TIP3   OH262424   6.341   0.656   0.031 -0.1807  0.1436 -0.5195
13670TIP3    H162425   6.356   0.732   0.088  1.7694 -0.9219  0.4734
13670TIP3    H262426   6.268   0.610   0.072 -2.6724  2.3229 -2.1375
13671TIP3   OH262427   2.851   5.716   4.975 -0.0439  0.2385 -0.3263
13671TIP3    H162428   2.756   5.724   4.976 -0.1733 -1.2313 -0.0922
13671TIP3    H262429   2.882   5.790   5.028 -1.0579  0.5933 -0.2160
13672TIP3   OH262430   3.359   4.208  13.723  0.6776  0.2426  0.1203
13672TIP3    H162431   3.274   4.194  13.765  0.5454 -0.0041 -0.2180
13672TIP3    H262432   3.416   4.241  13.792  0.3396  0.2840  0.3788
13673TIP3   OH262433   4.035   0.413   3.259 -0.1349 -0.1997 -0.3860
13673TIP3    H162434   3.946   0.413   3.223 -0.4759  0.0991  0.4481
13673TIP3    H262435   4.077   0.489   3.218 -0.4388 -0.0151 -0.3569
13674TIP3   OH262436   3.081   4.515  12.949  0.6357  0.0525 -0.4187
13674TIP3    H162437   3.068   4.439  13.005 -0.6174  0.9991  0.6356
13674TIP3    H262438   3.173   4.538  12.961  0.4994 -0.0408  0.8939
13675TIP3   OH262439   0.666   0.012  13.244  0.1581 -0.1900 -0.2613
13675TIP3    H162440   0.632  -0.077  13.254  0.9517 -0.6832 -1.7013
13675TIP3    H262441   0.589   0.068  13.238 -0.3769 -1.0236 -1.2945
13676TIP3   OH262442   5.332   3.116  12.448 -0.2964 -0.2920  0.0380
13676TIP3    H162443   5.262   3.178  12.431  0.6524  0.9056  0.2986
13676TIP3    H262444   5.408   3.171  12.468  1.0963 -1.5005 -1.6393
13677TIP3   OH262445   4.655   4.294  13.102  0.1913  0.5510  0.5781
13677TIP3    H162446   4.660   4.354  13.176 -2.1261  0.9812  0.4844
13677TIP3    H262447   4.563   4.265  13.101  0.7060 -1.2627 -0.7315
13678TIP3   OH262448   6.160   5.166   3.422 -0.0289  0.0211 -1.0724
13678TIP3    H162449   6.192   5.231   3.360  0.2599  1.7152  0.7433
13678TIP3    H262450   6.229   5.099   3.425  2.3646  2.3744  0.9431
13679TIP3   OH262451   4.409   1.273  16.019 -0.4927 -0.1583  0.5574
13679TIP3    H162452   4.388   1.361  15.986 -1.7721 -0.9930 -0.9843
13679TIP3    H262453   4.505   1.273  16.028 -0.4236  1.2111  0.0541
13680TIP3   OH262454   0.790   5.058  14.486 -0.1133 -0.4932 -0.0163
13680TIP3    H162455   0.759   4.982  14.438  0.3572 -0.7869  0.1400
13680TIP3    H262456   0.714   5.116  14.491 -0.4900 -0.9759 -0.0831
13681TIP3   OH262457   2.996   3.851  15.612 -0.0803 -0.4911  0.2357
13681TIP3    H162458   3.084   3.874  15.641  0.7576 -1.2104 -1.6019
13681TIP3    H262459   2.993   3.875  15.520 -2.0890  0.2099  0.4218
13682TIP3   OH262460   5.551   2.120   4.297 -0.5499 -0.1832 -0.2235
13682TIP3    H162461   5.471   2.172   4.301 -0.5069 -0.1753  3.2590
13682TIP3    H262462   5.521   2.030   4.283 -0.7806  0.2739 -3.3989
13683TIP3   OH262463   1.571   2.653  15.434 -0.2784  0.2981 -0.5358
13683TIP3    H162464   1.603   2.738  15.464  1.2226 -0.1873 -0.6366
13683TIP3    H262465   1.482   2.669  15.403 -1.3920  1.1637  2.6894
13684TIP3   OH262466   4.105   5.943  11.323  0.1306 -0.0782 -0.1160
13684TIP3    H162467   4.193   5.908  11.339 -0.3638 -2.6413 -2.3701
13684TIP3    H262468   4.120   6.034  11.298  2.1789 -0.5074 -0.6445
13685TIP3   OH262469   1.590   1.476   4.795 -0.0163 -0.0838 -0.0169
13685TIP3    H162470   1.638   1.442   4.871  0.5325 -1.6149 -1.0060
13685TIP3    H262471   1.527   1.538   4.832  0.0068 -1.0519  1.7210
13686TIP3   OH262472   0.098   0.521  11.794  0.2993 -0.3186  0.2542
13686TIP3    H162473   0.180   0.477  11.815  0.6331 -0.7417 -1.7534
13686TIP3    H262474   0.109   0.609  11.830  2.3876  0.1915 -1.3905
13687TIP3   OH262475   5.366   4.001   1.194  0.7296  0.5558 -1.1757
13687TIP3    H162476   5.365   4.097   1.195 -0.0918  0.5512  0.3384
13687TIP3    H262477   5.299   3.975   1.257  1.6772 -1.0213 -0.7707
13688TIP3   OH262478   2.341   2.451   4.428  0.4196  0.4240 -0.0673
13688TIP3    H162479   2.262   2.403   4.453 -0.4460  2.1763  0.7837
13688TIP3    H262480   2.391   2.458   4.509 -0.1338  2.0525  0.1881
13689TIP3   OH262481   5.307   1.658  11.952  0.5153  0.1550 -0.0061
13689TIP3    H162482   5.234   1.680  12.010 -0.2012 -0.6296 -0.5717
13689TIP3    H262483   5.293   1.565  11.931  1.9471 -0.1321  0.2424
13690TIP3   OH262484   4.287   6.701   6.206 -0.1610 -0.2947 -0.1900
13690TIP3    H162485   4.257   6.744   6.127  2.2901  2.3062  0.1052
13690TIP3    H262486   4.362   6.648   6.178 -1.5610 -2.3979 -0.1258
13691TIP3   OH262487   3.426   2.064  13.458  0.2373  0.1268  0.0451
13691TIP3    H162488   3.369   2.141  13.448 -0.8086 -0.7211 -0.7239
13691TIP3    H262489   3.442   2.034  13.369  2.6949  0.8727  0.1696
13692TIP3   OH262490   6.250   2.578   0.421 -0.5667  0.2388  0.3431
13692TIP3    H162491   6.239   2.606   0.330 -0.8422 -2.3770 -0.5099
13692TIP3    H262492   6.342   2.553   0.428 -0.4265  0.8823  0.9597
13693TIP3   OH262493   2.914   5.065   0.372  0.1983  0.5627  0.2879
13693TIP3    H162494   2.821   5.049   0.356  0.2989  0.5475 -0.3228
13693TIP3    H262495   2.929   5.154   0.341  0.4165  0.5057  0.2269
13694TIP3   OH262496   5.964   0.646   5.154 -0.0441 -0.0627  0.0474
13694TIP3    H162497   5.916   0.610   5.079  0.5491  0.0649 -0.4040
13694TIP3    H262498   5.955   0.740   5.145  0.0551 -0.0459  0.1234
13695TIP3   OH262499   1.462   2.075   4.443  0.0546 -0.1565 -0.7236
13695TIP3    H162500   1.443   2.126   4.364  0.0472  0.4063 -0.3684
13695TIP3    H262501   1.389   2.013   4.449  0.2694 -0.4832 -1.3797
13696TIP3   OH262502   3.549   3.173   4.394 -0.2074  0.2078 -0.7007
13696TIP3    H162503   3.623   3.130   4.351 -0.1687 -0.9835  0.4947
13696TIP3    H262504   3.475   3.159   4.334  0.3439  0.6766 -1.5049
13697TIP3   OH262505   3.533   3.365   3.453 -0.2960  0.3956  0.0050
13697TIP3    H162506   3.492   3.354   3.539 -0.1068  1.7314  0.2877
13697TIP3    H262507   3.627   3.372   3.472 -0.1236 -0.6410 -0.4440
13698TIP3   OH262508   5.098   2.248   3.784 -0.2907 -0.0146 -0.7597
13698TIP3    H162509   5.067   2.260   3.873 -2.9741 -1.8036 -1.3284
13698TIP3    H262510   5.163   2.317   3.771  1.4156 -0.6713  3.0501
13699TIP3   OH262511   1.734   3.594  11.190  0.1933 -0.0274 -0.5966
13699TIP3    H162512   1.685   3.651  11.131 -0.6955 -1.1663 -1.0061
13699TIP3    H262513   1.697   3.507  11.175  1.3991 -0.6922  0.1187
13700TIP3   OH262514   4.395   4.778   0.518 -0.0833  0.3731 -0.0151
13700TIP3    H162515   4.385   4.798   0.425 -0.0254  3.2424  0.5013
13700TIP3    H262516   4.490   4.780   0.532 -0.0484 -0.8035 -0.0048
13701TIP3   OH262517   4.718   5.748  12.520  0.3085  0.0440 -0.0124
13701TIP3    H162518   4.727   5.685  12.591 -0.4221  0.2081  0.2262
13701TIP3    H262519   4.632   5.731  12.483 -0.6125  1.9353  1.0766
13702TIP3   OH262520   4.788   6.594  12.900 -0.4053  0.1387  0.0961
13702TIP3    H162521   4.722   6.648  12.943 -0.8063  0.5433 -1.0041
13702TIP3    H262522   4.848   6.569  12.970  0.0201  2.3199  0.5867
13703TIP3   OH262523   3.687   1.645   2.723  0.6320 -0.3122  0.3547
13703TIP3    H162524   3.740   1.701   2.780  1.6631 -0.9529  0.0450
13703TIP3    H262525   3.688   1.559   2.766  0.1615 -0.4297  0.1425
13704TIP3   OH262526   3.553   5.899  15.295  0.5170 -0.6156  0.4049
13704TIP3    H162527   3.535   5.862  15.209 -1.9416  0.8298  0.2061
13704TIP3    H262528   3.475   5.880  15.346  0.7033  1.0778  1.4014
13705TIP3   OH262529   5.717   1.913   0.525  0.1025  0.2428  0.1255
13705TIP3    H162530   5.727   2.003   0.494  0.8148  0.0444 -0.2364
13705TIP3    H262531   5.632   1.913   0.571  0.4797  1.3024  0.8714
13706TIP3   OH262532   0.073   3.753   5.017 -0.7072 -0.6072 -0.3892
13706TIP3    H162533   0.146   3.781   5.072 -1.6431  0.5905  0.2811
13706TIP3    H262534   0.099   3.777   4.928  0.6015 -2.1064 -0.4617
13707TIP3   OH262535   6.452   1.110   0.457  0.4398 -0.0069  0.5663
13707TIP3    H162536   6.399   1.107   0.377 -1.3856 -0.5675  1.7384
13707TIP3    H262537   6.389   1.123   0.528  1.8502 -0.8907  2.0721
13708TIP3   OH262538   4.212   4.451  16.561 -0.6567 -0.0482 -0.2808
13708TIP3    H162539   4.288   4.419  16.512  0.1499  0.2025  0.7803
13708TIP3    H262540   4.211   4.545  16.544 -0.0068  0.1382  0.6599
13709TIP3   OH262541   2.308   3.279  11.364  0.1337  0.5946 -0.2787
13709TIP3    H162542   2.258   3.312  11.439  0.2293  1.5170 -0.6219
13709TIP3    H262543   2.248   3.283  11.290  0.8038  2.0869 -0.7806
13710TIP3   OH262544   3.550   3.341  10.737  0.2817  0.5995  0.3230
13710TIP3    H162545   3.525   3.308  10.651 -0.1550  0.9098  0.3318
13710TIP3    H262546   3.646   3.341  10.736  0.2750  0.3102 -0.0500
13711TIP3   OH262547   3.104   6.690  17.055 -0.3367  0.4939  0.6944
13711TIP3    H162548   3.191   6.672  17.020 -0.2810 -2.8255  2.1262
13711TIP3    H262549   3.107   6.657  17.145 -2.7261  1.3949  1.1782
13712TIP3   OH262550   0.013   3.163   3.819 -0.5285  0.0278  0.2718
13712TIP3    H162551   0.002   3.249   3.859 -1.3416 -0.8254  2.0525
13712TIP3    H262552  -0.076   3.137   3.794 -0.2335 -0.1234 -0.6287
13713TIP3   OH262553   4.825   5.557  14.781  0.2115  0.0278 -0.0961
13713TIP3    H162554   4.893   5.598  14.835  0.1522  0.4721 -0.3550
13713TIP3    H262555   4.806   5.621  14.713 -1.1305  0.3136  0.5095
13714TIP3   OH262556   0.746   4.872  13.408  0.7961 -0.0634  0.1067
13714TIP3    H162557   0.832   4.829  13.412  1.1434  0.4534 -1.2067
13714TIP3    H262558   0.732   4.906  13.496  2.8803  1.5791 -0.0916
13715TIP3   OH262559   5.212   4.316  14.200 -0.6215 -0.6125 -0.0568
13715TIP3    H162560   5.191   4.390  14.143 -0.6525 -0.6039 -0.0343
13715TIP3    H262561   5.134   4.304  14.254 -0.0923  0.2501  0.9359
13716TIP3   OH262562   3.978   2.589   2.718 -0.2758 -0.1681 -0.0829
13716TIP3    H162563   3.982   2.630   2.632 -2.0035 -2.0878 -1.1584
13716TIP3    H262564   3.930   2.652   2.772 -0.5012  0.4175 -0.9415
13717TIP3   OH262565   5.028   3.194   3.042  0.1524  0.6817  0.0266
13717TIP3    H162566   5.024   3.201   3.137 -1.0571  0.2674  0.0275
13717TIP3    H262567   5.089   3.262   3.015  1.1899  0.2362  1.1531
13718TIP3   OH262568   5.574   2.294  15.824 -0.3509 -0.4186 -0.3762
13718TIP3    H162569   5.597   2.244  15.902  0.1950 -0.0486 -0.2956
13718TIP3    H262570   5.535   2.229  15.765  0.7636 -1.0484 -0.4511
13719TIP3   OH262571   4.220   2.164  11.700 -0.2356  0.4792 -0.8377
13719TIP3    H162572   4.164   2.227  11.745 -1.1533 -1.0629  0.2830
13719TIP3    H262573   4.185   2.160  11.611 -0.3539  1.3012 -0.8407
13720TIP3   OH262574   4.962   4.958   0.649 -0.5604  0.0398 -0.0590
13720TIP3    H162575   5.012   4.959   0.731 -0.8084 -2.6502  0.2231
13720TIP3    H262576   5.022   4.992   0.583  0.5003 -0.0546  0.8385
13721TIP3   OH262577   1.975   1.797   4.597 -0.9792  0.1423 -0.2663
13721TIP3    H162578   2.049   1.790   4.656 -1.5833  0.4933  0.5541
13721TIP3    H262579   1.941   1.708   4.589  0.8467 -0.4558 -2.4422
13722TIP3   OH262580   4.151   5.440   0.397  0.5716  0.0106 -0.2190
13722TIP3    H162581   4.152   5.505   0.467  0.0378  0.6187 -0.7548
13722TIP3    H262582   4.217   5.376   0.422  0.3124  0.1636  0.8895
13723TIP3   OH262583   5.167   2.718   4.377  0.3564 -0.0884 -0.2964
13723TIP3    H162584   5.198   2.665   4.451 -2.5371 -1.3773  0.1389
13723TIP3    H262585   5.163   2.656   4.304  0.0892  0.3709 -0.6719
13724TIP3   OH262586   5.839   3.898  14.704 -0.5504  0.3527  0.2946
13724TIP3    H162587   5.783   3.894  14.782 -1.9120  2.0477 -0.5535
13724TIP3    H262588   5.887   3.815  14.706 -1.6011 -0.2835  2.1447
13725TIP3   OH262589   5.316   4.263   0.937 -0.1825 -0.1194  0.5650
13725TIP3    H162590   5.248   4.330   0.947 -1.4854 -1.4739  1.1414
13725TIP3    H262591   5.398   4.312   0.940 -1.0680  1.3794  1.5834
13726TIP3   OH262592   0.806   5.502  13.669  0.3078 -0.3054  0.4837
13726TIP3    H162593   0.762   5.500  13.583  0.1270 -1.1810  0.5799
13726TIP3    H262594   0.833   5.411  13.683  0.8579 -0.0510  1.0946
13727TIP3   OH262595   6.306   2.409  16.406  0.4624 -0.1468  0.5633
13727TIP3    H162596   6.307   2.347  16.333  1.1202 -0.7919  1.1192
13727TIP3    H262597   6.355   2.485  16.374 -0.3887  0.1397 -0.1348
13728TIP3   OH262598   5.775   0.775   5.362  0.1053 -0.5633  0.4368
13728TIP3    H162599   5.857   0.786   5.314 -0.1962 -0.7614 -0.1460
13728TIP3    H262600   5.708   0.772   5.293 -0.2062 -2.3205  0.7677
13729TIP3   OH262601   5.153   4.738   5.343  0.0258 -0.3601 -0.1120
13729TIP3    H162602   5.060   4.716   5.337 -0.4947  1.9511 -1.8868
13729TIP3    H262603   5.197   4.664   5.300 -1.2305 -0.3241 -1.5551
13730TIP3   OH262604   5.722   0.039  13.404 -0.0540 -0.2741  0.0034
13730TIP3    H162605   5.674  -0.041  13.384 -0.2698 -1.2192  3.6374
13730TIP3    H262606   5.672   0.109  13.361 -0.5703 -1.8916 -2.1894
13731TIP3   OH262607   6.770   6.574   5.636  0.1576  0.6263 -0.5436
13731TIP3    H162608   6.847   6.524   5.608  0.2077  0.5380 -0.2456
13731TIP3    H262609   6.708   6.564   5.564 -0.1178 -0.4801 -0.1745
13732TIP3   OH262610   4.281   5.810  15.720  0.0561  0.1740 -0.0899
13732TIP3    H162611   4.367   5.805  15.761 -0.7868 -0.6329  1.6924
13732TIP3    H262612   4.222   5.839  15.790 -1.3785 -0.7725 -0.8393
13733TIP3   OH262613   5.838   0.113   0.528  0.1119  0.2887  0.7611
13733TIP3    H162614   5.857   0.205   0.544 -1.3931  0.8175 -0.3355
13733TIP3    H262615   5.920   0.068   0.546  1.0385  1.9059  0.7173
13734TIP3   OH262616   1.197   0.823  14.762 -1.1363  0.0104 -0.4168
13734TIP3    H162617   1.222   0.731  14.755 -2.9634 -0.6045  0.2714
13734TIP3    H262618   1.271   0.865  14.804  0.0117 -1.0013 -1.3606
13735TIP3   OH262619   1.320   3.819   3.554 -0.4083 -0.8738  0.1484
13735TIP3    H162620   1.379   3.879   3.508 -1.7877 -0.3227 -0.9710
13735TIP3    H262621   1.370   3.790   3.631  0.8839  0.4335 -0.1622
13736TIP3   OH262622   4.483   5.002   2.541  0.2677  0.6454 -0.4399
13736TIP3    H162623   4.407   5.000   2.599  0.5948  1.3427  0.0265
13736TIP3    H262624   4.528   5.083   2.563  0.9495  0.4238 -0.9745
13737TIP3   OH262625   5.107   2.660  11.789 -0.5578 -0.0380  0.2985
13737TIP3    H162626   5.091   2.609  11.709  1.8787  0.2384 -0.4571
13737TIP3    H262627   5.123   2.749  11.757  0.8792 -0.0167  1.0055
13738TIP3   OH262628   0.840   0.583   3.193  0.4368 -0.1656 -0.3664
13738TIP3    H162629   0.766   0.536   3.154 -1.0816  1.1950  0.7714
13738TIP3    H262630   0.800   0.646   3.253  2.4355  1.7376 -0.9070
13739TIP3   OH262631   6.432   4.166  11.871 -0.2898 -0.7801 -1.3360
13739TIP3    H162632   6.337   4.164  11.864 -0.4543 -1.2755  0.5283
13739TIP3    H262633   6.454   4.259  11.878 -0.6494 -0.6868 -1.4284
13740TIP3   OH262634   1.647   3.104  17.081  0.2436  0.1565 -0.0670
13740TIP3    H162635   1.738   3.075  17.074  0.4379  0.3403  1.2557
13740TIP3    H262636   1.602   3.031  17.125  0.6242  1.5014  2.8149
13741TIP3   OH262637   2.592   4.599  16.630  0.1524 -0.6911  0.3735
13741TIP3    H162638   2.566   4.527  16.573  0.8142 -0.5968 -0.0517
13741TIP3    H262639   2.631   4.557  16.707  1.5249 -0.7917 -0.3441
13742TIP3   OH262640   5.934   1.320   2.725 -0.0552 -0.2599  0.1666
13742TIP3    H162641   5.999   1.366   2.778 -0.4650 -1.1299  1.4733
13742TIP3    H262642   5.860   1.382   2.719 -0.2903 -0.4014  1.2461
13743TIP3   OH262643   0.782   3.382   5.200 -0.0447 -0.2277  0.3562
13743TIP3    H162644   0.854   3.354   5.144  0.3481  1.5022 -0.0503
13743TIP3    H262645   0.718   3.311   5.194  1.1344 -1.2688 -0.1652
13744TIP3   OH262646   4.749   3.401   2.513  0.4534 -0.9315 -0.1928
13744TIP3    H162647   4.704   3.335   2.565 -0.3381 -0.5760 -0.4125
13744TIP3    H262648   4.771   3.356   2.431 -1.0508 -0.6521 -0.7880
13745TIP3   OH262649   2.591   0.581  10.608  0.3283  0.8996  0.2248
13745TIP3    H162650   2.594   0.641  10.683 -0.4341  0.3451  0.7160
13745TIP3    H262651   2.640   0.626  10.539  0.4398  1.7303  0.8287
13746TIP3   OH262652   5.572   6.405   3.318 -0.1184 -0.8099  0.1574
13746TIP3    H162653   5.485   6.414   3.357 -0.0364  0.2646  0.1219
13746TIP3    H262654   5.595   6.494   3.291  1.3010 -0.9552  0.8103
13747TIP3   OH262655   6.181   2.798   4.919  0.4327  0.6413 -1.2515
13747TIP3    H162656   6.218   2.794   4.831  2.1970  0.4574 -0.5446
13747TIP3    H262657   6.213   2.882   4.954 -0.7373  0.9884 -0.9732
13748TIP3   OH262658   6.303   4.152  17.125 -0.1240  0.4409  0.4826
13748TIP3    H162659   6.392   4.116  17.122  0.3551  1.6474 -1.0769
13748TIP3    H262660   6.256   4.106  17.056 -0.0721  1.3700 -0.1807
13749TIP3   OH262661   3.950   2.922  11.503 -0.9739 -0.6445 -0.2603
13749TIP3    H162662   3.965   2.924  11.598 -0.3239  0.3539 -0.3603
13749TIP3    H262663   4.036   2.903  11.465 -0.7951  0.8793 -0.6985
13750TIP3   OH262664   6.158   2.884  14.880 -0.0717  0.2896  0.6589
13750TIP3    H162665   6.113   2.931  14.810 -1.0292 -0.5402  0.7056
13750TIP3    H262666   6.168   2.949  14.950 -0.7307  0.6262  0.4470
13751TIP3   OH262667   1.878   5.920  15.031 -0.1743  0.0507  0.0695
13751TIP3    H162668   1.884   5.857  14.960  0.5759  1.5323 -1.2490
13751TIP3    H262669   1.952   5.900  15.087  1.6998  1.3635 -1.7808
13752TIP3   OH262670   2.210   1.301   5.275  0.1418  0.2234  0.0455
13752TIP3    H162671   2.129   1.266   5.311  0.3296 -0.2712 -0.0150
13752TIP3    H262672   2.275   1.231   5.286  0.0970 -0.1346 -1.6817
13753TIP3   OH262673   1.384   3.135   5.753 -0.3053 -0.1913  0.0215
13753TIP3    H162674   1.468   3.091   5.769 -1.0126 -1.6038  0.0067
13753TIP3    H262675   1.396   3.222   5.791  0.8549 -0.6728  0.8661
13754TIP3   OH262676   2.194   5.166   5.786  0.2178  0.2782  0.3565
13754TIP3    H162677   2.128   5.101   5.812 -0.5981  0.3512 -1.3540
13754TIP3    H262678   2.266   5.114   5.750  0.3541  0.2554  0.6633
13755TIP3   OH262679   3.254   0.314  12.373  0.2563 -0.3332  0.3357
13755TIP3    H162680   3.253   0.332  12.467 -0.2886 -2.2857  0.7497
13755TIP3    H262681   3.186   0.248  12.360  0.0788  0.1524 -1.4991
13756TIP3   OH262682   0.202   3.402   4.936  0.0851  0.7339 -0.3731
13756TIP3    H162683   0.297   3.408   4.924  0.2228  1.1262  0.8006
13756TIP3    H262684   0.190   3.338   5.007 -0.6354 -0.7573 -1.7710
13757TIP3   OH262685   4.570   2.355  12.887 -0.1692  0.0975 -0.3331
13757TIP3    H162686   4.527   2.273  12.910 -0.9248  0.0439 -1.7926
13757TIP3    H262687   4.581   2.401  12.971 -0.9741 -0.8946  0.3409
13758TIP3   OH262688   3.508   0.768   6.091 -0.2786 -0.4249  1.0187
13758TIP3    H162689   3.593   0.725   6.094 -0.6289 -1.4485 -1.2481
13758TIP3    H262690   3.519   0.838   6.027 -1.2012 -0.8036  0.4139
13759TIP3   OH262691   6.040   4.794  11.535  0.2871  0.0558 -0.4460
13759TIP3    H162692   6.050   4.866  11.472  0.5074  0.5772  0.1704
13759TIP3    H262693   6.038   4.838  11.621 -0.1328 -0.6329 -0.0993
13760TIP3   OH262694   2.186   1.142   4.552  0.1061 -0.6343 -0.0276
13760TIP3    H162695   2.218   1.184   4.632  0.0697 -0.9145  0.1364
13760TIP3    H262696   2.166   1.215   4.493  2.2780 -0.4624 -0.6209
13761TIP3   OH262697   6.080   2.767   3.754 -0.1090  0.1964  0.1838
13761TIP3    H162698   6.067   2.843   3.697  0.3636 -0.3090 -0.6218
13761TIP3    H262699   6.175   2.753   3.755 -0.2002 -0.4477  0.2312
13762TIP3   OH262700   6.093   1.945   4.403  0.3606  0.3458  0.1589
13762TIP3    H162701   6.019   1.998   4.373  1.3872  0.6931 -1.9338
13762TIP3    H262702   6.081   1.860   4.361  0.9098  0.2433  0.2002
13763TIP3   OH262703   4.684   3.726  16.480  0.3976  0.8369  0.3656
13763TIP3    H162704   4.725   3.658  16.534 -0.3348  1.0919  1.2818
13763TIP3    H262705   4.614   3.760  16.535 -1.4485  0.0144 -1.3678
13764TIP3   OH262706   2.570   4.944   4.354  0.3224 -0.5039 -0.1752
13764TIP3    H162707   2.492   4.991   4.326  0.2415 -0.1851  0.5597
13764TIP3    H262708   2.543   4.852   4.353 -0.6507 -0.2858  1.7806
13765TIP3   OH262709   3.642   4.769  11.150  0.5082  0.4706  0.3713
13765TIP3    H162710   3.686   4.853  11.137 -0.7604  1.2239  0.7461
13765TIP3    H262711   3.665   4.743  11.239 -1.6566  2.0687  1.4898
13766TIP3   OH262712   1.984   2.321   5.669 -0.3160  0.4897  0.3562
13766TIP3    H162713   1.969   2.411   5.639 -2.6592 -0.2803 -0.9670
13766TIP3    H262714   1.988   2.269   5.588 -0.9671 -0.8583  1.1612
13767TIP3   OH262715   6.323   4.273  12.790 -0.3881 -0.1939 -0.1437
13767TIP3    H162716   6.307   4.297  12.699 -1.2063  0.0810  0.0599
13767TIP3    H262717   6.393   4.332  12.819  0.0542 -0.4597 -0.6637
13768TIP3   OH262718   0.862   3.250   1.613 -0.0313  0.7178  0.3079
13768TIP3    H162719   0.839   3.164   1.578 -1.5177  0.2544  2.2703
13768TIP3    H262720   0.786   3.305   1.593  0.4824  1.3327 -0.0258
13769TIP3   OH262721   4.941   3.791   3.030 -0.3604 -0.0308 -0.0982
13769TIP3    H162722   4.997   3.820   3.102 -0.7530 -1.4810  0.8286
13769TIP3    H262723   5.001   3.753   2.967 -0.1511 -0.0196  0.0941
13770TIP3   OH262724   5.504   6.221  14.774  0.0448  0.7805  0.1898
13770TIP3    H162725   5.441   6.182  14.834 -0.4323  0.1384 -0.6956
13770TIP3    H262726   5.457   6.294  14.734  0.3582  1.2035  0.5939
13771TIP3   OH262727   2.484   0.476   3.494 -0.3110 -0.4300  0.8995
13771TIP3    H162728   2.430   0.554   3.500  0.9101  0.6248 -0.8324
13771TIP3    H262729   2.573   0.506   3.512  0.4232 -1.0071 -1.3430
13772TIP3   OH262730   1.596   1.115   3.767 -0.0305 -0.6101  0.4354
13772TIP3    H162731   1.565   1.140   3.854 -0.3554 -0.6511  0.3325
13772TIP3    H262732   1.689   1.093   3.780  0.3941  1.0956  0.4393
13773TIP3   OH262733   5.376   0.445   5.496 -0.3059 -0.4583 -0.6536
13773TIP3    H162734   5.451   0.391   5.522  0.5470  0.3383 -1.3897
13773TIP3    H262735   5.327   0.390   5.434  0.2465 -0.6074 -0.9653
13774TIP3   OH262736   5.849   5.888  16.315  0.3849 -1.1635 -0.1559
13774TIP3    H162737   5.931   5.869  16.361  1.1140  2.3686  0.2796
13774TIP3    H262738   5.864   5.855  16.226  1.3523 -2.5426  0.4684
13775TIP3   OH262739   1.676   1.614   1.802  0.3824  0.0246 -0.0653
13775TIP3    H162740   1.594   1.565   1.812  0.5861 -0.2490  0.2759
13775TIP3    H262741   1.666   1.660   1.718 -0.1096 -0.0242 -0.0372
13776TIP3   OH262742   4.096   1.159   3.863 -0.3675  0.4164  0.3913
13776TIP3    H162743   4.004   1.177   3.844 -0.3355  0.4623  0.2777
13776TIP3    H262744   4.103   1.169   3.958 -0.2962  1.2595  0.3051
13777TIP3   OH262745   6.515   0.143  13.809 -0.1606 -0.6170  0.1586
13777TIP3    H162746   6.454   0.209  13.777 -0.0326 -0.4578  0.2437
13777TIP3    H262747   6.601   0.171  13.776  0.0029 -0.3464  0.7910
13778TIP3   OH262748   5.882   1.006   2.777  0.4348 -0.0280  0.2241
13778TIP3    H162749   5.965   0.958   2.773 -0.2282 -1.1474 -0.6355
13778TIP3    H262750   5.893   1.067   2.851  1.6418 -0.8503  0.7541
13779TIP3   OH262751   0.079   5.124   0.336  0.1250  0.0315 -0.1356
13779TIP3    H162752   0.072   5.052   0.399 -0.4978 -0.6202 -0.9312
13779TIP3    H262753   0.025   5.193   0.373 -1.5252 -0.9144 -0.6939
13780TIP3   OH262754   0.322   2.189   3.652 -0.7747 -0.2335 -0.2271
13780TIP3    H162755   0.416   2.192   3.671 -1.1780 -1.8838  2.5530
13780TIP3    H262756   0.312   2.112   3.596 -0.6872 -1.7296  1.6952
13781TIP3   OH262757   3.279   0.682   2.152  1.0183 -0.1812 -0.2739
13781TIP3    H162758   3.299   0.770   2.183 -2.1587  1.3351 -2.0813
13781TIP3    H262759   3.295   0.685   2.058 -1.7916 -0.5423 -0.8615
13782TIP3   OH262760   4.616   0.698  10.835  0.0191 -0.0262  0.2321
13782TIP3    H162761   4.647   0.656  10.915 -0.1768 -2.4759 -0.8876
13782TIP3    H262762   4.695   0.730  10.791  0.4505 -1.4417 -0.0474
13783TIP3   OH262763   4.737   4.025  14.087  0.7364 -0.3176  0.0179
13783TIP3    H162764   4.807   4.048  14.026  0.6824  0.4617  0.2339
13783TIP3    H262765   4.766   4.059  14.172 -0.0658  0.3864  0.0295
13784TIP3   OH262766   2.253   3.231   1.708  0.3535  0.1179  0.0690
13784TIP3    H162767   2.313   3.171   1.753  1.2869  1.0987  0.1845
13784TIP3    H262768   2.275   3.317   1.744 -1.7342  0.4054  0.7466
13785TIP3   OH262769   0.919   2.206   5.341 -0.4065  0.1659 -0.1976
13785TIP3    H162770   0.972   2.186   5.418 -0.3137  0.8918 -0.0609
13785TIP3    H262771   0.911   2.123   5.294  4.3825  0.6888 -2.4801
13786TIP3   OH262772   2.334   2.175   4.611  0.3585 -0.2883  0.1648
13786TIP3    H162773   2.300   2.167   4.522  1.3944  0.4851 -0.3204
13786TIP3    H262774   2.376   2.261   4.613 -2.3020  1.1282  2.3242
13787TIP3   OH262775   4.688   3.649  10.912  0.6370  0.1878 -0.3311
13787TIP3    H162776   4.607   3.667  10.865 -0.3950 -1.0311  0.8945
13787TIP3    H262777   4.712   3.560  10.885  0.0792 -0.4958  1.2812
13788TIP3   OH262778   5.694   1.896   1.702 -0.0012  1.0178 -0.4714
13788TIP3    H162779   5.776   1.946   1.703  1.6796 -1.5860  1.2314
13788TIP3    H262780   5.636   1.945   1.760  0.6134  2.4178 -0.9888
13789TIP3   OH262781   3.345   4.173   5.270  0.4379 -0.5605 -0.1664
13789TIP3    H162782   3.376   4.236   5.335 -3.4496  3.0121 -1.2983
13789TIP3    H262783   3.384   4.202   5.188  0.0876 -0.7867 -0.4145
13790TIP3   OH262784   5.950   3.590  16.073 -0.1318  0.3299 -0.3042
13790TIP3    H162785   6.037   3.550  16.078 -0.8716 -1.3326 -0.1187
13790TIP3    H262786   5.904   3.539  16.006 -0.9829  1.1621 -0.3720
13791TIP3   OH262787   4.838   6.419   5.333  0.2880 -0.2076 -0.2373
13791TIP3    H162788   4.918   6.424   5.385 -0.6106 -1.0625  1.2882
13791TIP3    H262789   4.804   6.331   5.349  0.1194 -0.6442 -2.5543
13792TIP3   OH262790   2.412   5.790   0.453 -0.2944 -0.7495 -0.1053
13792TIP3    H162791   2.493   5.788   0.504 -0.8000 -0.0002  0.7582
13792TIP3    H262792   2.344   5.816   0.516 -1.1677 -1.1045 -0.8681
13793TIP3   OH262793   6.291   2.474  17.094  0.5690  0.1569  0.4183
13793TIP3    H162794   6.364   2.509  17.043  0.3830  2.2113  1.4609
13793TIP3    H262795   6.218   2.472  17.032  0.5755  1.7569  0.3192
13794TIP3   OH262796   4.977   1.563   0.067  0.0461 -0.0983 -0.3603
13794TIP3    H162797   5.029   1.507   0.126  1.4428  0.9480 -0.5454
13794TIP3    H262798   4.939   1.629   0.124  2.4145  1.6706 -0.6948
13795TIP3   OH262799   6.158   0.861   1.776 -0.7492 -0.4137 -0.3582
13795TIP3    H162800   6.064   0.880   1.780 -1.1229 -2.2702  1.1936
13795TIP3    H262801   6.199   0.933   1.824 -1.4570 -0.0713 -0.2484
13796TIP3   OH262802   2.116   2.678   0.743 -0.5116 -0.1183  0.2197
13796TIP3    H162803   2.187   2.717   0.794  0.3545  0.1629 -1.1333
13796TIP3    H262804   2.083   2.607   0.797 -1.7709  2.0626  2.5559
13797TIP3   OH262805   0.362   0.634  13.896  0.3232  0.8466  0.4190
13797TIP3    H162806   0.314   0.569  13.948 -0.1980  1.7639  1.1182
13797TIP3    H262807   0.364   0.712  13.952  2.6212  0.8611  0.4100
13798TIP3   OH262808   2.937   0.821   0.934 -0.5025  0.2199  0.2148
13798TIP3    H162809   2.991   0.770   0.994 -0.1138  1.1970  0.7082
13798TIP3    H262810   2.857   0.769   0.923 -0.9692  0.4254  2.2750
13799TIP3   OH262811   2.475   5.411  15.011 -0.4090  0.0220  0.3783
13799TIP3    H162812   2.400   5.464  14.986 -0.2347  0.3552  0.5593
13799TIP3    H262813   2.443   5.355  15.082 -0.1350  1.1052  1.3770
13800TIP3   OH262814   1.383   3.739  13.374 -0.2076 -0.3581  0.0801
13800TIP3    H162815   1.387   3.832  13.396 -0.0393 -0.2967 -0.1985
13800TIP3    H262816   1.456   3.700  13.422 -0.8607 -0.5151  0.9660
13801TIP3   OH262817   2.100   0.218  16.659  0.2034 -0.3532  0.1445
13801TIP3    H162818   2.129   0.132  16.689 -0.5519  0.0225  2.1111
13801TIP3    H262819   2.180   0.268  16.647  0.5723 -0.5040  1.7277
13802TIP3   OH262820   3.743   5.578  11.547 -0.0053  0.1217 -0.1829
13802TIP3    H162821   3.816   5.566  11.486  0.2146  1.0910 -0.1278
13802TIP3    H262822   3.781   5.626  11.620 -0.1428 -1.4671  0.9808
13803TIP3   OH262823   6.212   2.488   5.202 -0.2763  0.1338  0.1048
13803TIP3    H162824   6.156   2.535   5.264  1.5400  2.5438  0.0595
13803TIP3    H262825   6.175   2.508   5.116 -0.8083 -0.3992  0.2039
13804TIP3   OH262826   4.841   0.399  13.896 -0.2151 -0.7358  0.5701
13804TIP3    H162827   4.896   0.359  13.963  0.4604  0.2255  0.5946
13804TIP3    H262828   4.814   0.483  13.934 -0.4582 -0.5274 -0.0586
13805TIP3   OH262829   4.481   6.188  13.826  0.6386 -0.2581  0.4773
13805TIP3    H162830   4.468   6.093  13.828  1.5195 -0.3817  0.4807
13805TIP3    H262831   4.568   6.202  13.864  0.0549  0.6456  1.5535
13806TIP3   OH262832   2.168   5.974   1.869  0.1249  0.1640 -0.0579
13806TIP3    H162833   2.180   6.068   1.858 -1.8459  0.2449 -2.4584
13806TIP3    H262834   2.251   5.936   1.840  0.1672  1.1183 -1.2723
13807TIP3   OH262835   0.372   3.068  11.586 -0.0550  0.0502 -0.5959
13807TIP3    H162836   0.395   2.986  11.543  1.8696  0.4421 -0.3993
13807TIP3    H262837   0.389   3.135  11.521 -0.2274  0.4100 -0.2721
13808TIP3   OH262838   6.518   2.858   2.023  0.3013  0.8833 -0.1513
13808TIP3    H162839   6.493   2.845   1.931 -1.1466  1.1494  0.1885
13808TIP3    H262840   6.497   2.776   2.066  1.8164  0.4412 -0.2037
13809TIP3   OH262841   0.793   0.670   1.809 -0.3582  0.3511 -0.2791
13809TIP3    H162842   0.845   0.701   1.883 -0.3511 -2.1867  0.8545
13809TIP3    H262843   0.857   0.632   1.749 -0.6315 -0.2502 -0.1960
13810TIP3   OH262844   6.782   1.257   4.568 -0.3908 -0.0507 -0.2578
13810TIP3    H162845   6.730   1.179   4.546 -0.4411  0.3962 -1.8996
13810TIP3    H262846   6.717   1.326   4.583 -0.3227 -0.0841  0.2010
13811TIP3   OH262847   2.410   5.011  15.928  0.5967  0.4315 -0.1125
13811TIP3    H162848   2.373   4.923  15.937  0.6569  0.5288  1.3531
13811TIP3    H262849   2.480   5.015  15.994  1.2608  1.2473 -0.8354
13812TIP3   OH262850   4.676   0.937  16.652  0.2889  0.2336  0.1792
13812TIP3    H162851   4.635   0.871  16.596 -0.0425 -0.5330  1.3177
13812TIP3    H262852   4.646   1.020  16.615 -1.5385 -0.2876  0.4103
13813TIP3   OH262853   2.708   1.618   4.246  0.0758 -0.0771  0.1379
13813TIP3    H162854   2.703   1.656   4.334  1.5144 -1.4146  0.8472
13813TIP3    H262855   2.647   1.544   4.248 -0.7066  0.5471 -0.3564
13814TIP3   OH262856   3.238   4.634  15.562  0.2450  0.0834  0.2500
13814TIP3    H162857   3.190   4.596  15.488 -1.0447 -0.9935  1.5958
13814TIP3    H262858   3.303   4.567  15.585 -0.2611 -0.1798  0.9366
13815TIP3   OH262859   0.585   5.112   0.747 -0.0251 -0.1453  0.2810
13815TIP3    H162860   0.586   5.109   0.843  0.2843 -0.7879  0.2620
13815TIP3    H262861   0.658   5.057   0.720 -0.3269 -0.2579 -0.3340
13816TIP3   OH262862   4.493   2.321  16.503 -0.5585 -0.6382 -0.6874
13816TIP3    H162863   4.464   2.235  16.472 -0.1411 -0.8897 -0.3954
13816TIP3    H262864   4.488   2.377  16.425 -1.7033 -0.6959 -0.6591
13817TIP3   OH262865   6.552   3.980  14.929  0.3257  0.2233 -0.1522
13817TIP3    H162866   6.608   3.944  14.860  2.0680  0.7234  0.9263
13817TIP3    H262867   6.603   3.968  15.009 -1.2738  0.4496  0.9294
13818TIP3   OH262868   3.498   4.345   5.439 -0.5008 -0.5445 -0.1248
13818TIP3    H162869   3.514   4.275   5.502  1.4217  0.1963  0.2795
13818TIP3    H262870   3.564   4.412   5.460 -0.5554  0.2223 -2.1864
13819TIP3   OH262871   6.488   5.363   2.519  0.1123 -0.4615  0.4312
13819TIP3    H162872   6.555   5.381   2.453  0.2228 -0.0719  0.6414
13819TIP3    H262873   6.520   5.285   2.565  0.6697 -0.0032  0.8384
13820TIP3   OH262874   3.959   2.674  13.577 -0.1177  0.0248 -0.3300
13820TIP3    H162875   4.049   2.686  13.607  0.4923 -0.6773 -1.8222
13820TIP3    H262876   3.927   2.763  13.562  1.0728  0.2326 -1.8502
13821TIP3   OH262877   1.225   5.324   3.783  0.5354 -0.2953  0.0372
13821TIP3    H162878   1.305   5.279   3.757 -0.0483  0.1014 -2.7784
13821TIP3    H262879   1.254   5.412   3.810  1.1587 -0.6411  0.5269
13822TIP3   OH262880   1.268   1.114  12.177 -0.1881  1.1110  0.3631
13822TIP3    H162881   1.346   1.146  12.132 -0.9158  0.1491 -1.7092
13822TIP3    H262882   1.263   1.021  12.154 -1.5194  0.9749  1.0979
13823TIP3   OH262883   2.502   2.716   5.469  0.2428 -0.0720 -0.4537
13823TIP3    H162884   2.548   2.719   5.553  1.6309 -2.9066 -0.9773
13823TIP3    H262885   2.531   2.794   5.423  1.5472  0.1683  0.7117
13824TIP3   OH262886   6.362   3.657  14.090 -0.5420 -0.3840  0.8370
13824TIP3    H162887   6.451   3.676  14.061 -0.7576 -0.5712  0.0128
13824TIP3    H262888   6.356   3.561  14.086 -1.2715 -0.3078 -0.7034
13825TIP3   OH262889   0.769   0.123   5.061 -0.2921  0.1701  0.2563
13825TIP3    H162890   0.723   0.206   5.052 -1.6267 -0.3933  1.4617
13825TIP3    H262891   0.747   0.075   4.981 -0.2980  0.6074 -0.0048
13826TIP3   OH262892   5.091   6.146   0.953 -0.5569  0.5564  0.1107
13826TIP3    H162893   5.133   6.184   0.876  0.3266 -2.9931 -1.3838
13826TIP3    H262894   5.158   6.090   0.992 -2.6299 -2.2798 -0.0449
13827TIP3   OH262895   2.815   2.749  17.157 -0.3799 -0.1521  0.2747
13827TIP3    H162896   2.754   2.678  17.178 -0.3379 -0.0579  0.7369
13827TIP3    H262897   2.827   2.744  17.062 -0.1202 -0.9706  0.3486
13828TIP3   OH262898   3.835   0.794   3.595  0.2248  0.0254 -0.1260
13828TIP3    H162899   3.803   0.855   3.662 -1.9478 -0.7966 -0.3569
13828TIP3    H262900   3.762   0.782   3.535  1.2057 -1.4151 -1.1174
13829TIP3   OH262901   4.025   5.782  11.017 -0.0999 -0.6551  0.6700
13829TIP3    H162902   4.003   5.846  11.085 -1.4386 -0.7579  0.3569
13829TIP3    H262903   4.005   5.697  11.057 -1.8569 -0.6697 -0.1533
13830TIP3   OH262904   4.216   1.267   4.678 -0.7605 -0.2446  0.1933
13830TIP3    H162905   4.302   1.281   4.638 -0.5971  1.5472  1.0634
13830TIP3    H262906   4.158   1.328   4.632 -0.6090  1.7079  2.4231
13831TIP3   OH262907   2.908   1.113   1.273  0.0776  0.8739  0.0734
13831TIP3    H162908   2.890   1.205   1.291  2.0271  1.1436  0.8918
13831TIP3    H262909   2.919   1.073   1.359 -0.7273 -0.1515 -0.2699
13832TIP3   OH262910   2.098   4.088   2.612 -0.1844 -0.4415 -0.3654
13832TIP3    H162911   2.102   4.030   2.536 -1.4651  0.8047 -1.4473
13832TIP3    H262912   2.018   4.062   2.657 -1.1825  0.8869 -1.2720
13833TIP3   OH262913   3.019   4.285  12.788 -0.1850 -0.3817  1.1296
13833TIP3    H162914   3.070   4.256  12.712 -0.8753 -0.5623  0.7232
13833TIP3    H262915   3.078   4.343  12.835 -0.6640  2.1634 -1.1410
13834TIP3   OH262916   3.424   3.209  14.739  0.1331  0.3131  0.4136
13834TIP3    H162917   3.495   3.225  14.677  0.9001 -1.8381  0.6636
13834TIP3    H262918   3.352   3.264  14.707  0.6207 -0.4026 -2.1744
13835TIP3   OH262919   6.106   6.217   4.119  1.0530 -0.9099 -0.2087
13835TIP3    H162920   6.012   6.225   4.106  0.5839  2.0588  3.2396
13835TIP3    H262921   6.115   6.144   4.180  0.7273 -0.1337  0.8005
13836TIP3   OH262922   2.288   1.855  15.718  0.1893 -0.6166 -0.0953
13836TIP3    H162923   2.249   1.934  15.680 -1.0457 -0.2671  1.7928
13836TIP3    H262924   2.335   1.886  15.795  0.8826 -1.5700 -0.1163
13837TIP3   OH262925   4.465   0.059   3.051 -0.2396  0.4731 -0.0862
13837TIP3    H162926   4.398   0.114   3.091  0.7497  0.6626  1.4216
13837TIP3    H262927   4.417  -0.007   3.002 -1.5134  3.0483 -2.6477
13838TIP3   OH262928   6.394   4.382  15.889  0.2762 -0.4676 -0.0652
13838TIP3    H162929   6.418   4.404  15.980  0.1876 -0.4111 -0.0553
13838TIP3    H262930   6.421   4.291  15.878  1.0431 -0.2235 -0.2425
13839TIP3   OH262931   6.667   5.469   2.305  0.1175  0.0088 -0.5435
13839TIP3    H162932   6.727   5.534   2.341 -1.4695  0.6605  1.0446
13839TIP3    H262933   6.721   5.391   2.295  1.3440  0.6836  0.3987
13840TIP3   OH262934   1.808   4.881   0.212 -0.1402 -0.1988 -0.9819
13840TIP3    H162935   1.837   4.919   0.294  2.4583  0.4508 -2.0944
13840TIP3    H262936   1.727   4.835   0.234 -0.9456  2.0860  1.3645
13841TIP3   OH262937   1.812   2.907   2.233  0.1609 -0.1856 -0.0709
13841TIP3    H162938   1.728   2.946   2.257 -0.0301 -0.0892 -0.8544
13841TIP3    H262939   1.824   2.932   2.141  1.4043  0.4443  0.2399
13842TIP3   OH262940   3.216   1.662   3.497 -0.1570  0.1219 -0.7790
13842TIP3    H162941   3.232   1.743   3.448  0.8608  0.5082  0.1344
13842TIP3    H262942   3.122   1.662   3.513 -0.1585  1.2052 -0.6769
13843TIP3   OH262943   2.678   0.820   6.559 -0.6599 -0.7301 -0.5003
13843TIP3    H162944   2.730   0.739   6.556  1.5943  0.6527 -1.6675
13843TIP3    H262945   2.622   0.814   6.481 -1.5486 -1.7585  0.1849
13844TIP3   OH262946   3.271   5.475   5.221 -0.0462  0.3763 -0.0580
13844TIP3    H162947   3.315   5.451   5.140  0.0734  0.8964 -0.1493
13844TIP3    H262948   3.178   5.460   5.203  0.0566 -0.3547  0.0076
13845TIP3   OH262949   1.493   0.330   2.008 -0.2858  0.1076  0.1008
13845TIP3    H162950   1.514   0.355   1.918 -3.2465  1.3219 -0.3777
13845TIP3    H262951   1.399   0.309   2.005  0.0845 -2.2816  2.4361
13846TIP3   OH262952   0.696   5.906  14.169 -0.0361 -0.4448 -0.3530
13846TIP3    H162953   0.717   5.944  14.255  0.6952 -0.0202 -0.7096
13846TIP3    H262954   0.780   5.893  14.127 -0.0341 -4.3739  0.4815
13847TIP3   OH262955   1.891   4.525   2.761  0.0486 -0.1447  0.0818
13847TIP3    H162956   1.968   4.566   2.719  0.6389 -2.4460 -1.2879
13847TIP3    H262957   1.928   4.475   2.834 -0.2245 -0.7203 -0.1715
13848TIP3   OH262958   4.232   3.384   6.434  0.2911  0.6911 -0.5639
13848TIP3    H162959   4.142   3.374   6.462  0.5803  1.9328  0.9696
13848TIP3    H262960   4.284   3.360   6.510  1.1914  1.6919 -0.8317
13849TIP3   OH262961   1.296   1.375   4.151 -0.3343  0.1540  0.1000
13849TIP3    H162962   1.208   1.339   4.159  0.1136 -1.5803 -1.7633
13849TIP3    H262963   1.337   1.358   4.236 -1.3598 -0.2912  0.5165
13850TIP3   OH262964   6.383   4.379  16.640  0.6091 -0.0569  0.4945
13850TIP3    H162965   6.407   4.466  16.608  3.1324 -0.6157  0.6070
13850TIP3    H262966   6.452   4.322  16.606 -1.4184 -2.1880 -0.2466
13851TIP3   OH262967   4.490   3.278  12.590 -0.1987 -0.8123  0.0045
13851TIP3    H162968   4.482   3.230  12.673  0.6378  1.3588  1.4604
13851TIP3    H262969   4.416   3.338  12.590  0.1463 -0.3774 -0.5082
13852TIP3   OH262970   4.861   5.052  15.039  0.3552  0.2506 -0.2243
13852TIP3    H162971   4.860   5.130  14.984 -0.9819 -0.6682 -1.5944
13852TIP3    H262972   4.786   5.000  15.009 -0.7387 -0.1208  2.7951
13853TIP3   OH262973   3.988   5.776   3.913  0.0322 -0.1461  0.0178
13853TIP3    H162974   4.038   5.846   3.954 -2.3245  0.9499  1.1254
13853TIP3    H262975   3.995   5.703   3.974 -1.4474  0.7012  1.2501
13854TIP3   OH262976   4.545   5.533   2.532  0.0415  0.2412 -0.2733
13854TIP3    H162977   4.627   5.484   2.536  0.1318  0.4552  0.7925
13854TIP3    H262978   4.532   5.564   2.622 -1.5727 -0.3957 -0.2644
13855TIP3   OH262979   3.947   0.369  13.977  0.2717  0.2486 -0.4350
13855TIP3    H162980   3.933   0.448  14.029  0.0215 -0.5935  0.8198
13855TIP3    H262981   3.983   0.401  13.894 -0.3583  1.7147 -0.1714
13856TIP3   OH262982   6.076   2.366  13.496  0.4213  0.7440 -0.1416
13856TIP3    H162983   6.092   2.312  13.419 -1.0974  0.5910 -0.3674
13856TIP3    H262984   6.162   2.375  13.537  1.3938  1.3793 -2.2032
13857TIP3   OH262985   4.639   2.268   3.836  0.0487  0.0213  0.3498
13857TIP3    H162986   4.621   2.339   3.774  0.2600  0.0718  0.3449
13857TIP3    H262987   4.635   2.188   3.783  0.6646  0.0986  0.1789
13858TIP3   OH262988   6.103   2.444  16.112  0.0550 -0.7874 -0.0327
13858TIP3    H162989   6.051   2.411  16.039  1.3397 -2.3002 -0.3241
13858TIP3    H262990   6.178   2.385  16.116  2.5812  2.1190 -0.6291
13859TIP3   OH262991   4.022   5.807  13.339 -0.0448 -0.1296 -0.3798
13859TIP3    H162992   3.950   5.745  13.353  0.0769 -0.2301 -0.1983
13859TIP3    H262993   4.036   5.806  13.245 -1.4171  1.1627 -0.6250
13860TIP3   OH262994   1.778   6.296   1.594  0.0182 -0.0283  0.2813
13860TIP3    H162995   1.695   6.343   1.602  0.3297  0.4885  0.5306
13860TIP3    H262996   1.837   6.360   1.555  0.6442  0.0113  1.2960
13861TIP3   OH262997   5.675   3.641  13.705  0.4474  0.0776 -0.6948
13861TIP3    H162998   5.671   3.731  13.673 -3.1345 -0.1476 -1.3034
13861TIP3    H262999   5.641   3.588  13.633 -0.7813 -1.3179  0.8273
13862TIP3   OH263000   3.974   3.993  16.221  0.2741  0.3803  0.2547
13862TIP3    H163001   4.061   4.024  16.198  0.1677 -0.0551 -0.7816
13862TIP3    H263002   3.989   3.925  16.286  0.6207  1.1289  0.9905
13863TIP3   OH263003   2.953   6.320  13.910 -0.5163  0.0201 -0.0707
13863TIP3    H163004   2.947   6.415  13.900  0.0487  0.0853  0.1627
13863TIP3    H263005   3.046   6.304  13.926 -0.5627 -0.6021 -0.4012
13864TIP3   OH263006   1.191   4.824   4.222  0.2799  0.3091  0.3217
13864TIP3    H163007   1.119   4.867   4.267 -0.4969 -0.8012  0.1867
13864TIP3    H263008   1.231   4.769   4.289 -0.8146 -1.2692 -0.2479
13865TIP3   OH263009   2.662   3.789  15.000  0.3228  0.0717 -0.3381
13865TIP3    H163010   2.611   3.854  14.953  2.3372 -0.6200 -3.8191
13865TIP3    H263011   2.611   3.708  14.995  1.7070 -0.7756 -4.3370
13866TIP3   OH263012   0.063   0.638   0.361 -0.1810 -0.3900 -0.8618
13866TIP3    H163013   0.145   0.587   0.361 -0.5291 -0.9757 -0.2868
13866TIP3    H263014   0.053   0.666   0.452 -0.2610  0.2802 -1.0747
13867TIP3   OH263015   5.727   3.226   5.468  0.0612  0.0103 -0.3575
13867TIP3    H163016   5.755   3.169   5.541 -0.9640 -0.7810 -0.5570
13867TIP3    H263017   5.809   3.260   5.432  0.6998 -1.1783 -0.0907
13868TIP3   OH263018   0.786   0.361   5.451 -0.6623 -0.0419  0.2046
13868TIP3    H163019   0.827   0.407   5.378 -1.4805 -0.6873 -0.6937
13868TIP3    H263020   0.789   0.269   5.427 -0.8484 -0.2755  1.0367
13869TIP3   OH263021   1.683   3.477  10.603  0.1908 -0.0943  0.3138
13869TIP3    H163022   1.607   3.427  10.572  0.2052 -0.1198  0.3195
13869TIP3    H263023   1.716   3.426  10.677  0.5975 -0.4144 -0.0821
13870TIP3   OH263024   1.651   4.073  11.761  0.0716 -0.2442  0.4840
13870TIP3    H163025   1.688   4.084  11.673  0.3292  1.0659  0.7320
13870TIP3    H263026   1.693   4.141  11.813 -2.4888  1.2167  0.8401
13871TIP3   OH263027   3.936   1.109   2.597  0.5286 -0.5840  0.1274
13871TIP3    H163028   3.984   1.117   2.514 -1.8737 -0.9464 -1.3929
13871TIP3    H263029   3.950   1.019   2.624 -0.3726 -1.1216 -1.0754
13872TIP3   OH263030   5.711   5.732   2.813  0.4868 -0.2895 -0.0263
13872TIP3    H163031   5.641   5.671   2.792 -0.7558  0.5333  1.5271
13872TIP3    H263032   5.736   5.711   2.903  0.3129  1.1904  0.3977
13873TIP3   OH263033   1.412   5.065   1.478  0.1716 -0.1356  0.3196
13873TIP3    H163034   1.401   5.063   1.383  1.5100  1.5050  0.0908
13873TIP3    H263035   1.348   5.130   1.509  1.1323  0.8382  0.2928
13874TIP3   OH263036   3.379   3.518   4.412 -0.3745 -1.0217 -0.3234
13874TIP3    H163037   3.301   3.488   4.460  0.5689 -1.0643  1.2428
13874TIP3    H263038   3.437   3.551   4.479  0.3765  0.4099 -1.6267
13875TIP3   OH263039   5.167   3.680  15.255  0.0230  0.2299  0.5192
13875TIP3    H163040   5.076   3.649  15.251 -0.1493  0.7732  0.1359
13875TIP3    H263041   5.169   3.754  15.195  1.2714 -1.1934 -1.2999
13876TIP3   OH263042   3.451   0.031   2.019 -0.1772 -0.1558 -0.5009
13876TIP3    H163043   3.489  -0.054   1.995  0.3501 -0.9774  2.7912
13876TIP3    H263044   3.521   0.094   2.004  0.7846 -0.9093  0.6831
13877TIP3   OH263045   2.299   3.782   3.368 -0.2787  0.0358  0.4046
13877TIP3    H163046   2.251   3.808   3.289 -1.2336  0.6474  1.1585
13877TIP3    H263047   2.286   3.687   3.373 -0.3393  0.0144 -0.0939
13878TIP3   OH263048   1.580   6.488   6.554  0.3062 -0.0308 -0.8972
13878TIP3    H163049   1.528   6.517   6.629  1.7481 -1.6589  0.8379
13878TIP3    H263050   1.638   6.563   6.535  1.5777 -0.3878  1.2351
13879TIP3   OH263051   2.902   3.774  16.642 -0.0591 -0.4389  0.0637
13879TIP3    H163052   2.965   3.783  16.714 -0.5268  1.5591  0.2933
13879TIP3    H263053   2.836   3.715  16.677 -0.5677  0.9146  1.5603
13880TIP3   OH263054   2.944   6.592  13.866 -0.6507 -0.1768  0.2400
13880TIP3    H163055   2.957   6.614  13.774  2.3100  0.5429  0.7309
13880TIP3    H263056   2.902   6.669  13.904  0.0933  0.4054 -0.0987
13881TIP3   OH263057   2.074   0.778  14.625 -0.1363  0.1429 -0.1609
13881TIP3    H163058   2.061   0.710  14.691 -2.2950  0.9800  0.3527
13881TIP3    H263059   2.015   0.753  14.553  1.0197  0.0899 -1.1336
13882TIP3   OH263060   5.006   2.148  11.237  0.0781 -0.1217 -0.0876
13882TIP3    H163061   5.026   2.081  11.171  1.9206  1.3047 -1.0949
13882TIP3    H263062   4.946   2.208  11.192  1.0399  0.6470 -0.4059
13883TIP3   OH263063   0.628   0.783   3.282  0.8276 -0.1152  1.1344
13883TIP3    H163064   0.561   0.850   3.273  0.1524 -1.0160 -3.6744
13883TIP3    H263065   0.580   0.702   3.296  1.0978 -0.3539  0.7363
13884TIP3   OH263066   0.899   6.505  15.817  0.0439  0.0692 -0.3507
13884TIP3    H163067   0.861   6.563  15.883  0.9788 -0.8390  1.0311
13884TIP3    H263068   0.828   6.491  15.754 -1.2789  0.0354  1.0864
13885TIP3   OH263069   1.260   6.097   2.530 -0.1892  0.2801  0.4325
13885TIP3    H163070   1.230   6.169   2.584  1.4616  0.0896  1.6769
13885TIP3    H263071   1.325   6.051   2.584  1.2500 -0.1612 -1.5414
13886TIP3   OH263072   6.773   1.466   2.236 -0.3008 -0.3933  0.3574
13886TIP3    H163073   6.772   1.497   2.326 -0.7697  0.1137  0.1847
13886TIP3    H263074   6.851   1.411   2.230  0.3767  0.5108  0.7585
13887TIP3   OH263075   6.596   1.540  15.186  0.1105 -0.4804 -0.0354
13887TIP3    H163076   6.685   1.510  15.167 -0.0893 -1.1616  0.0513
13887TIP3    H263077   6.605   1.633  15.205  0.7426 -0.4526 -0.4468
13888TIP3   OH263078   4.351   4.515   0.702 -0.1434 -0.3040 -0.2786
13888TIP3    H163079   4.334   4.520   0.796  1.1427 -0.3123 -0.0279
13888TIP3    H263080   4.336   4.603   0.669  3.1350  0.7175  0.6408
13889TIP3   OH263081   6.197   0.928   2.110 -0.2391  0.5468  0.2347
13889TIP3    H163082   6.247   0.963   2.036 -1.0717  0.0425 -0.5914
13889TIP3    H263083   6.251   0.858   2.145 -0.9912 -1.0624 -1.6496
13890TIP3   OH263084   4.142   3.664   2.127  0.4586  0.0839 -0.2391
13890TIP3    H163085   4.129   3.735   2.064 -2.6011 -1.4692 -1.5508
13890TIP3    H263086   4.181   3.707   2.203  1.7974  2.5189 -2.1334
13891TIP3   OH263087   2.308   3.790  15.683 -0.0831 -0.7676 -0.0612
13891TIP3    H163088   2.370   3.850  15.641  0.1011 -1.5390 -0.9216
13891TIP3    H263089   2.354   3.759  15.761  1.0571 -2.0930 -1.2041
13892TIP3   OH263090   0.404   5.591   0.635  0.3667 -0.7068 -0.5095
13892TIP3    H163091   0.476   5.530   0.648  1.6582  0.8898  0.1837
13892TIP3    H263092   0.367   5.568   0.550 -1.2748 -4.4577  0.9939
13893TIP3   OH263093   6.292   1.432  16.403 -0.3772 -0.1412 -0.2760
13893TIP3    H163094   6.360   1.477  16.353 -1.9832  0.5962 -1.9098
13893TIP3    H263095   6.310   1.339  16.390 -0.3137  0.0391 -1.6527
13894TIP3   OH263096   3.073   4.723  16.224 -0.2314 -0.2175  0.6404
13894TIP3    H163097   3.101   4.676  16.303  0.0731 -0.5648  0.3289
13894TIP3    H263098   3.059   4.813  16.254  0.8655 -0.1152  0.8933
13895TIP3   OH263099   3.256   3.609   2.930 -0.0477  0.6688 -0.2082
13895TIP3    H163100   3.331   3.577   2.979  0.2027 -0.0946 -1.0525
13895TIP3    H263101   3.290   3.681   2.877 -0.0414  0.7090 -0.1490
13896TIP3   OH263102   3.957   5.994  17.181  0.2511  0.1385  0.6504
13896TIP3    H163103   3.979   5.912  17.225  1.1200 -0.7667 -1.3370
13896TIP3    H263104   3.862   5.996  17.178  0.2200 -1.0474  0.3376
13897TIP3   OH263105   0.962   3.377  13.550 -0.0802 -0.2199 -0.4175
13897TIP3    H163106   1.054   3.348  13.550 -0.3951 -1.2897 -1.3429
13897TIP3    H263107   0.965   3.461  13.503  0.4056 -0.3111 -0.5645
13898TIP3   OH263108   6.748   2.220  12.434  0.4898 -0.2175  0.5848
13898TIP3    H163109   6.796   2.184  12.359 -0.3690 -2.2039  0.9256
13898TIP3    H263110   6.793   2.183  12.510  1.0963  1.4476  1.0709
13899TIP3   OH263111   3.009   1.669  11.596 -0.2778 -0.1463 -0.2615
13899TIP3    H163112   3.014   1.576  11.576  0.3024  0.0844 -1.2737
13899TIP3    H263113   3.062   1.711  11.528  0.0563  0.8657  0.5942
13900TIP3   OH263114   1.206   6.654   3.843 -0.2326 -0.2746  0.1178
13900TIP3    H163115   1.174   6.694   3.763  2.1695  0.8261 -0.3606
13900TIP3    H263116   1.201   6.724   3.909  0.5781 -0.2736  0.1836
13901TIP3   OH263117   6.423   3.464   0.512 -0.0409 -0.6269 -0.4492
13901TIP3    H163118   6.350   3.411   0.479  0.7759 -1.4743 -0.9391
13901TIP3    H263119   6.422   3.542   0.457 -2.1440  0.6246  1.1912
13902TIP3   OH263120   0.977   2.709   1.253 -0.3286  0.4722  0.1218
13902TIP3    H163121   0.989   2.647   1.181  2.5452  0.8721  0.1408
13902TIP3    H263122   1.002   2.659   1.331 -0.6294  0.8856  0.4836
13903TIP3   OH263123   0.439   4.095   4.442 -0.3974 -0.4380  0.3547
13903TIP3    H163124   0.507   4.041   4.401 -0.7283 -0.6694  0.1044
13903TIP3    H263125   0.470   4.108   4.532 -0.5989 -1.5368  0.5944
13904TIP3   OH263126   3.778   1.174   3.829  0.2134  0.3151  0.7218
13904TIP3    H163127   3.720   1.198   3.901 -1.7828  1.4989 -1.1378
13904TIP3    H263128   3.770   1.247   3.767  0.9664 -1.1168 -1.1645
13905TIP3   OH263129   0.277   0.438   2.610 -0.3307 -0.1092  0.4957
13905TIP3    H163130   0.372   0.430   2.607 -0.0857  2.1928  0.1317
13905TIP3    H263131   0.251   0.388   2.687  1.0214 -1.7519 -0.0497
13906TIP3   OH263132   6.563   4.405  11.642  0.0127  0.2918 -0.1181
13906TIP3    H163133   6.580   4.480  11.700  2.7950  0.5989 -1.1590
13906TIP3    H263134   6.556   4.444  11.555  0.3909 -0.5475 -0.5319
13907TIP3   OH263135   4.380   0.459   4.173 -0.2744 -0.7691  0.2962
13907TIP3    H163136   4.360   0.507   4.092  0.9128  1.1112  1.0582
13907TIP3    H263137   4.455   0.505   4.210 -0.0449 -2.3274  1.8863
13908TIP3   OH263138   5.722   5.952   3.371  0.3161 -0.4582 -0.4748
13908TIP3    H163139   5.744   5.952   3.277 -0.3362 -1.0708 -0.6362
13908TIP3    H263140   5.657   5.882   3.380  0.4188 -0.4428  0.4508
13909TIP3   OH263141   1.356   0.123   2.338 -0.4355 -0.2704  0.2104
13909TIP3    H163142   1.364   0.194   2.401  1.4045  2.5861 -2.8929
13909TIP3    H263143   1.282   0.148   2.282 -0.6491 -1.5442 -0.1142
13910TIP3   OH263144   5.574   6.421   4.276 -0.1888 -0.5673  0.0605
13910TIP3    H163145   5.492   6.445   4.232 -0.1481 -1.4359 -0.5128
13910TIP3    H263146   5.567   6.462   4.362 -1.4482 -1.0121  0.2019
13911TIP3   OH263147   3.744   4.424  11.950  0.3950 -0.0966  0.1460
13911TIP3    H163148   3.820   4.429  11.892  0.8443  0.9170  0.8015
13911TIP3    H263149   3.669   4.435  11.892  0.6706 -2.0061 -0.6409
13912TIP3   OH263150   2.412   3.306  14.859  0.3724  0.6007  0.7528
13912TIP3    H163151   2.384   3.300  14.767 -1.2960  0.0229  1.2714
13912TIP3    H263152   2.418   3.215  14.888 -0.9587  0.7948  1.7239
13913TIP3   OH263153   1.367   3.138  13.086  0.2417  0.7711  0.1277
13913TIP3    H163154   1.346   3.218  13.133  0.0019  0.0929  1.1998
13913TIP3    H263155   1.282   3.098  13.067  0.3820 -0.6848  2.2119
13914TIP3   OH263156   2.422   0.713  16.634 -0.2503  0.0774  0.0271
13914TIP3    H163157   2.414   0.785  16.696  0.8079  0.7955 -0.6485
13914TIP3    H263158   2.351   0.728  16.571 -0.7520 -0.1342  0.5360
13915TIP3   OH263159   0.909   3.890   4.562 -0.1073  0.0169 -0.0557
13915TIP3    H163160   0.928   3.798   4.545 -1.9895 -0.1871 -1.3858
13915TIP3    H263161   0.975   3.938   4.512  2.1227 -0.5005  2.1654
13916TIP3   OH263162   1.322   5.973  15.962  0.7707  0.1556 -0.3651
13916TIP3    H163163   1.341   6.065  15.979  0.7516  0.2630 -0.9060
13916TIP3    H263164   1.403   5.939  15.925  1.2866 -0.4202  1.2011
13917TIP3   OH263165   5.468   3.130  15.591 -0.3133 -0.1266 -0.2090
13917TIP3    H163166   5.468   3.210  15.645 -0.7873 -0.8954  0.9661
13917TIP3    H263167   5.468   3.163  15.501  0.7067  1.1933  0.2347
13918TIP3   OH263168   3.989   3.004   3.952 -0.4447 -0.4211  0.1613
13918TIP3    H163169   3.993   2.908   3.952  0.0007 -0.4457 -1.7012
13918TIP3    H263170   3.901   3.024   3.985 -0.4028 -1.4377  0.9418
13919TIP3   OH263171   5.058   0.973  15.928  0.3928 -0.3753  0.1199
13919TIP3    H163172   4.979   0.974  15.982  0.5058  0.7792  0.2790
13919TIP3    H263173   5.121   0.922  15.979 -0.4290 -1.8688 -0.2991
13920TIP3   OH263174   6.765   5.657   0.453 -0.0029 -0.2903 -0.3446
13920TIP3    H163175   6.749   5.744   0.417  2.5539 -0.3353 -1.8356
13920TIP3    H263176   6.819   5.673   0.531 -0.2649 -0.5223 -0.1107
13921TIP3   OH263177   4.576   4.898  15.485 -0.7396  0.6052 -0.4271
13921TIP3    H163178   4.534   4.978  15.515  0.2800  1.2105 -0.5734
13921TIP3    H263179   4.582   4.908  15.390  0.6080  0.9802 -0.3201
13922TIP3   OH263180   3.292   3.319   0.198  0.2187  0.1321 -0.0910
13922TIP3    H163181   3.287   3.405   0.238  2.9625  0.5007 -0.3353
13922TIP3    H263182   3.385   3.296   0.202  0.2719 -0.9588 -3.8015
13923TIP3   OH263183   4.652   4.545   3.824 -0.1472  0.3522  0.7140
13923TIP3    H163184   4.724   4.500   3.869 -0.1537  0.4817  0.8565
13923TIP3    H263185   4.590   4.475   3.802 -0.2110  0.3040  1.0362
13924TIP3   OH263186   2.695   0.416   2.125 -0.6951  0.1612  0.0008
13924TIP3    H163187   2.630   0.427   2.194 -0.4759 -0.4429  0.3151
13924TIP3    H263188   2.718   0.505   2.098  0.1267  0.4526  1.5756
13925TIP3   OH263189   0.829   6.276  14.725 -1.2529  0.0750  0.2194
13925TIP3    H163190   0.862   6.253  14.812 -0.9817 -0.6671 -0.0665
13925TIP3    H263191   0.734   6.274  14.734 -1.2628  1.8545  0.9550
13926TIP3   OH263192   0.509   5.225  14.532 -0.3650 -0.5564  0.0068
13926TIP3    H163193   0.418   5.228  14.501 -0.1510 -0.9113 -0.6891
13926TIP3    H263194   0.527   5.314  14.562 -0.0987  0.2836 -2.4111
13927TIP3   OH263195   6.355   3.933   5.126 -0.2114 -0.4056 -0.3135
13927TIP3    H163196   6.306   4.004   5.084 -0.6643 -0.6689 -0.2382
13927TIP3    H263197   6.415   3.902   5.059  0.7037  0.7025 -0.0477
13928TIP3   OH263198   3.990   5.149  15.261  0.1241 -0.0474 -0.4330
13928TIP3    H163199   4.050   5.213  15.222 -0.5278  0.2929 -0.9046
13928TIP3    H263200   4.020   5.139  15.351  0.1514  1.0409 -0.3036
13929TIP3   OH263201   4.417   4.930   1.040  0.2355 -0.4435 -0.1581
13929TIP3    H163202   4.356   4.872   0.995 -0.5857  0.3698 -0.1370
13929TIP3    H263203   4.361   4.986   1.094  0.8719  1.1415 -1.0631
13930TIP3   OH263204   2.356   0.345   0.462  0.5399  0.0680  0.6304
13930TIP3    H163205   2.417   0.418   0.471  1.0259 -0.0061 -1.6122
13930TIP3    H263206   2.295   0.373   0.393  1.1872 -1.8973 -0.8200
13931TIP3   OH263207   0.464   3.872   0.906 -0.4827 -0.2282  0.1554
13931TIP3    H163208   0.547   3.873   0.858  0.0681 -1.0893  1.0653
13931TIP3    H263209   0.462   3.957   0.951 -0.4005  0.0588 -0.3809
13932TIP3   OH263210   6.210   6.169   4.500  0.1356  0.4681 -0.3038
13932TIP3    H163211   6.224   6.257   4.463  3.3387 -0.1180 -0.7349
13932TIP3    H263212   6.274   6.162   4.570 -1.8266 -0.6655  1.4967
13933TIP3   OH263213   0.790   3.258   3.749 -0.2421  0.0178 -0.2487
13933TIP3    H163214   0.874   3.218   3.772 -0.2550  0.8866  1.5089
13933TIP3    H263215   0.812   3.348   3.725 -0.4990 -0.2494 -1.5506
13934TIP3   OH263216   1.778   5.690  13.668  0.6275  0.1997  0.1682
13934TIP3    H163217   1.809   5.752  13.734 -0.3864  0.4087  0.4627
13934TIP3    H263218   1.797   5.732  13.585  1.1549  0.3098  0.3433
13935TIP3   OH263219   4.022   3.640   2.976 -0.0803 -0.1637 -0.3508
13935TIP3    H163220   4.066   3.561   3.009  0.9041 -0.2095 -1.7088
13935TIP3    H263221   4.007   3.693   3.054  3.4545  0.3657  0.1091
13936TIP3   OH263222   3.550   1.486   0.551  0.3411  0.2882 -0.3226
13936TIP3    H163223   3.598   1.403   0.558  1.5162  0.9434 -0.2938
13936TIP3    H263224   3.514   1.501   0.638 -0.6788 -0.6282 -0.5549
13937TIP3   OH263225   4.151   0.394   4.371  0.4537 -0.5842  0.1696
13937TIP3    H163226   4.213   0.433   4.309 -0.0216  0.0558  0.0879
13937TIP3    H263227   4.108   0.469   4.412  0.4941 -1.0103  1.0024
13938TIP3   OH263228   6.521   4.376   3.347  0.5813  0.0420 -0.0514
13938TIP3    H163229   6.553   4.302   3.398 -0.6492  0.8368  2.0068
13938TIP3    H263230   6.434   4.395   3.383  0.4193  1.8185 -1.2217
13939TIP3   OH263231   3.698   1.531  15.141  0.5016  0.4958 -0.4738
13939TIP3    H163232   3.651   1.522  15.224  1.2046 -0.8786 -0.1971
13939TIP3    H263233   3.758   1.605  15.156  1.2226 -0.2760  0.5556
13940TIP3   OH263234   2.062   2.635   1.856 -0.2790  0.4546 -0.3576
13940TIP3    H163235   2.061   2.549   1.815  0.6475  0.1584  0.2181
13940TIP3    H263236   1.970   2.660   1.862 -0.5539 -0.4731 -0.5754
13941TIP3   OH263237   3.580   3.706   5.430  0.6543 -0.1108  0.1315
13941TIP3    H163238   3.554   3.771   5.364  1.8495 -0.3253 -0.5824
13941TIP3    H263239   3.497   3.670   5.462  0.0024  1.1369 -0.0967
13942TIP3   OH263240   3.786   2.892  15.455  0.5161  0.4636  0.1653
13942TIP3    H163241   3.858   2.943  15.419 -0.1577  0.6510 -0.9478
13942TIP3    H263242   3.757   2.837  15.382 -0.1825  0.0769  0.7255
13943TIP3   OH263243   5.499   5.501  13.636  0.0935  0.2538  0.0174
13943TIP3    H163244   5.443   5.567  13.676  0.9152  1.1835 -0.3315
13943TIP3    H263245   5.559   5.551  13.580 -0.0442 -0.8750 -1.1910
13944TIP3   OH263246   1.379   1.992  16.707 -0.6275  1.0012  0.3559
13944TIP3    H163247   1.302   1.958  16.752  0.3919  1.4496  2.5764
13944TIP3    H263248   1.345   2.028  16.625 -2.3332 -1.3228 -0.0357
13945TIP3   OH263249   2.412   3.598  15.943  0.0339 -0.0983 -0.3437
13945TIP3    H163250   2.487   3.603  15.885  0.6086  0.4421  0.4221
13945TIP3    H263251   2.385   3.506  15.940  0.2725 -0.1485 -1.1724
13946TIP3   OH263252   3.844   4.581   1.443 -0.1302 -0.7429 -0.0632
13946TIP3    H163253   3.862   4.657   1.387 -0.0403  0.3721  1.4354
13946TIP3    H263254   3.748   4.579   1.450 -0.1275 -0.6959 -0.0104
13947TIP3   OH263255   6.444   3.529   4.295  0.2684 -0.5338  0.3440
13947TIP3    H163256   6.394   3.566   4.367  0.1088 -2.6084  1.3706
13947TIP3    H263257   6.386   3.464   4.256  0.8902 -0.4567 -0.7600
13948TIP3   OH263258   0.558   6.271   4.482  0.1252  0.3923 -0.7550
13948TIP3    H163259   0.540   6.337   4.549 -1.5706 -0.7766 -0.0046
13948TIP3    H263260   0.641   6.232   4.509 -0.7721 -0.4072  0.9916
13949TIP3   OH263261   3.962   6.158  14.636 -0.1561  0.8754 -0.0189
13949TIP3    H163262   4.033   6.155  14.700  0.7798 -0.0616 -1.0667
13949TIP3    H263263   4.000   6.200  14.559 -1.2511  1.9332 -0.0193
13950TIP3   OH263264   6.655   3.582   1.045  0.0717  0.0183 -0.3637
13950TIP3    H163265   6.637   3.541   1.130  1.0723 -0.3976 -0.3453
13950TIP3    H263266   6.569   3.586   1.002 -0.1076 -1.8234 -0.2411
13951TIP3   OH263267   1.835   3.061   5.926 -0.4686  0.4345 -0.2840
13951TIP3    H163268   1.918   3.049   5.879 -0.9850  1.7718 -1.5904
13951TIP3    H263269   1.858   3.113   6.003 -0.2042  1.5653 -1.1045
13952TIP3   OH263270   2.480   1.949   3.619  0.6733 -0.0168 -0.0169
13952TIP3    H163271   2.554   1.963   3.561 -0.5549  0.5935 -1.5273
13952TIP3    H263272   2.414   1.906   3.564 -1.0101  1.7113  0.5325
13953TIP3   OH263273   5.660   3.247  16.369  0.3777 -0.5338  0.1133
13953TIP3    H163274   5.638   3.169  16.318 -1.7817 -0.9433  1.5039
13953TIP3    H263275   5.730   3.289  16.320  1.1101 -2.9463 -1.0754
13954TIP3   OH263276   5.237   0.751   2.059 -0.2161 -0.1666  0.1275
13954TIP3    H163277   5.232   0.679   2.123  0.5849 -0.9784 -0.6897
13954TIP3    H263278   5.316   0.732   2.008 -0.0289  1.2600 -0.1668
13955TIP3   OH263279   4.682   2.437   2.228 -0.4951  0.2817  0.0223
13955TIP3    H163280   4.692   2.387   2.147  0.4083  1.2867 -0.5122
13955TIP3    H263281   4.613   2.391   2.276 -1.8638  0.2860 -1.8139
13956TIP3   OH263282   1.295   4.476   1.615  0.3977 -0.5117  0.1278
13956TIP3    H163283   1.308   4.493   1.522 -2.7737  0.3700 -0.2858
13956TIP3    H263284   1.255   4.556   1.648  1.1465 -0.9417  2.2176
13957TIP3   OH263285   1.816   2.037   3.490 -0.1834 -0.4880 -0.2501
13957TIP3    H163286   1.903   2.052   3.455  0.4963 -0.9660  1.1602
13957TIP3    H263287   1.769   1.990   3.421  0.9917 -1.1235 -0.6267
13958TIP3   OH263288   5.591   4.988   5.757 -0.2544 -0.6150 -0.9124
13958TIP3    H163289   5.612   4.905   5.715 -1.9983 -0.8028 -1.4468
13958TIP3    H263290   5.618   4.976   5.848  2.1182 -0.7372 -1.5443
13959TIP3   OH263291   6.396   4.010  15.624  0.5982  0.0201  0.1995
13959TIP3    H163292   6.466   3.947  15.604  0.5318 -0.0262  0.1121
13959TIP3    H263293   6.317   3.957  15.630  0.4653  0.1539 -0.3253
13960TIP3   OH263294   5.640   1.834   4.575 -0.0171  0.0486  0.1152
13960TIP3    H163295   5.675   1.922   4.586  0.9732 -0.5116  1.8181
13960TIP3    H263296   5.676   1.785   4.648 -2.3038 -1.2324  0.4813
13961TIP3   OH263297   2.305   4.472  12.313  0.0895 -0.0655 -0.0040
13961TIP3    H163298   2.321   4.566  12.321 -0.7558  0.1036 -0.2404
13961TIP3    H263299   2.263   4.446  12.395 -0.3628 -0.0846 -0.2372
13962TIP3   OH263300   4.258   5.532  13.902  0.2830  0.3503 -0.7023
13962TIP3    H163301   4.223   5.598  13.962  1.5111  0.7158 -0.3568
13962TIP3    H263302   4.313   5.581  13.841  1.5014 -0.3505 -0.2299
13963TIP3   OH263303   2.077   1.255  13.847  0.3424 -0.1204 -0.4037
13963TIP3    H163304   2.094   1.167  13.882 -0.5889  0.0590  0.5566
13963TIP3    H263305   2.085   1.313  13.923 -0.9161  0.3860 -0.6342
13964TIP3   OH263306   3.181   1.883  11.412 -0.7676 -0.6400 -0.3275
13964TIP3    H163307   3.130   1.953  11.372 -2.2145 -2.8350 -2.6314
13964TIP3    H263308   3.191   1.818  11.342  1.8887 -2.0652  1.2000
13965TIP3   OH263309   3.746   5.804   3.816  0.3182 -0.0227  0.3306
13965TIP3    H163310   3.827   5.809   3.867  0.4750  0.4539  0.0490
13965TIP3    H263311   3.749   5.718   3.774  0.8909  0.1524 -0.0055
13966TIP3   OH263312   0.421   2.903   3.590  0.8119 -0.2068  0.2817
13966TIP3    H163313   0.464   2.855   3.519 -0.1468 -0.1277 -0.3794
13966TIP3    H263314   0.377   2.835   3.641  0.2702 -0.1277 -0.0762
13967TIP3   OH263315   1.317   5.378  14.516 -0.7269  0.2298 -0.0178
13967TIP3    H163316   1.229   5.401  14.485  0.4233  2.4729 -1.9522
13967TIP3    H263317   1.373   5.386  14.438  1.1494 -1.6240  1.0305
13968TIP3   OH263318   1.218   5.171   3.417 -0.1394 -0.0935 -0.0517
13968TIP3    H163319   1.178   5.092   3.452 -0.4297 -0.4243 -1.0968
13968TIP3    H263320   1.306   5.143   3.390 -0.1465  0.0042 -0.1773
13969TIP3   OH263321   1.307   5.227   6.570 -0.0274 -0.2488  0.1935
13969TIP3    H163322   1.345   5.246   6.655 -2.8424 -0.5593  1.6395
13969TIP3    H263323   1.328   5.135   6.553  0.6921 -0.1332  0.4482
13970TIP3   OH263324   1.308   2.903  15.707  0.2676  0.3241  0.2117
13970TIP3    H163325   1.237   2.848  15.675  0.2790  0.5996 -0.2935
13970TIP3    H263326   1.265   2.969  15.761 -0.0920  1.5869 -1.5256
13971TIP3   OH263327   4.494   3.468  12.856  0.4059  0.2499  0.5769
13971TIP3    H163328   4.523   3.380  12.831  2.4282  0.4779  1.8854
13971TIP3    H263329   4.454   3.502  12.776  1.2880 -1.1825 -0.5516
13972TIP3   OH263330   1.065   4.178  15.971 -0.1513  0.1576  0.1988
13972TIP3    H163331   1.152   4.154  16.003  0.2937  1.5801  0.0973
13972TIP3    H263332   1.023   4.220  16.045  0.2506  1.8918 -0.5063
13973TIP3   OH263333   3.692   0.525   5.220  0.2722 -0.5121  0.0230
13973TIP3    H163334   3.620   0.493   5.276 -0.2956 -0.3879 -0.6208
13973TIP3    H263335   3.702   0.616   5.245  1.2337 -0.9025  1.1714
13974TIP3   OH263336   5.189   6.130  12.251 -0.0449  0.3331  0.4110
13974TIP3    H163337   5.110   6.153  12.203  0.0397  0.4622  0.3354
13974TIP3    H263338   5.259   6.180  12.209 -0.1895  1.5546  1.5619
13975TIP3   OH263339   4.482   2.461  15.218 -0.4933  0.5345  0.0332
13975TIP3    H163340   4.528   2.533  15.261  1.0229  1.1560 -2.4363
13975TIP3    H263341   4.542   2.431  15.151 -2.6940 -0.3788 -1.6549
13976TIP3   OH263342   5.552   0.045   5.940  0.1872  1.0755  0.1370
13976TIP3    H163343   5.564   0.007   6.027  0.5071  0.1998 -0.2793
13976TIP3    H263344   5.463   0.080   5.942 -0.0603  0.4374  0.5853
13977TIP3   OH263345   5.000   4.112   1.089  0.2684  0.4256  0.4050
13977TIP3    H163346   4.973   4.190   1.138  1.6500  2.2733 -1.5544
13977TIP3    H263347   5.049   4.147   1.014  0.6110 -2.3465 -0.7880
13978TIP3   OH263348   3.099   2.981   4.962  0.3369 -0.8323  0.2073
13978TIP3    H163349   3.074   2.943   5.046 -0.6006 -1.7366 -0.4483
13978TIP3    H263350   3.124   2.905   4.908  1.1000 -0.2516 -0.2632
13979TIP3   OH263351   4.482   0.401   4.993 -0.1161 -0.3069 -0.5216
13979TIP3    H163352   4.519   0.483   4.960 -0.9348  0.1870 -0.2224
13979TIP3    H263353   4.395   0.396   4.953 -0.9237  0.0341  1.1067
13980TIP3   OH263354   3.088   6.279   5.915 -0.2843 -0.0363 -0.4267
13980TIP3    H163355   3.169   6.260   5.962 -0.6441 -0.1956  0.1347
13980TIP3    H263356   3.020   6.231   5.963 -0.5707 -0.7193 -1.4745
13981TIP3   OH263357   0.993   5.144   4.525  0.4901 -0.0359 -0.0778
13981TIP3    H163358   0.975   5.192   4.606  1.3975 -0.9539  0.7009
13981TIP3    H263359   1.084   5.163   4.504  0.8081 -1.2142  0.1330
13982TIP3   OH263360   6.204   1.215   1.489 -0.5394 -0.0585 -0.9837
13982TIP3    H163361   6.196   1.189   1.397  0.1841 -0.4234 -0.9454
13982TIP3    H263362   6.195   1.133   1.537 -0.5197  0.0826 -0.7423
13983TIP3   OH263363   4.174   5.437   5.272  0.1146 -0.0328  0.0255
13983TIP3    H163364   4.241   5.488   5.317  0.8372 -1.4472  0.6239
13983TIP3    H263365   4.098   5.496   5.266  0.9694  1.1405  0.5188
13984TIP3   OH263366   4.488   1.190   4.591  0.3759  0.2334  0.1709
13984TIP3    H163367   4.535   1.109   4.571 -0.8941 -0.8930  1.4674
13984TIP3    H263368   4.465   1.181   4.684 -2.1941  0.7945 -0.3448
13985TIP3   OH263369   3.414   1.051   2.609  0.0959  0.1811 -0.2567
13985TIP3    H163370   3.346   1.011   2.556 -1.5196  2.8047 -0.3669
13985TIP3    H263371   3.415   1.001   2.690 -0.4528 -1.1901 -1.0696
13986TIP3   OH263372   0.909   6.559   2.409 -0.3770  0.2395  0.0751
13986TIP3    H163373   0.921   6.598   2.495 -1.3368 -0.8513  0.7297
13986TIP3    H263374   0.991   6.513   2.391 -0.5628 -0.4304  0.8934
13987TIP3   OH263375   5.999   0.330  15.815 -0.3641  0.2977 -0.0698
13987TIP3    H163376   5.960   0.356  15.898  0.0160 -2.6517  1.1631
13987TIP3    H263377   5.985   0.235  15.810  0.0498  0.2948 -3.1687
13988TIP3   OH263378   2.514   3.802  17.005 -0.0998  0.0021 -0.1086
13988TIP3    H163379   2.548   3.804  16.915 -0.8712  0.6157 -0.3970
13988TIP3    H263380   2.483   3.891  17.021  0.3608 -0.0039  0.9045
13989TIP3   OH263381   1.435   2.149   1.144  0.5714  0.4316  1.1715
13989TIP3    H163382   1.445   2.134   1.237  1.0582 -1.5180  0.8400
13989TIP3    H263383   1.356   2.100   1.120  1.6395 -0.8956  0.2099
13990TIP3   OH263384   1.013   5.175   5.652 -0.3814  0.3367  0.5348
13990TIP3    H163385   1.025   5.270   5.647  0.9591  0.3088  2.2706
13990TIP3    H263386   0.922   5.161   5.626 -0.4198  2.0057 -0.4000
13991TIP3   OH263387   6.053   4.922   4.495 -0.6733  0.6041 -0.4791
13991TIP3    H163388   6.126   4.865   4.471  0.1519  0.9044  1.2246
13991TIP3    H263389   6.074   4.955   4.582 -1.5488  2.8218 -1.0149
13992TIP3   OH263390   0.833   2.571   3.104 -0.3222 -0.7457 -0.2152
13992TIP3    H163391   0.901   2.535   3.160  0.1606 -0.2364 -0.4686
13992TIP3    H263392   0.880   2.607   3.029 -0.9064 -0.8122 -0.6206
13993TIP3   OH263393   4.351   0.325   4.683 -0.6941 -0.0651  0.0341
13993TIP3    H163394   4.276   0.342   4.740 -1.6614 -0.7890 -0.9664
13993TIP3    H263395   4.375   0.412   4.649 -1.4819  0.1057 -0.1105
13994TIP3   OH263396   3.327   3.368   4.165  0.1530 -0.4609  0.0317
13994TIP3    H163397   3.292   3.285   4.198 -1.2721 -0.1517 -0.6602
13994TIP3    H263398   3.359   3.412   4.244 -3.5413  0.4349  1.2106
13995TIP3   OH263399   1.869   3.326   2.669  0.1199  0.1993  0.6257
13995TIP3    H163400   1.851   3.375   2.589  0.4874 -1.0975 -0.2803
13995TIP3    H263401   1.800   3.353   2.729 -0.9344  0.2464 -0.5623
13996TIP3   OH263402   2.327   4.400   0.461 -0.7698  0.4475  0.5148
13996TIP3    H163403   2.300   4.360   0.378  0.5248  0.7201 -0.0575
13996TIP3    H263404   2.248   4.397   0.516 -1.5587 -0.0102 -0.6130
13997TIP3   OH263405   0.142   1.823   2.085  0.1014  0.1404  0.0588
13997TIP3    H163406   0.151   1.756   2.153 -0.4675 -0.5701 -0.5489
13997TIP3    H263407   0.054   1.859   2.097 -0.2499 -0.4438 -0.6919
13998TIP3   OH263408   0.462   3.643  12.457 -0.4837  0.3509 -0.0707
13998TIP3    H163409   0.430   3.608  12.540  0.3476  0.5423  0.3398
13998TIP3    H263410   0.484   3.565  12.406 -1.1127  0.2292 -0.1695
13999TIP3   OH263411   0.953   4.716  14.893  0.8245  0.7628 -0.1134
13999TIP3    H163412   0.956   4.799  14.845  0.0925 -0.1518 -1.8356
13999TIP3    H263413   0.923   4.740  14.980  0.9129  2.3450 -0.4768
14000TIP3   OH263414   0.407   0.820  12.477  0.0965  0.1977  0.2005
14000TIP3    H163415   0.387   0.889  12.413  1.3196 -0.1601 -0.6139
14000TIP3    H263416   0.322   0.789  12.507 -0.5030  0.6921 -0.9290
14001TIP3   OH263417   6.103   4.071  16.706 -0.6633 -0.4567  0.0144
14001TIP3    H163418   6.187   4.086  16.750 -0.1951 -0.4879 -0.8509
14001TIP3    H263419   6.044   4.042  16.776 -0.5151  1.4904  1.0170
14002TIP3   OH263420   5.382   2.957   1.309 -0.6397 -0.2434  0.2395
14002TIP3    H163421   5.392   3.050   1.326  1.3884  0.1543 -2.4939
14002TIP3    H263422   5.433   2.915   1.378 -1.1103  0.6656  1.1673
14003TIP3   OH263423   6.598   3.374  16.414  0.1557  0.0089 -0.4057
14003TIP3    H163424   6.567   3.309  16.351  1.1529 -1.0790  0.1908
14003TIP3    H263425   6.692   3.381  16.397  0.4816 -0.4842  1.1056
14004TIP3   OH263426   5.372   5.559   0.726  0.6768 -0.5097  0.1003
14004TIP3    H163427   5.434   5.529   0.660  0.7913 -0.9837  0.4176
14004TIP3    H263428   5.286   5.534   0.693  0.5358  0.9905 -0.8056
14005TIP3   OH263429   2.460   0.533   5.358 -0.5092 -0.2880 -0.3012
14005TIP3    H163430   2.544   0.505   5.395  0.3096  1.7418 -0.5155
14005TIP3    H263431   2.395   0.508   5.424  0.0487 -2.8907 -0.6072
14006TIP3   OH263432   4.996   3.537   0.423  0.0933  1.1798 -0.9441
14006TIP3    H163433   4.941   3.485   0.483  0.6921  2.6737  1.0324
14006TIP3    H263434   5.062   3.577   0.480  1.3737  1.8626 -2.8062
14007TIP3   OH263435   5.444   4.333  15.731  0.2445 -0.0419  0.5298
14007TIP3    H163436   5.469   4.423  15.751 -0.0510 -0.0962  1.1657
14007TIP3    H263437   5.393   4.340  15.651  3.1535 -0.0538 -1.4632
14008TIP3   OH263438   2.840   3.339   2.571 -0.4998 -0.5441 -0.8852
14008TIP3    H163439   2.932   3.357   2.556 -0.2939  0.2874  1.0225
14008TIP3    H263440   2.834   3.244   2.578 -0.3137 -0.8421 -3.7497
14009TIP3   OH263441   0.286   4.499  13.595 -0.0803  0.6803  0.0419
14009TIP3    H163442   0.343   4.556  13.646 -1.3343  2.4137 -0.4101
14009TIP3    H263443   0.217   4.473  13.656 -0.2187  0.6989 -0.1053
14010TIP3   OH263444   6.392   4.089   1.247 -0.1211 -0.4106  0.0527
14010TIP3    H163445   6.398   3.998   1.276  0.2636 -0.1422  0.8375
14010TIP3    H263446   6.481   4.111   1.220 -0.0221  0.0042  0.7083
14011TIP3   OH263447   0.873   0.487   3.624 -0.2632 -0.3342 -0.3610
14011TIP3    H163448   0.849   0.413   3.679  0.3553 -1.8424 -2.0270
14011TIP3    H263449   0.792   0.510   3.578 -0.9167  1.2717  1.4539
14012TIP3   OH263450   6.227   1.576  15.357  0.3619 -0.6312 -0.5944
14012TIP3    H163451   6.214   1.590  15.264  1.2250 -3.6443 -1.2680
14012TIP3    H263452   6.142   1.545  15.389  0.1461  0.1331 -0.3827
14013TIP3   OH263453   5.320   5.392   2.158 -0.2286 -0.3475  0.5341
14013TIP3    H163454   5.278   5.326   2.102 -0.1321 -1.3845  1.6424
14013TIP3    H263455   5.249   5.428   2.211 -0.0042 -0.9150  1.2411
14014TIP3   OH263456   0.215   5.475   4.978 -0.5427  0.1232 -0.1948
14014TIP3    H163457   0.242   5.522   4.900 -1.9926 -1.5577 -1.7963
14014TIP3    H263458   0.121   5.490   4.985 -0.7311 -1.1217  0.2223
14015TIP3   OH263459   4.786   0.414  14.794 -0.0138  0.3521  0.0616
14015TIP3    H163460   4.826   0.466  14.725 -1.0425  3.4833  1.6479
14015TIP3    H263461   4.853   0.411  14.863 -0.9030  2.0764  1.0716
14016TIP3   OH263462   6.669   0.102  16.696  0.2487  0.2645 -0.2140
14016TIP3    H163463   6.663   0.045  16.773 -1.0655 -1.8702 -1.7817
14016TIP3    H263464   6.753   0.080  16.656 -0.1844 -0.4886 -0.7277
14017TIP3   OH263465   0.077   0.103  16.432  0.4566 -0.5959 -0.2804
14017TIP3    H163466   0.014   0.040  16.396  0.5141 -1.7188  1.4303
14017TIP3    H263467   0.107   0.062  16.514  1.0890  1.3284  0.5008
14018TIP3   OH263468   1.594   1.287  15.383 -0.2079  0.0777  0.2787
14018TIP3    H163469   1.615   1.380  15.381 -0.5648  0.1533 -0.2980
14018TIP3    H263470   1.675   1.244  15.353  0.0571  0.1788  0.8433
14019TIP3   OH263471   3.661   5.469   5.169  0.0028 -0.1427  0.1590
14019TIP3    H163472   3.582   5.428   5.134 -2.2706  4.1632 -0.4652
14019TIP3    H263473   3.676   5.425   5.253 -2.4261 -1.7900 -0.1699
14020TIP3   OH263474   1.390   4.601   0.714  0.1067  0.4344  0.3438
14020TIP3    H163475   1.387   4.511   0.745  1.5571  0.5639  0.9513
14020TIP3    H263476   1.313   4.642   0.752  0.5390 -0.0392  1.7921
14021TIP3   OH263477   4.467   4.578  11.343 -0.1462  0.1925 -0.7502
14021TIP3    H163478   4.526   4.563  11.269  2.4235 -1.4282  1.4108
14021TIP3    H263479   4.420   4.495  11.353  2.8817 -1.4310  1.9888
14022TIP3   OH263480   6.246   3.256  11.194  0.3279 -0.4559  0.1457
14022TIP3    H163481   6.251   3.342  11.236 -0.6526  0.1971 -1.0172
14022TIP3    H263482   6.172   3.262  11.135 -0.4494 -2.4835  0.8274
14023TIP3   OH263483   4.707   2.437   5.671 -0.3805 -0.0467 -0.3434
14023TIP3    H163484   4.615   2.431   5.648 -0.6926  0.7689  0.6304
14023TIP3    H263485   4.711   2.507   5.736  1.1455  1.1163 -1.5900
14024TIP3   OH263486   0.223   0.139  14.052 -0.2383  0.5094  0.6980
14024TIP3    H163487   0.285   0.212  14.056  0.4770 -0.1227  1.6117
14024TIP3    H263488   0.277   0.061  14.057 -1.1017 -0.0563  1.7798
14025TIP3   OH263489   1.344   6.376   5.791 -0.7382  0.2188  0.1214
14025TIP3    H163490   1.371   6.456   5.745 -0.4358  0.3489  0.5153
14025TIP3    H263491   1.364   6.305   5.730 -0.6265  0.4113 -0.0694
14026TIP3   OH263492   6.340   4.290  14.372  0.4684 -0.2745  0.3987
14026TIP3    H163493   6.330   4.376  14.331  2.0450  0.1551  0.8797
14026TIP3    H263494   6.336   4.229  14.299  1.1358  0.3395 -0.1675
14027TIP3   OH263495   0.094   0.076   6.381  0.0189  0.6665 -0.0479
14027TIP3    H163496   0.035   0.087   6.456  0.4336  0.7631  0.2702
14027TIP3    H263497   0.181   0.065   6.421 -0.0563 -1.7243 -0.3774
14028TIP3   OH263498   5.874   1.621   0.588 -0.4218  0.4466  0.3623
14028TIP3    H163499   5.945   1.659   0.640 -2.4153  2.3526  1.8773
14028TIP3    H263500   5.884   1.660   0.501  1.3467 -0.6625  0.0241
14029TIP3   OH263501   2.474   2.065  12.152 -0.0857 -0.0112 -0.4489
14029TIP3    H163502   2.527   1.993  12.189  0.6055  1.4496  1.5673
14029TIP3    H263503   2.538   2.120  12.107 -0.1659  0.6773  0.2481
14030TIP3   OH263504   5.744   3.803  11.736 -0.1242 -0.0252 -0.3283
14030TIP3    H163505   5.653   3.833  11.734 -0.0974  0.0504 -1.4954
14030TIP3    H263506   5.748   3.738  11.665  1.4832  2.3174 -2.5928
14031TIP3   OH263507   2.326   6.718  12.807  0.2043 -0.2680 -0.1863
14031TIP3    H163508   2.242   6.697  12.766  0.5510  1.4740 -1.9337
14031TIP3    H263509   2.374   6.635  12.807  0.6124 -0.2794 -4.5422
14032TIP3   OH263510   6.795   3.522   5.229 -0.0318 -0.1051 -0.5477
14032TIP3    H163511   6.772   3.522   5.136 -0.0785 -0.7679 -0.5422
14032TIP3    H263512   6.734   3.584   5.269  1.1490  1.5666 -1.2202
14033TIP3   OH263513   1.143   6.444   3.119 -0.5801 -0.2096  0.2443
14033TIP3    H163514   1.057   6.483   3.132 -0.9509 -0.4823 -1.1952
14033TIP3    H263515   1.126   6.351   3.108  0.0549 -0.4667  1.3440
14034TIP3   OH263516   2.981   2.936   3.010  0.2264  0.2835  0.3112
14034TIP3    H163517   3.069   2.949   3.046 -0.2184  0.5578  1.3195
14034TIP3    H263518   2.926   2.997   3.059 -0.5266  0.1210 -0.3248
14035TIP3   OH263519   2.315   6.588   4.422  0.3993  0.2707 -0.2784
14035TIP3    H163520   2.300   6.498   4.449  1.5454  0.8475  2.6221
14035TIP3    H263521   2.345   6.581   4.331  0.3031 -2.2348 -0.1920
14036TIP3   OH263522   3.675   6.056   4.246 -0.3746 -0.6716  0.1330
14036TIP3    H163523   3.673   6.006   4.328  1.7266 -0.4660  0.3550
14036TIP3    H263524   3.646   5.994   4.179 -0.8833 -1.2132  0.8395
14037TIP3   OH263525   5.669   5.785   1.001  0.1422 -1.0288 -0.0929
14037TIP3    H163526   5.751   5.810   0.959  0.0360 -1.1520 -0.3779
14037TIP3    H263527   5.604   5.790   0.931 -0.8611  2.7163  0.8834
14038TIP3   OH263528   6.350   5.866  13.876  0.0374  0.6023  0.2353
14038TIP3    H163529   6.375   5.942  13.824 -2.3940 -0.3038 -2.5189
14038TIP3    H263530   6.423   5.854  13.938  3.0006  1.9963 -2.6891
14039TIP3   OH263531   3.948   4.269   1.530 -0.4947 -0.0117 -0.5691
14039TIP3    H163532   3.853   4.279   1.525 -0.1757  3.1493 -2.8932
14039TIP3    H263533   3.981   4.357   1.548  2.0481 -0.9590 -0.1732
14040TIP3   OH263534   1.129   2.401   3.017 -0.0194  0.1988  0.4730
14040TIP3    H163535   1.053   2.373   2.965  0.8185  0.3240 -0.8867
14040TIP3    H263536   1.091   2.439   3.096 -1.2826 -2.1949  1.1134
14041TIP3   OH263537   4.928   6.127  16.126  0.5285  0.1447  0.3118
14041TIP3    H163538   4.928   6.044  16.173 -1.3948 -0.6944 -1.0444
14041TIP3    H263539   5.017   6.134  16.090  0.1966 -2.3368 -1.1949
14042TIP3   OH263540   0.516   3.523   0.212 -0.0496 -0.0868 -0.3011
14042TIP3    H163541   0.444   3.514   0.150  1.1407 -0.9787 -1.6152
14042TIP3    H263542   0.549   3.612   0.199  0.2251 -0.2861 -1.0091
14043TIP3   OH263543   4.935   4.374  14.095 -0.3926  0.2110 -0.3374
14043TIP3    H163544   4.850   4.387  14.136  0.4403 -0.5285  1.7746
14043TIP3    H263545   4.944   4.279  14.088 -0.4389  0.3002 -2.2140
14044TIP3   OH263546   0.172   5.651   2.149 -0.2326  0.6110 -0.6106
14044TIP3    H163547   0.171   5.607   2.234  0.3139  2.2091  0.2457
14044TIP3    H263548   0.264   5.667   2.131 -0.1318 -1.6068 -2.5661
14045TIP3   OH263549   0.639   5.986  16.129 -0.0276  0.2070 -0.0262
14045TIP3    H163550   0.561   6.035  16.106  0.3956  0.6890 -0.4503
14045TIP3    H263551   0.606   5.903  16.163 -0.7360  0.6840  0.4641
14046TIP3   OH263552   5.996   6.624   5.031 -0.2179 -0.2210 -0.6997
14046TIP3    H163553   5.967   6.539   5.063  2.1421 -1.6537 -2.0881
14046TIP3    H263554   6.041   6.605   4.949  1.3674  2.2069 -0.4988
14047TIP3   OH263555   6.603   5.667  10.840 -0.2483 -0.2395  0.0469
14047TIP3    H163556   6.668   5.730  10.872  0.8577 -0.6451 -1.2958
14047TIP3    H263557   6.547   5.718  10.782  0.5900 -0.4396 -0.9666
14048TIP3   OH263558   4.052   1.375  12.688  0.5186  0.3249  0.3842
14048TIP3    H163559   4.081   1.301  12.741  0.0636  0.0758  0.2953
14048TIP3    H263560   4.073   1.452  12.740  1.2744  0.1483  0.3428
14049TIP3   OH263561   0.703   5.572   0.820 -0.1835 -0.0243  0.0703
14049TIP3    H163562   0.633   5.634   0.838  0.8716  1.8185 -1.7595
14049TIP3    H263563   0.659   5.493   0.789 -1.4560  1.2393 -1.4415
14050TIP3   OH263564   3.702   5.776  11.866  0.1251 -0.0638 -0.4657
14050TIP3    H163565   3.771   5.730  11.819 -0.4867 -0.1578 -1.2984
14050TIP3    H263566   3.680   5.717  11.939 -0.3196 -0.8967 -1.2483
14051TIP3   OH263567   3.395   1.872   4.343  0.2971 -0.1781  0.4558
14051TIP3    H163568   3.323   1.912   4.392  0.2605 -0.3870  0.5725
14051TIP3    H263569   3.372   1.779   4.337  0.9079 -0.3883  1.1295
14052TIP3   OH263570   2.846   5.442  11.986 -0.7175  0.0736 -0.6251
14052TIP3    H163571   2.850   5.462  12.080  1.7348  0.7852 -0.8191
14052TIP3    H263572   2.832   5.527  11.944 -2.0821 -0.2776 -0.9344
14053TIP3   OH263573   1.316   3.672  12.577 -0.4729 -0.0135 -0.4851
14053TIP3    H163574   1.253   3.708  12.515 -1.6680 -1.9960 -0.4846
14053TIP3    H263575   1.325   3.580  12.552 -0.4731 -0.7029  1.8640
14054TIP3   OH263576   5.310   2.817   0.994 -0.7200 -0.2475  0.2729
14054TIP3    H163577   5.339   2.895   0.946 -0.5320 -0.5531 -0.1101
14054TIP3    H263578   5.220   2.837   1.019 -0.2105  0.6824  1.4268
14055TIP3   OH263579   4.934   3.647   3.902 -0.0064 -0.1857  0.0819
14055TIP3    H163580   4.866   3.623   3.965 -1.4580  1.0543 -0.9309
14055TIP3    H263581   5.012   3.663   3.955 -1.5237  2.1947  1.7690
14056TIP3   OH263582   0.617   4.712  14.294  0.3196  0.7255 -0.3912
14056TIP3    H163583   0.645   4.802  14.308 -0.8509  0.8738  1.2098
14056TIP3    H263584   0.550   4.696  14.360  2.3512 -2.1641  1.2188
14057TIP3   OH263585   0.622   1.338   2.986 -0.2391  0.8952 -0.2016
14057TIP3    H163586   0.640   1.298   3.071 -0.1774  0.8960 -0.2142
14057TIP3    H263587   0.699   1.393   2.970  0.2945 -0.0185 -0.8101
14058TIP3   OH263588   2.704   5.998  13.267 -0.1684 -0.1745  0.2487
14058TIP3    H163589   2.787   6.004  13.220 -0.4777 -0.5796 -0.3655
14058TIP3    H263590   2.667   5.915  13.238 -0.8958  0.1121  0.3505
14059TIP3   OH263591   4.696   2.653   1.568  0.5010 -0.7977 -0.2472
14059TIP3    H163592   4.607   2.664   1.602  0.5334 -0.1152 -0.3733
14059TIP3    H263593   4.684   2.606   1.485  0.1880 -0.1053 -0.6091
14060TIP3   OH263594   2.316   3.363   4.123  0.2169 -0.5606  0.0501
14060TIP3    H163595   2.279   3.393   4.040  0.1685 -0.9061 -0.0532
14060TIP3    H263596   2.247   3.379   4.188  0.2260 -0.3635  0.0117
14061TIP3   OH263597   0.604   1.190  15.433 -0.2899 -0.9396 -0.7218
14061TIP3    H163598   0.659   1.195  15.355 -1.2556 -1.6585 -1.4819
14061TIP3    H263599   0.604   1.097  15.456  1.7226 -0.5031  1.4688
14062TIP3   OH263600   6.208   5.433   4.732  0.6373  0.1030 -0.3355
14062TIP3    H163601   6.235   5.438   4.824  0.4945 -0.5416 -0.2591
14062TIP3    H263602   6.149   5.508   4.721 -0.3952 -0.5580  0.4585
14063TIP3   OH263603   4.969   0.708  10.939  0.2078  0.2098  0.0782
14063TIP3    H163604   5.023   0.631  10.923  1.3772  1.0902 -0.2839
14063TIP3    H263605   4.934   0.731  10.853 -2.9584 -1.8692  0.6210
14064TIP3   OH263606   3.905   0.822   2.663 -0.1970  0.3430 -0.1291
14064TIP3    H163607   3.986   0.849   2.621  0.3416 -0.1556  0.5711
14064TIP3    H263608   3.926   0.738   2.705 -0.8342  0.6119  0.7674
14065TIP3   OH263609   5.805   2.047   4.048 -0.1429 -0.1634  0.5959
14065TIP3    H163610   5.900   2.050   4.058 -0.1369 -0.4747  0.6429
14065TIP3    H263611   5.790   2.047   3.954 -0.1210  0.5377  0.5874
14066TIP3   OH263612   6.321   6.543   6.194  0.5194 -0.3449  0.3424
14066TIP3    H163613   6.407   6.565   6.158  1.4808 -0.8761  2.1449
14066TIP3    H263614   6.331   6.451   6.222 -0.5890 -0.3646  0.6987
14067TIP3   OH263615   0.594   0.026   2.858 -0.1520 -0.3686 -0.0531
14067TIP3    H163616   0.623  -0.066   2.859  1.9757  0.1233  4.0006
14067TIP3    H263617   0.668   0.073   2.820 -0.7177 -0.1556 -0.9188
14068TIP3   OH263618   1.589   3.630  13.725  0.4866 -0.1259 -0.1765
14068TIP3    H163619   1.546   3.633  13.639  0.6505 -2.3061 -0.4038
14068TIP3    H263620   1.633   3.714  13.733 -0.8122  0.7450 -1.5376
14069TIP3   OH263621   1.410   5.874  11.149  0.2077  0.2043 -0.5678
14069TIP3    H163622   1.500   5.889  11.121  0.6395 -0.3867  0.4375
14069TIP3    H263623   1.356   5.913  11.080  1.2082 -0.7637 -1.9397
14070TIP3   OH263624   0.178   2.961   2.507 -0.8211 -0.4069  0.2548
14070TIP3    H163625   0.225   2.955   2.424  0.8984  0.1749  1.1564
14070TIP3    H263626   0.110   3.026   2.492 -0.0821  0.2027 -0.5033
14071TIP3   OH263627   3.760   1.928   2.693  0.1682  0.6520 -0.0442
14071TIP3    H163628   3.707   2.002   2.723 -0.4734  0.2172 -0.0939
14071TIP3    H263629   3.739   1.919   2.600 -1.0856 -0.6626  0.3256
14072TIP3   OH263630   2.834   0.985  16.007  0.1685 -0.1507 -0.9914
14072TIP3    H163631   2.809   1.062  16.059 -2.0031 -2.6164  1.9484
14072TIP3    H263632   2.928   0.977  16.019 -0.0484  0.2475  1.4463
14073TIP3   OH263633   2.198   3.915  10.943  0.0914 -0.0601  0.4483
14073TIP3    H163634   2.109   3.943  10.963  0.3029  0.7268  0.3220
14073TIP3    H263635   2.206   3.927  10.848  0.0133 -1.0857  0.2976
14074TIP3   OH263636   1.844   0.734  14.452  0.2026  0.4054 -0.5343
14074TIP3    H163637   1.836   0.690  14.367 -2.3385  0.6841 -0.4955
14074TIP3    H263638   1.812   0.823  14.437  0.1288  0.5941  0.6100
14075TIP3   OH263639   5.467   2.812   4.933  0.5857 -0.4768 -0.3715
14075TIP3    H163640   5.476   2.846   5.022 -0.9484 -0.9396  0.0015
14075TIP3    H263641   5.553   2.776   4.912  1.4295  1.0654  0.2861
14076TIP3   OH263642   1.376   3.684  15.761  0.0305 -0.2142  0.1176
14076TIP3    H163643   1.425   3.621  15.708 -1.1659 -0.1603 -1.1129
14076TIP3    H263644   1.411   3.674  15.849 -0.4201 -2.9378  0.0705
14077TIP3   OH263645   1.076   1.539   4.474  0.3422 -0.0227  1.0310
14077TIP3    H163646   0.986   1.505   4.473  0.0643  0.5687  2.7381
14077TIP3    H263647   1.128   1.467   4.509  0.1979  0.3215  1.9741
14078TIP3   OH263648   4.924   3.477   2.175 -0.3865  0.1750  0.0088
14078TIP3    H163649   4.950   3.461   2.084 -0.6695  1.1603 -0.2563
14078TIP3    H263650   4.841   3.429   2.185 -0.6155  0.4735 -0.4101
14079TIP3   OH263651   1.459   3.653  16.028  0.4150 -0.1033  0.1860
14079TIP3    H163652   1.397   3.610  16.087 -0.8913  1.2256 -0.1611
14079TIP3    H263653   1.485   3.733  16.075  1.5829 -0.4489  0.1563
14080TIP3   OH263654   6.570   1.736   4.632  0.8269 -0.8419  0.3748
14080TIP3    H163655   6.520   1.810   4.597  0.8599 -0.3895  1.2622
14080TIP3    H263656   6.578   1.676   4.558  2.2911  0.7985 -0.8730
14081TIP3   OH263657   2.077   1.284  12.253 -0.1131  0.4383  0.0898
14081TIP3    H163658   2.032   1.366  12.275 -0.7674  0.2422 -0.5028
14081TIP3    H263659   2.164   1.312  12.224 -0.0058  0.8527  0.7705
14082TIP3   OH263660   0.658   2.790   4.610  0.3178  0.6699  0.2373
14082TIP3    H163661   0.564   2.785   4.627  0.0435  1.4188 -0.9450
14082TIP3    H263662   0.667   2.856   4.541  1.4326 -1.1961 -1.5428
14083TIP3   OH263663   0.797   3.270  15.263  0.0448 -0.1857 -0.0037
14083TIP3    H163664   0.859   3.197  15.262  0.4908  0.1213  1.7481
14083TIP3    H263665   0.795   3.301  15.172  3.0381  0.2375 -0.0364
14084TIP3   OH263666   6.426   0.264  13.424  0.7000  0.2848  0.4530
14084TIP3    H163667   6.376   0.248  13.504  0.5067  1.0884  0.5005
14084TIP3    H263668   6.378   0.333  13.378  1.0681  0.1669 -0.1298
14085TIP3   OH263669   2.302   6.212  12.510 -0.0068  0.1940 -0.7554
14085TIP3    H163670   2.339   6.281  12.455  3.3697 -1.0269 -0.3153
14085TIP3    H263671   2.304   6.249  12.599  1.0994 -0.1622 -0.6171
14086TIP3   OH263672   6.434   3.210  11.932 -0.6304 -0.1891  0.2889
14086TIP3    H163673   6.358   3.182  11.983  0.9646 -1.3453  2.1665
14086TIP3    H263674   6.482   3.129  11.914  0.5807  0.5970 -0.1646
14087TIP3   OH263675   4.876   5.217   0.009  0.5814  0.6615 -0.0853
14087TIP3    H163676   4.784   5.190   0.005  1.0414 -0.8597 -1.2787
14087TIP3    H263677   4.881   5.294  -0.048 -0.5896  3.0183  2.7361
14088TIP3   OH263678   3.687   3.962  17.087  0.3466 -0.5333 -0.4388
14088TIP3    H163679   3.631   4.016  17.031  0.3097  1.6257  1.4992
14088TIP3    H263680   3.629   3.935  17.158  0.8389 -1.5970 -0.4369
14089TIP3   OH263681   2.970   0.138  13.336 -0.3366 -0.0393 -0.1506
14089TIP3    H163682   2.939   0.073  13.399  3.0415 -1.9876 -0.2452
14089TIP3    H263683   2.979   0.089  13.254  2.3896  0.3661 -0.2042
14090TIP3   OH263684   6.543   5.125  14.338 -0.3515  0.7271 -0.3741
14090TIP3    H163685   6.585   5.132  14.252 -1.1800 -0.9394 -0.9632
14090TIP3    H263686   6.499   5.040  14.336 -0.7024  0.8272  1.5776
14091TIP3   OH263687   5.696   4.819   4.348 -0.2509 -0.0965 -0.4074
14091TIP3    H163688   5.716   4.842   4.439 -2.3795  0.5005 -0.0222
14091TIP3    H263689   5.745   4.882   4.296  0.5465 -0.0836  0.3351
14092TIP3   OH263690   5.575   3.267   5.197 -0.1123  0.1621  0.1841
14092TIP3    H163691   5.489   3.224   5.193 -1.3870  2.5959 -1.7693
14092TIP3    H263692   5.599   3.264   5.289 -2.2069 -0.8156  0.7657
14093TIP3   OH263693   4.289   3.851  15.662 -0.6709 -0.2456 -0.3181
14093TIP3    H163694   4.230   3.790  15.618  0.7470 -0.8522 -1.4443
14093TIP3    H263695   4.335   3.798  15.727  0.3047 -0.3123 -1.0516
14094TIP3   OH263696   0.591   1.643  16.794  0.7158 -0.2948  0.6108
14094TIP3    H163697   0.520   1.708  16.801  0.5183 -0.4684  0.2347
14094TIP3    H263698   0.665   1.691  16.759  0.6700 -0.1994  0.6445
14095TIP3   OH263699   6.150   0.307   1.300 -0.2055 -0.2653  0.0002
14095TIP3    H163700   6.089   0.359   1.353  0.2771 -0.9305  1.2554
14095TIP3    H263701   6.236   0.344   1.320 -0.0284 -0.4529 -0.4125
14096TIP3   OH263702   4.118   5.484   0.947 -0.2945 -0.4655  0.3196
14096TIP3    H163703   4.144   5.576   0.940  1.2878 -0.7355  1.7010
14096TIP3    H263704   4.027   5.487   0.977  0.1178  0.7033  1.6010
14097TIP3   OH263705   3.367   4.724  10.550  0.2787  0.4408 -0.7153
14097TIP3    H163706   3.446   4.704  10.601 -0.2199 -0.6429 -0.3330
14097TIP3    H263707   3.296   4.684  10.599 -0.3443  0.2475 -1.7398
14098TIP3   OH263708   1.371   0.187  14.330 -0.1862  0.1650 -0.7047
14098TIP3    H163709   1.363   0.161  14.422 -1.9635 -1.9346 -1.3575
14098TIP3    H263710   1.280   0.201  14.301  0.4157  2.0267 -1.8556
14099TIP3   OH263711   2.430   1.291   3.508  0.0122  0.0394  1.0605
14099TIP3    H163712   2.423   1.209   3.459 -0.2244  0.7281 -0.1116
14099TIP3    H263713   2.401   1.358   3.445  2.8677  1.3696  1.0311
14100TIP3   OH263714   3.710   5.382  14.589 -0.3148  0.2895 -0.3975
14100TIP3    H163715   3.725   5.347  14.501  0.4045  0.2624 -0.2712
14100TIP3    H263716   3.736   5.310  14.647 -0.8631  0.2787 -0.1607
14101TIP3   OH263717   1.270   2.791  16.666 -0.1323  0.0255 -0.4828
14101TIP3    H163718   1.322   2.834  16.599  1.1192  1.2826  1.1932
14101TIP3    H263719   1.188   2.842  16.670  0.3419  0.7799 -0.1664
14102TIP3   OH263720   3.178   3.106   6.678  0.3814 -0.1086 -0.2545
14102TIP3    H163721   3.213   3.021   6.706 -0.5729 -0.4244  0.0249
14102TIP3    H263722   3.256   3.160   6.661  1.0247 -0.1615  2.1629
14103TIP3   OH263723   1.297   0.202  11.838  0.6502  0.0669 -0.4872
14103TIP3    H163724   1.320   0.289  11.806 -0.3508  0.7222  0.4951
14103TIP3    H263725   1.202   0.203  11.846  0.5139 -1.4966 -1.4699
14104TIP3   OH263726   0.663   6.544   5.134  0.1908  0.2174 -0.3824
14104TIP3    H163727   0.678   6.588   5.050  1.4524 -1.0629 -0.8485
14104TIP3    H263728   0.664   6.615   5.199  1.2232  0.9956 -1.2278
14105TIP3   OH263729   6.645   1.788   4.269 -0.5877 -0.0630  0.0676
14105TIP3    H163730   6.606   1.804   4.183 -1.4085  0.1163  0.4615
14105TIP3    H263731   6.717   1.727   4.252 -0.3572  0.4447 -0.8255
14106TIP3   OH263732   6.234   1.474  15.980 -0.0397 -0.5153 -0.2446
14106TIP3    H163733   6.261   1.403  15.922 -1.3211 -1.9813  0.8633
14106TIP3    H263734   6.140   1.461  15.992  0.0177  0.3037  1.4055
14107TIP3   OH263735   6.294   5.424   2.789 -0.6284 -0.2334  0.1129
14107TIP3    H163736   6.241   5.502   2.806 -0.3734  0.6004 -2.5826
14107TIP3    H263737   6.270   5.396   2.701  1.5040 -1.4072 -0.1805
14108TIP3   OH263738   1.108   1.049   0.714  0.2780  0.0780  0.3674
14108TIP3    H163739   1.091   1.138   0.744 -1.6973  0.0202 -0.3882
14108TIP3    H263740   1.183   1.056   0.655  1.7969  0.7781  2.3049
14109TIP3   OH263741   0.874   0.170   0.685 -0.1692 -0.3538 -0.5118
14109TIP3    H163742   0.963   0.203   0.694 -0.3889  0.4445 -1.1724
14109TIP3    H263743   0.818   0.243   0.711 -0.6666 -1.6804  2.6823
14110TIP3   OH263744   5.800   4.653  14.047  0.1705 -0.2528  0.1846
14110TIP3    H163745   5.725   4.595  14.057  0.9461 -0.9274  2.8270
14110TIP3    H263746   5.849   4.644  14.129  2.5803  0.9690 -1.0051
14111TIP3   OH263747   2.415   1.119  10.978 -0.0698 -0.0191  0.2821
14111TIP3    H163748   2.413   1.215  10.976 -0.3099 -0.0179 -1.4136
14111TIP3    H263749   2.503   1.097  11.008 -0.0721  0.7296  0.8598
14112TIP3   OH263750   0.836   1.993  13.773 -0.3452 -0.1887  0.1992
14112TIP3    H163751   0.876   1.963  13.854  0.3585  1.4081  0.4772
14112TIP3    H263752   0.791   2.074  13.797 -2.9613 -1.3857 -0.3116
14113TIP3   OH263753   4.697   1.434   1.098  0.1094  0.4186 -0.3467
14113TIP3    H163754   4.672   1.435   1.190 -1.3695  1.6595 -0.7124
14113TIP3    H263755   4.786   1.399   1.097 -1.2752 -3.8641  1.1633
14114TIP3   OH263756   4.592   6.759   4.311  0.3215  0.5535  0.3389
14114TIP3    H163757   4.555   6.839   4.348  0.5961  0.1055  1.6326
14114TIP3    H263758   4.607   6.702   4.387  0.1502 -0.7203 -0.5485
14115TIP3   OH263759   2.232   0.737   1.716 -0.2480 -0.1943 -0.1153
14115TIP3    H163760   2.163   0.802   1.726  0.3140  0.5613 -0.9610
14115TIP3    H263761   2.187   0.653   1.717 -1.1449  0.2782 -0.4491
14116TIP3   OH263762   0.951   3.307   5.962  0.2547 -0.6141 -0.0463
14116TIP3    H163763   0.984   3.230   6.009  0.7978 -0.9739 -0.9945
14116TIP3    H263764   1.030   3.358   5.942 -0.0832  0.0875  0.3873
14117TIP3   OH263765   5.703   2.106   4.648 -0.2625 -0.2880 -0.2029
14117TIP3    H163766   5.610   2.082   4.655 -0.0559 -1.2713 -0.6639
14117TIP3    H263767   5.737   2.092   4.736 -1.1064  2.6918  0.7040
14118TIP3   OH263768   5.260   3.086   4.206  0.1563  0.5859  0.3600
14118TIP3    H163769   5.218   3.118   4.286 -0.4208  0.4855  0.1045
14118TIP3    H263770   5.200   3.020   4.172  0.7307  0.1305  0.2069
14119TIP3   OH263771   6.776   2.752  13.422 -0.1082  0.3261 -0.4714
14119TIP3    H163772   6.728   2.677  13.457 -0.1103  0.7692  0.5080
14119TIP3    H263773   6.841   2.773  13.489  0.7633  0.3950 -1.3191
14120TIP3   OH263774   3.228   1.941   5.419 -0.4575  0.9796  0.1390
14120TIP3    H163775   3.265   1.856   5.445 -1.1209 -0.2008 -2.4400
14120TIP3    H263776   3.232   1.994   5.499  0.4929 -1.2728  1.7067
14121TIP3   OH263777   2.604   2.266  12.486 -0.0624 -0.4291  0.2734
14121TIP3    H163778   2.698   2.249  12.486  0.0709  0.2131 -1.3760
14121TIP3    H263779   2.566   2.189  12.443 -0.1423  0.0382 -0.4932
14122TIP3   OH263780   5.595   6.604  13.335 -0.5283  0.3317 -0.1283
14122TIP3    H163781   5.620   6.597  13.243  0.1648 -1.2048  0.1406
14122TIP3    H263782   5.632   6.526  13.376  1.2342  2.1086  1.9346
14123TIP3   OH263783   5.076   2.099   2.595  0.1366 -0.0698 -0.3146
14123TIP3    H163784   5.003   2.162   2.599 -0.0287 -0.2421 -0.5848
14123TIP3    H263785   5.056   2.035   2.663 -1.3801 -1.6134 -2.0786
14124TIP3   OH263786   0.490   1.652   2.633 -0.1366 -0.2047  0.4440
14124TIP3    H163787   0.528   1.683   2.550 -0.6262 -0.0215  0.2869
14124TIP3    H263788   0.566   1.621   2.683  0.1046 -0.8926 -0.3115
14125TIP3   OH263789   6.693   3.532   1.954  0.2661  0.8346 -0.2703
14125TIP3    H163790   6.763   3.571   2.005 -0.4365  2.3235 -0.3857
14125TIP3    H263791   6.671   3.598   1.889 -0.8316  0.1592 -0.6161
14126TIP3   OH263792   0.505   3.014  14.852 -0.1455 -0.8229 -0.3817
14126TIP3    H163793   0.521   3.090  14.796 -2.5144 -0.7745 -1.1006
14126TIP3    H263794   0.416   3.027  14.885  0.8564 -1.2000  2.8943
14127TIP3   OH263795   1.380   3.721   1.552 -0.3611 -0.2451 -0.3464
14127TIP3    H163796   1.297   3.680   1.528  0.5627 -1.2913 -1.9546
14127TIP3    H263797   1.365   3.757   1.639 -2.8500  0.6430 -1.0747
14128TIP3   OH263798   4.902   0.779  16.328 -1.0215 -0.8476  0.3952
14128TIP3    H163799   4.963   0.843  16.363 -1.3199  0.2786 -1.0472
14128TIP3    H263800   4.857   0.744  16.405  0.0248 -0.2534  1.3063
14129TIP3   OH263801   5.400   3.765  14.597 -0.0906 -0.4453  0.9010
14129TIP3    H163802   5.304   3.764  14.593 -0.0478  0.2214 -0.8197
14129TIP3    H263803   5.425   3.673  14.584 -0.4621 -0.3998 -0.2179
14130TIP3   OH263804   0.033   4.827  16.850  0.4796 -0.0493  0.6243
14130TIP3    H163805   0.023   4.778  16.769  1.8057 -1.2106  1.1398
14130TIP3    H263806   0.116   4.798  16.887 -0.2208  0.2409  2.5572
14131TIP3   OH263807   5.789   4.315  10.872  0.0047  0.0651 -0.0186
14131TIP3    H163808   5.795   4.379  10.943 -0.0407 -0.5764  0.5675
14131TIP3    H263809   5.880   4.297  10.848  0.0931 -0.9720  1.0253
14132TIP3   OH263810   3.699   2.532  12.809 -0.0532 -0.0284  0.0005
14132TIP3    H163811   3.793   2.545  12.813 -0.1791  1.9473 -1.4189
14132TIP3    H263812   3.684   2.496  12.721 -0.7112  1.0012 -0.3222
14133TIP3   OH263813   0.461   1.098   4.893 -0.5486 -0.0973 -0.0816
14133TIP3    H163814   0.452   1.174   4.834 -0.3479  0.1949  0.2626
14133TIP3    H263815   0.545   1.059   4.868  0.7640  1.4674  1.6519
14134TIP3   OH263816   2.771   0.375  12.606 -0.5071  0.6661  1.3495
14134TIP3    H163817   2.775   0.455  12.658 -3.1788  0.8508  1.3943
14134TIP3    H263818   2.743   0.404  12.519  0.7771 -0.0033  0.6873
14135TIP3   OH263819   1.990   5.222  10.941  0.2054 -0.5244  0.1147
14135TIP3    H163820   1.980   5.131  10.913 -0.7377 -0.1862 -0.7250
14135TIP3    H263821   2.055   5.219  11.011  0.0477 -1.8678  0.2301
14136TIP3   OH263822   4.563   4.113   5.085  0.4915  0.2536  0.4054
14136TIP3    H163823   4.625   4.186   5.085  0.0429  0.6489  1.4181
14136TIP3    H263824   4.477   4.154   5.077  0.3340 -0.2860 -0.8895
14137TIP3   OH263825   2.031   2.835   0.529  0.1210  0.1764  0.1895
14137TIP3    H163826   2.079   2.776   0.587  0.4009  0.5943  0.3869
14137TIP3    H263827   1.998   2.904   0.587 -2.9562 -1.4071  0.5468
14138TIP3   OH263828   6.526   3.517   3.707 -0.3690  0.3481  0.0984
14138TIP3    H163829   6.464   3.557   3.646 -0.8108 -1.0526 -0.4164
14138TIP3    H263830   6.603   3.498   3.653  0.2393  1.3813  0.5663
14139TIP3   OH263831   4.619   1.153  16.839 -0.0235  0.1773  0.8736
14139TIP3    H163832   4.700   1.104  16.832 -0.3443 -0.1207 -2.1899
14139TIP3    H263833   4.584   1.130  16.925  1.4674 -2.3658  0.8972
14140TIP3   OH263834   1.871   5.087  17.017  0.4618  0.2985 -0.1117
14140TIP3    H163835   1.900   5.176  17.038  0.6216  0.2768 -0.2299
14140TIP3    H263836   1.943   5.051  16.964  0.4268  0.0766 -0.0089
14141TIP3   OH263837   0.142   1.655  15.637 -0.4641 -0.1574  0.2328
14141TIP3    H163838   0.081   1.626  15.569 -0.7492 -0.7008  0.7122
14141TIP3    H263839   0.205   1.583  15.644 -0.2706  0.0248  0.3387
14142TIP3   OH263840   1.594   5.766   1.665  0.5657  0.0884  0.1241
14142TIP3    H163841   1.503   5.769   1.635  0.5307  1.0512  0.2944
14142TIP3    H263842   1.610   5.853   1.701  0.9337 -0.6855  1.9594
14143TIP3   OH263843   6.050   3.501  13.494  0.3002  0.5247 -0.0965
14143TIP3    H163844   6.040   3.596  13.494 -0.2315  0.5002 -2.1141
14143TIP3    H263845   6.047   3.475  13.402  1.9106 -1.3131  0.2896
14144TIP3   OH263846   6.347   6.201   2.479  0.2836  0.1982  0.2622
14144TIP3    H163847   6.314   6.291   2.479 -0.3306  0.0333 -1.4420
14144TIP3    H263848   6.368   6.184   2.387  0.9962 -1.1912  0.6563
14145TIP3   OH263849   5.111   2.863   2.729 -0.1461  0.4088  0.0197
14145TIP3    H163850   5.169   2.916   2.783  0.9171  0.0364 -0.7359
14145TIP3    H263851   5.161   2.783   2.711 -0.8480  0.1213 -0.7256
14146TIP3   OH263852   5.804   3.297  13.389  0.5552  0.3202  0.1620
14146TIP3    H163853   5.898   3.314  13.395  0.7968 -0.0787 -1.8569
14146TIP3    H263854   5.785   3.239  13.463  2.7586 -3.0000 -1.6450
14147TIP3   OH263855   1.578   3.488   1.089 -0.3541 -0.0107  0.5204
14147TIP3    H163856   1.663   3.451   1.111  0.1318  0.9498  0.3362
14147TIP3    H263857   1.544   3.520   1.173 -1.6336 -2.4883  1.0306
14148TIP3   OH263858   3.677   4.851  15.422 -0.1566 -0.5182  0.0177
14148TIP3    H163859   3.686   4.762  15.456 -0.8138 -0.8546 -0.6476
14148TIP3    H263860   3.588   4.877  15.446 -0.8580 -0.9875 -1.8699
14149TIP3   OH263861   6.522   2.553   2.665  0.1671 -0.1020  0.0776
14149TIP3    H163862   6.496   2.480   2.720  1.6437 -0.2980  0.5471
14149TIP3    H263863   6.440   2.597   2.643 -0.4758  0.0059  2.4526
14150TIP3   OH263864   3.026   3.513  14.087  0.3795  0.6800 -0.0250
14150TIP3    H163865   2.973   3.460  14.029  0.0263  1.7644 -0.7289
14150TIP3    H263866   2.996   3.603  14.072  1.7145  1.2104  0.3084
14151TIP3   OH263867   0.116   4.422  15.406 -0.2715 -0.2769 -0.4803
14151TIP3    H163868   0.105   4.508  15.366 -0.1487 -1.1127 -2.3782
14151TIP3    H263869   0.032   4.378  15.391 -1.4237  0.3789  2.9276
14152TIP3   OH263870   3.821   0.012  14.429  0.0416 -0.0588 -0.2995
14152TIP3    H163871   3.805  -0.077  14.461  2.6739 -0.3319  0.4815
14152TIP3    H263872   3.755   0.024  14.361 -0.1965 -2.7728 -0.6947
14153TIP3   OH263873   3.531   6.249  13.686  0.0772  0.1892 -0.0657
14153TIP3    H163874   3.609   6.249  13.741 -0.4563  0.2314  0.6958
14153TIP3    H263875   3.513   6.342  13.672  2.6729  0.3577 -3.9033
14154TIP3   OH263876   3.010   0.373   6.603 -0.3378 -0.4674 -0.2830
14154TIP3    H163877   3.041   0.320   6.530  0.3726 -2.1472  1.1609
14154TIP3    H263878   3.088   0.386   6.658 -0.7377  1.1941 -0.0530
14155TIP3   OH263879   3.852   4.399   1.152 -0.3806  0.0749 -0.4521
14155TIP3    H163880   3.944   4.383   1.172 -0.8810  0.2710  2.3452
14155TIP3    H263881   3.807   4.317   1.174 -1.1167  0.6429  0.2237
14156TIP3   OH263882   6.234   0.337   6.362 -0.0441 -0.3756 -0.6742
14156TIP3    H163883   6.193   0.251   6.367 -1.3886  0.3181  1.3962
14156TIP3    H263884   6.166   0.394   6.326  0.1390  0.2050 -0.1149
14157TIP3   OH263885   1.069   1.096  13.996  0.1810  0.1745  0.2244
14157TIP3    H163886   1.142   1.037  14.018 -0.8111 -0.6280  1.4974
14157TIP3    H263887   0.993   1.057  14.038 -0.7260  1.7910  0.1614
14158TIP3   OH263888   0.565   5.237  13.787 -0.7301 -0.0205 -0.2030
14158TIP3    H163889   0.476   5.256  13.816 -0.5178  1.2990 -0.3663
14158TIP3    H263890   0.567   5.266  13.696 -1.1423 -3.3361 -1.4032
14159TIP3   OH263891   0.304   2.244  11.955 -0.4424  0.5830  0.3423
14159TIP3    H163892   0.355   2.163  11.962 -0.9493  0.3097  1.0044
14159TIP3    H263893   0.353   2.298  11.893 -0.9145 -0.8562 -1.3646
14160TIP3   OH263894   2.726   6.254   0.234  0.0959  0.1178 -0.1432
14160TIP3    H163895   2.666   6.193   0.276 -0.1493  0.6624  0.3190
14160TIP3    H263896   2.670   6.323   0.199  0.4234  0.4826  0.0412
14161TIP3   OH263897   4.609   4.452  12.887  0.6046  0.3967 -0.3438
14161TIP3    H163898   4.646   4.396  12.955  1.6778 -0.4334 -1.5668
14161TIP3    H263899   4.527   4.485  12.925  1.4241  0.3818  1.5290
14162TIP3   OH263900   6.505   2.453  16.941 -0.2443 -0.1786  0.3526
14162TIP3    H163901   6.512   2.375  16.887  0.0480  0.7197 -0.9485
14162TIP3    H263902   6.588   2.499  16.926 -1.9050  2.3350 -2.0653
14163TIP3   OH263903   6.038   0.868   4.424 -0.6728 -0.0915 -0.0640
14163TIP3    H163904   6.064   0.840   4.511  2.1148  0.3447 -0.6487
14163TIP3    H263905   6.009   0.788   4.380  0.7594 -0.8976  0.3785
14164TIP3   OH263906   2.254   4.282   4.655 -0.3201  0.2978  0.9959
14164TIP3    H163907   2.257   4.206   4.713 -0.5334 -0.1681  0.3972
14164TIP3    H263908   2.291   4.252   4.572 -2.7548  0.0880 -0.0928
14165TIP3   OH263909   0.901   2.978   0.580 -0.0296 -0.0218  0.0175
14165TIP3    H163910   0.980   2.928   0.602 -0.0914  0.0516  0.4210
14165TIP3    H263911   0.932   3.068   0.572  0.2791 -0.2593 -1.7904
14166TIP3   OH263912   3.644   6.713   5.159  0.6225  0.1566  0.1112
14166TIP3    H163913   3.677   6.655   5.090 -0.0942 -1.7903  1.3203
14166TIP3    H263914   3.715   6.715   5.224  0.5018  0.3361  0.2362
14167TIP3   OH263915   2.351   4.551  13.695 -0.5829 -0.7888 -0.0604
14167TIP3    H163916   2.332   4.645  13.700 -0.5827 -0.8235  0.7429
14167TIP3    H263917   2.286   4.517  13.634 -1.8863 -0.5893  1.1663
14168TIP3   OH263918   1.515   6.162   0.798 -0.0179 -0.0197  0.0068
14168TIP3    H163919   1.502   6.072   0.769 -2.5292  0.7648 -1.4913
14168TIP3    H263920   1.478   6.216   0.729  0.2331  2.1509  1.4755
14169TIP3   OH263921   3.223   0.010   4.254  0.0440  0.0326  0.1536
14169TIP3    H163922   3.212  -0.083   4.239  1.7631 -0.2250  0.2632
14169TIP3    H263923   3.210   0.022   4.348 -0.8801  0.0353  0.0330
14170TIP3   OH263924   0.019   5.866   4.228  0.0927  0.3621  0.8638
14170TIP3    H163925   0.030   5.959   4.208 -0.2236  0.3896  0.8157
14170TIP3    H263926   0.108   5.832   4.235  0.2403  0.2318 -1.1442
14171TIP3   OH263927   4.523   1.943  12.762 -1.0660 -0.5666  0.1315
14171TIP3    H163928   4.554   2.004  12.695 -0.6633 -0.9662 -0.0566
14171TIP3    H263929   4.428   1.941  12.752 -1.0650 -0.0925  0.0354
14172TIP3   OH263930   3.376   2.638  16.473  0.2145  0.4360  0.0899
14172TIP3    H163931   3.286   2.607  16.458  0.4620 -1.2095  1.7128
14172TIP3    H263932   3.369   2.690  16.553  0.6127  0.8457 -0.1405
14173TIP3   OH263933   5.846   3.478  12.179  0.3294  0.2590  0.5849
14173TIP3    H163934   5.930   3.485  12.135  0.9521  1.6937  1.9500
14173TIP3    H263935   5.856   3.405  12.240 -0.4289 -1.5128 -1.2725
14174TIP3   OH263936   4.609   3.381  15.054 -0.1239  0.1285  0.6871
14174TIP3    H163937   4.704   3.369  15.055  0.0690  0.7691 -2.2184
14174TIP3    H263938   4.574   3.292  15.050  0.5186 -0.0770 -1.2877
14175TIP3   OH263939   1.029   4.051  14.329 -0.5236 -0.2125  0.1203
14175TIP3    H163940   1.054   3.970  14.284  0.6684 -1.4467  2.7884
14175TIP3    H263941   1.088   4.056  14.404 -0.9754  2.8603  0.3973
14176TIP3   OH263942   4.564   6.648  14.033 -0.1878 -0.6797 -0.6991
14176TIP3    H163943   4.518   6.567  14.055  0.1328 -1.1044 -1.5609
14176TIP3    H263944   4.638   6.620  13.979  0.1362  0.1565 -0.7032
14177TIP3   OH263945   1.219   0.987   2.849 -0.1933 -0.7557 -0.2079
14177TIP3    H163946   1.260   0.908   2.885 -0.0632 -0.6368 -0.0927
14177TIP3    H263947   1.158   0.954   2.783 -0.2640 -0.9613 -0.0419
14178TIP3   OH263948   1.641   3.238  12.197 -0.2466 -0.2869 -0.1994
14178TIP3    H163949   1.579   3.236  12.125  0.4742 -0.1473 -0.8431
14178TIP3    H263950   1.677   3.149  12.200  0.8711  0.1126 -1.0597
14179TIP3   OH263951   6.288   0.368  17.146  0.1261  0.0688 -0.1476
14179TIP3    H163952   6.243   0.396  17.226 -1.5702 -1.6383 -0.4346
14179TIP3    H263953   6.310   0.450  17.101 -0.6345  1.0148  1.1257
14180TIP3   OH263954   5.257   4.990  11.694 -0.5172 -0.7329  0.1596
14180TIP3    H163955   5.230   4.898  11.692 -0.3492 -0.8069  0.9688
14180TIP3    H263956   5.352   4.988  11.697 -0.5187 -0.5322  0.3456
14181TIP3   OH263957   1.601   3.198  16.808 -0.3974  0.4105  0.2122
14181TIP3    H163958   1.631   3.165  16.893  0.7908  0.9590  0.0265
14181TIP3    H263959   1.514   3.159  16.797 -0.3940 -0.0218  1.4753
14182TIP3   OH263960   4.840   3.257   4.322 -0.2784 -0.2957  0.5463
14182TIP3    H163961   4.771   3.194   4.301  0.8867 -1.5498  0.3601
14182TIP3    H263962   4.800   3.315   4.387 -1.4189 -1.1582  0.6492
14183TIP3   OH263963   5.443   2.965  16.255 -0.1076  0.4574  0.5767
14183TIP3    H163964   5.526   2.920  16.270  0.9564  2.2815  0.5443
14183TIP3    H263965   5.453   3.004  16.168 -0.3048  2.0508  1.2271
14184TIP3   OH263966   5.800   5.661   2.541 -0.9447 -0.4314  0.6736
14184TIP3    H163967   5.789   5.713   2.621 -0.1388 -0.3698  0.7523
14184TIP3    H263968   5.851   5.585   2.570  1.0052  0.5075 -0.1264
14185TIP3   OH263969   6.039   3.482   4.252 -0.0136  0.5264 -0.0832
14185TIP3    H163970   6.006   3.464   4.164 -0.7533  0.1737  0.2530
14185TIP3    H263971   6.124   3.439   4.256  0.4509  1.3282 -0.9254
14186TIP3   OH263972   1.660   3.189  15.420 -0.0460  0.0730 -0.1301
14186TIP3    H163973   1.667   3.146  15.335  1.9530 -2.6223  1.2330
14186TIP3    H263974   1.679   3.281  15.402 -0.0395 -0.3500 -2.6352
14187TIP3   OH263975   1.681   6.342   4.040 -0.3203 -0.8354 -0.0318
14187TIP3    H163976   1.775   6.350   4.060 -0.3692 -0.7002  0.1455
14187TIP3    H263977   1.650   6.274   4.099 -0.5655 -0.1010  0.7046
14188TIP3   OH263978   3.200   3.723   4.965 -0.0742  0.3368 -0.0474
14188TIP3    H163979   3.133   3.727   5.033 -0.9167  0.3119 -0.8569
14188TIP3    H263980   3.172   3.652   4.908 -0.4213  1.5616 -1.4763
14189TIP3   OH263981   0.694   3.643  15.514  0.5806  0.3782 -0.2009
14189TIP3    H163982   0.671   3.577  15.449  0.1794  0.1921  0.1270
14189TIP3    H263983   0.714   3.721  15.462 -2.7935  1.2036 -0.4918
14190TIP3   OH263984   0.033   0.333  13.896  0.3756  0.1399 -0.0059
14190TIP3    H163985   0.032   0.242  13.924 -0.5837  0.6898  1.9319
14190TIP3    H263986   0.105   0.339  13.834 -1.9964 -2.8186 -3.4544
14191TIP3   OH263987   2.644   5.922  15.645  0.0208  0.1680 -0.2067
14191TIP3    H163988   2.691   6.005  15.646 -0.6959  0.5737  1.0668
14191TIP3    H263989   2.696   5.866  15.587  0.6263  1.4208 -0.9132
14192TIP3   OH263990   2.104   5.772   3.166  0.2045  0.3314 -0.2780
14192TIP3    H163991   2.149   5.725   3.096  0.4981 -1.3640  0.9951
14192TIP3    H263992   2.011   5.763   3.145  0.3209  0.6972 -0.9714
14193TIP3   OH263993   4.586   2.305   5.914  0.1619  0.3679  0.2222
14193TIP3    H163994   4.604   2.341   5.827  0.0905  1.4080  0.6243
14193TIP3    H263995   4.653   2.343   5.971 -0.1776  0.2085  0.7457
14194TIP3   OH263996   3.522   5.799  16.758 -0.1566 -0.1637 -0.3557
14194TIP3    H163997   3.557   5.726  16.707 -0.5550  0.0147 -0.8871
14194TIP3    H263998   3.428   5.784  16.761 -0.0446 -0.6932  1.1603
14195TIP3   OH263999   0.810   1.622   1.988 -0.0138  0.0353  0.0813
14195TIP3    H164000   0.800   1.533   2.022 -1.6030 -0.6422 -1.9752
14195TIP3    H264001   0.724   1.662   1.999  0.4460  1.0259  0.1724
14196TIP3   OH264002   6.381   4.879  15.127 -0.2796 -0.4897  0.0022
14196TIP3    H164003   6.389   4.974  15.116 -1.8792  0.0804  2.8870
14196TIP3    H264004   6.300   4.856  15.082 -1.1056 -0.0338  1.1991
14197TIP3   OH264005   2.549   0.375   4.896  0.0884 -0.4256  0.2452
14197TIP3    H164006   2.520   0.311   4.961 -0.5314 -0.9737 -0.5492
14197TIP3    H264007   2.488   0.448   4.906 -0.6807 -0.9520 -0.4073
14198TIP3   OH264008   4.387   4.787  11.853  0.1390  0.3091  0.4494
14198TIP3    H164009   4.470   4.781  11.806 -1.8618  0.7245 -3.5763
14198TIP3    H264010   4.358   4.877  11.840 -2.2287 -0.5494 -0.8459
14199TIP3   OH264011   1.375   1.925   1.775  0.5245  0.2932 -0.0918
14199TIP3    H164012   1.325   1.964   1.847 -1.1570  1.8717 -1.9965
14199TIP3    H264013   1.313   1.866   1.732  0.9904  0.5442 -1.1524
14200TIP3   OH264014   2.699   0.994  15.526 -0.8455 -0.1571  0.0359
14200TIP3    H164015   2.737   1.057  15.588  1.4847 -0.3734 -1.0420
14200TIP3    H264016   2.657   0.929  15.582  1.4383 -0.5186  1.4899
14201TIP3   OH264017   2.176   1.099  16.061  0.0758 -0.0659  0.8926
14201TIP3    H164018   2.080   1.089  16.063  0.1029 -0.3188  0.8789
14201TIP3    H264019   2.189   1.194  16.053 -0.1882 -0.1517 -1.0287
14202TIP3   OH264020   6.222   5.694  14.855 -0.4556  0.1469  0.2501
14202TIP3    H164021   6.140   5.647  14.839 -0.5256  0.1886  0.4843
14202TIP3    H264022   6.290   5.635  14.823 -0.6461  0.6452 -1.1415
14203TIP3   OH264023   2.815   6.088   5.615  0.4325  0.2112  0.3877
14203TIP3    H164024   2.856   6.156   5.562  0.1644 -0.6693 -1.0009
14203TIP3    H264025   2.889   6.043   5.657  0.6553  0.8446  0.6884
14204TIP3   OH264026   4.107   3.927  14.806 -0.5904 -0.1110 -0.1377
14204TIP3    H164027   4.027   3.961  14.766 -1.0519  0.2283  1.0428
14204TIP3    H264028   4.176   3.986  14.774 -1.0712  0.6526  0.2097
14205TIP3   OH264029   0.554   6.332   0.936 -0.0669  0.2166 -0.1092
14205TIP3    H164030   0.596   6.413   0.906  0.6244 -0.5101 -1.1616
14205TIP3    H264031   0.608   6.303   1.009  1.1829 -0.5820 -1.3003
14206TIP3   OH264032   6.229   3.203   6.117 -0.0260 -0.2110  0.0581
14206TIP3    H164033   6.306   3.187   6.063 -0.3542 -1.0804 -0.1711
14206TIP3    H264034   6.244   3.153   6.197  0.0140  0.2811  0.3630
14207TIP3   OH264035   6.122   2.530  15.702  0.2265 -0.2026 -0.0224
14207TIP3    H164036   6.080   2.616  15.710 -2.4493 -1.4880  1.2074
14207TIP3    H264037   6.205   2.540  15.748 -0.1630  1.6322  0.3731
14208TIP3   OH264038   4.661   4.146  16.001  1.2178 -0.0369 -0.0361
14208TIP3    H164039   4.688   4.059  16.030  0.9795  0.0139  0.3369
14208TIP3    H264040   4.735   4.203  16.026  0.5268  0.2123  1.5718
14209TIP3   OH264041   0.125   1.931  11.064  0.6898 -0.0374 -0.0634
14209TIP3    H164042   0.132   1.840  11.094 -0.4807  0.7465  2.9410
14209TIP3    H264043   0.181   1.934  10.986  1.2377 -3.1611  0.0426
14210TIP3   OH264044   1.174   4.353  16.163 -0.8551  0.0753  0.3221
14210TIP3    H164045   1.168   4.438  16.120 -1.2667 -0.0578  0.1095
14210TIP3    H264046   1.268   4.339  16.175 -0.5596 -0.7812 -2.3410
14211TIP3   OH264047   2.694   1.028   0.781  0.3420 -0.0294  0.1068
14211TIP3    H164048   2.702   0.940   0.817  1.2415 -0.3511 -0.8252
14211TIP3    H264049   2.630   1.019   0.710  0.8082 -0.0656 -0.3228
14212TIP3   OH264050   0.087   2.437  17.161  0.6619  0.3179 -0.0833
14212TIP3    H164051   0.129   2.398  17.238  0.3045  0.2793  0.0927
14212TIP3    H264052   0.122   2.526  17.157  0.0750  0.5919  0.5987
14213TIP3   OH264053   6.797   6.138  15.581 -0.9191 -0.1014 -0.4402
14213TIP3    H164054   6.793   6.061  15.525  0.0492  0.5130 -1.3944
14213TIP3    H264055   6.887   6.170  15.573 -0.8587  0.2536  1.1476
14214TIP3   OH264056   3.250   1.717  13.488  0.3504  0.2330  0.4879
14214TIP3    H164057   3.225   1.790  13.545 -1.3236 -0.2180  0.3774
14214TIP3    H264058   3.323   1.675  13.533 -0.2692  0.5011  1.7730
14215TIP3   OH264059   2.574   3.170  16.775 -0.0634 -0.5207 -0.2267
14215TIP3    H164060   2.584   3.109  16.702 -0.2061 -0.9440  0.1008
14215TIP3    H264061   2.550   3.114  16.849  1.0921 -0.2296  0.3842
14216TIP3   OH264062   5.786   5.226   6.531  0.3407 -0.0467 -0.1338
14216TIP3    H164063   5.745   5.143   6.506 -1.0910  0.4926  0.2695
14216TIP3    H264064   5.713   5.288   6.533  1.3199  1.1440 -0.0583
14217TIP3   OH264065   4.440   3.729  16.894 -0.3548  0.3860 -0.4266
14217TIP3    H164066   4.480   3.751  16.978 -0.7036 -0.2520 -0.0828
14217TIP3    H264067   4.368   3.791  16.885 -0.9283 -0.1690  0.2232
14218TIP3   OH264068   0.633   0.153   4.558  0.5169 -0.1769 -0.2606
14218TIP3    H164069   0.565   0.220   4.564  0.4336 -0.0289 -2.1648
14218TIP3    H264070   0.584   0.072   4.540  0.8042  0.2958 -4.0360
14219TIP3   OH264071   6.030   1.902  15.754  0.0767 -0.4883  0.1943
14219TIP3    H164072   6.048   1.917  15.661 -2.5412  0.0186 -0.2953
14219TIP3    H264073   6.058   1.811  15.769 -2.1473 -1.6423 -1.9039
14220TIP3   OH264074   0.274   5.802   1.357 -0.2025  0.1398  0.2415
14220TIP3    H164075   0.208   5.777   1.292 -0.5169 -1.9910  1.2878
14220TIP3    H264076   0.352   5.752   1.332  0.2042  0.6431  0.5001
14221TIP3   OH264077   0.003   4.627   0.588  0.1878 -0.3267  0.1211
14221TIP3    H164078  -0.053   4.549   0.585  0.7683 -0.7555  0.2543
14221TIP3    H264079   0.043   4.631   0.501  1.3862 -1.1078  0.6065
14222TIP3   OH264080   2.337   1.302  16.798  0.3881 -0.6439  0.4661
14222TIP3    H164081   2.369   1.300  16.708  2.0796 -1.6492  1.0565
14222TIP3    H264082   2.330   1.395  16.819 -1.5285 -0.3395 -1.1609
14223TIP3   OH264083   0.159   2.728  12.543 -0.5240  0.3067  0.5935
14223TIP3    H164084   0.189   2.717  12.453  2.0790  0.2012  1.4165
14223TIP3    H264085   0.063   2.721  12.537 -0.4016 -0.0517 -2.0834
14224TIP3   OH264086   5.637   6.005   2.833  0.0010 -0.0151  0.4856
14224TIP3    H164087   5.682   6.065   2.774 -2.0944  0.5360 -0.6396
14224TIP3    H264088   5.677   5.920   2.816 -1.0604 -0.0268 -2.3605
14225TIP3   OH264089   5.288   5.246  11.369 -0.1998  0.7813  0.2049
14225TIP3    H164090   5.375   5.255  11.408  0.1786 -0.3571 -0.3572
14225TIP3    H264091   5.239   5.190  11.430 -0.1108  0.3168 -0.1456
14226TIP3   OH264092   6.681   2.097   4.077  0.4305 -0.3175 -0.1438
14226TIP3    H164093   6.605   2.101   4.018  0.2223 -1.7175 -0.0046
14226TIP3    H264094   6.643   2.093   4.165  0.7013 -0.0445 -0.0113
14227TIP3   OH264095   0.659   5.778   3.509  0.2453  0.2486  0.3178
14227TIP3    H164096   0.666   5.697   3.459 -0.9737  0.6356 -0.5209
14227TIP3    H264097   0.647   5.750   3.600  3.7433 -0.4677  0.7000
14228TIP3   OH264098   5.481   1.329   5.732 -0.1793 -0.2810  0.1832
14228TIP3    H164099   5.467   1.405   5.789 -0.8724 -1.3938  1.5620
14228TIP3    H264100   5.576   1.316   5.734 -0.2216 -0.5411  1.4543
14229TIP3   OH264101   3.156   2.140  16.271  0.3143  0.1570  0.1624
14229TIP3    H164102   3.100   2.136  16.194 -0.1243 -0.2879  0.4948
14229TIP3    H264103   3.229   2.196  16.246  1.0041 -1.2484 -1.1002
14230TIP3   OH264104   6.483   1.611  15.965  0.3715 -0.7993 -0.0961
14230TIP3    H164105   6.548   1.569  15.909 -1.0541  0.1597 -2.6461
14230TIP3    H264106   6.404   1.557  15.955 -0.4737  0.4913 -0.6399
14231TIP3   OH264107   6.625   5.482  16.157 -0.0131  0.1203 -0.0089
14231TIP3    H164108   6.567   5.553  16.185 -0.3287  0.1063 -0.6194
14231TIP3    H264109   6.644   5.501  16.065 -0.3817 -0.7743 -0.2803
14232TIP3   OH264110   5.384   3.115   5.116 -0.5403  0.3042 -0.0556
14232TIP3    H164111   5.342   3.082   5.036 -2.5481 -0.1158  1.1039
14232TIP3    H264112   5.354   3.055   5.184  1.8797  0.0992  0.9169
14233TIP3   OH264113   2.835   3.162  15.663 -0.4230  0.4106 -0.0464
14233TIP3    H164114   2.855   3.255  15.670  0.9665  0.2671 -1.5549
14233TIP3    H264115   2.920   3.119  15.660 -0.9145 -0.5735 -3.0726
14234TIP3   OH264116   2.231   0.064  14.828 -0.0630  0.2221 -0.3821
14234TIP3    H164117   2.261   0.129  14.892 -0.8489 -0.6460  0.9128
14234TIP3    H264118   2.200   0.116  14.754 -2.0956  1.4506  1.2218
14235TIP3   OH264119   5.433   5.051   3.310  0.7299 -0.1365 -0.0780
14235TIP3    H164120   5.527   5.065   3.296  0.4620  0.3353 -1.6655
14235TIP3    H264121   5.392   5.079   3.228 -0.9920  1.6115  1.2629
14236TIP3   OH264122   6.552   4.852  13.198  0.0328  0.2644 -0.1626
14236TIP3    H164123   6.539   4.758  13.187 -0.2112  0.3217 -0.3866
14236TIP3    H264124   6.497   4.891  13.131 -0.9208  0.6147  0.7970
14237TIP3   OH264125   3.915   3.328   0.147 -0.5619  0.0320 -0.2396
14237TIP3    H164126   3.948   3.398   0.091  0.8038 -1.8283 -1.8964
14237TIP3    H264127   3.994   3.282   0.176 -1.3554 -0.1341  1.8125
14238TIP3   OH264128   0.034   2.970  17.130 -0.3975  0.2979  0.4016
14238TIP3    H164129  -0.021   3.046  17.112 -0.2318  0.4697  0.6129
14238TIP3    H264130  -0.025   2.906  17.169 -0.6161  0.1782 -0.1128
14239TIP3   OH264131   5.213   5.434   5.654  0.7279  0.2959 -0.3605
14239TIP3    H164132   5.161   5.508   5.621  1.0134  1.0229  0.7410
14239TIP3    H264133   5.148   5.375   5.692  0.5103  0.0524 -1.0956
14240TIP3   OH264134   3.681   6.222   2.420  0.2973 -0.2747  0.0225
14240TIP3    H164135   3.766   6.251   2.387  0.4380  1.4245  1.6927
14240TIP3    H264136   3.636   6.303   2.444 -1.1381 -1.2327  0.7057
14241TIP3   OH264137   0.447   1.428  12.765 -0.3846  0.0137 -0.1735
14241TIP3    H164138   0.424   1.442  12.857 -3.2044 -0.5895 -0.7082
14241TIP3    H264139   0.475   1.336  12.761 -0.2993  0.0288  0.0698
14242TIP3   OH264140   4.611   6.486  14.565  0.1497  0.3719  0.3847
14242TIP3    H164141   4.699   6.516  14.588 -0.4791  1.8776  0.9386
14242TIP3    H264142   4.611   6.484  14.469  0.5829  1.0263  0.3620
14243TIP3   OH264143   0.658   5.175  17.126 -0.0295 -0.4099  0.0397
14243TIP3    H164144   0.639   5.126  17.046  0.8934 -0.7551  0.0163
14243TIP3    H264145   0.613   5.126  17.195 -3.1337  1.3712 -0.5508
14244TIP3   OH264146   5.217   5.800  12.662 -0.3137  0.0962 -0.1394
14244TIP3    H164147   5.241   5.773  12.573 -0.2942  0.5616 -0.2783
14244TIP3    H264148   5.282   5.757  12.718 -0.5501 -0.4999 -0.3135
14245TIP3   OH264149   6.104   0.728   0.768 -0.0612  0.2843  0.6306
14245TIP3    H164150   6.191   0.767   0.767  1.0260 -1.9730  0.7768
14245TIP3    H264151   6.072   0.741   0.857 -0.3676  2.0865  0.2785
14246TIP3   OH264152   6.669   2.582  12.253 -0.2084  0.0900  0.2001
14246TIP3    H164153   6.632   2.506  12.208  1.4411 -0.2215 -0.7158
14246TIP3    H264154   6.656   2.654  12.192 -1.3865  0.4634  0.8838
14247TIP3   OH264155   2.729   5.695   2.595  0.2950 -0.0625  0.4179
14247TIP3    H164156   2.661   5.628   2.589  1.7393 -1.4864 -0.5253
14247TIP3    H264157   2.769   5.682   2.681 -0.4702  0.6795  0.9102
14248TIP3   OH264158   6.275   2.719   1.176 -0.3589  0.1621  0.5817
14248TIP3    H164159   6.361   2.677   1.169 -0.7657 -0.5799 -0.1579
14248TIP3    H264160   6.271   2.778   1.101 -0.3247  0.5231  0.8620
14249TIP3   OH264161   0.738   0.506   6.493  0.3618  0.0654  0.4256
14249TIP3    H164162   0.708   0.457   6.569  1.0758  0.2833  0.8576
14249TIP3    H264163   0.777   0.440   6.435 -1.6693 -0.3591 -0.5501
14250TIP3   OH264164   3.562   0.481   5.531 -0.1944  0.1550 -0.2749
14250TIP3    H164165   3.651   0.449   5.515 -0.3921  0.2118 -1.5813
14250TIP3    H264166   3.572   0.549   5.597  0.6995  0.0309 -0.2711
14251TIP3   OH264167   6.725   4.780   5.154 -0.0690  0.2964 -0.3038
14251TIP3    H164168   6.679   4.717   5.210 -1.2875  1.4845  0.0802
14251TIP3    H264169   6.804   4.801   5.204 -0.5109  0.3763  0.3776
14252TIP3   OH264170   2.396   4.583  10.621  0.1553 -0.8014 -0.2385
14252TIP3    H164171   2.436   4.501  10.650 -1.7674 -0.9683  2.3107
14252TIP3    H264172   2.430   4.649  10.681 -1.5091 -0.5410  0.4652
14253TIP3   OH264173   2.886   4.485  14.258  0.5136 -0.5072  0.9362
14253TIP3    H164174   2.934   4.545  14.315 -1.1017 -1.2336  3.2440
14253TIP3    H264175   2.817   4.538  14.220 -1.0672 -0.7972  3.1692
14254TIP3   OH264176   5.128   2.236   1.809 -0.0384 -0.2144 -0.2633
14254TIP3    H164177   5.218   2.206   1.796  0.2101  0.4456 -0.1036
14254TIP3    H264178   5.129   2.327   1.781 -0.3381  0.1856  0.9383
14255TIP3   OH264179   5.842   5.969  15.725  0.6028 -0.3097 -0.5457
14255TIP3    H164180   5.803   6.036  15.668  0.1035 -0.6608 -0.6262
14255TIP3    H264181   5.810   5.991  15.812  2.0115  0.7015 -0.2587
14256TIP3   OH264182   6.749   0.983   2.692 -0.1487  0.1450  0.4100
14256TIP3    H164183   6.688   1.056   2.681  0.6533  1.0001  1.4447
14256TIP3    H264184   6.835   1.021   2.673  0.4445 -0.1311  2.3641
14257TIP3   OH264185   4.503   5.756   0.439  0.2392  0.1641 -0.0590
14257TIP3    H164186   4.568   5.781   0.373 -0.2212 -0.4949 -0.7782
14257TIP3    H264187   4.419   5.759   0.393  0.2017 -3.5310 -0.5234
14258TIP3   OH264188   4.146   5.433   2.539  0.6069 -0.1785 -0.1594
14258TIP3    H164189   4.196   5.387   2.607  1.4094  0.9554  0.0422
14258TIP3    H264190   4.210   5.449   2.469  0.6968  1.7586  0.3247
14259TIP3   OH264191   4.107   5.605   4.312 -0.0939 -0.5621  0.6906
14259TIP3    H164192   4.030   5.656   4.340 -0.3094 -0.4059 -0.1566
14259TIP3    H264193   4.116   5.538   4.379 -0.5113 -0.1169  1.2111
14260TIP3   OH264194   4.838   5.717  15.385 -0.0769 -0.2170  0.0744
14260TIP3    H164195   4.931   5.740  15.393 -0.2164  0.0112  1.2722
14260TIP3    H264196   4.831   5.633  15.431 -0.4022 -0.3876 -0.2923
14261TIP3   OH264197   4.773   2.334   6.132  0.4682  0.4204 -0.0188
14261TIP3    H164198   4.850   2.303   6.085  1.2999  1.0360  0.8939
14261TIP3    H264199   4.808   2.397   6.196 -0.8886  1.3752 -0.1811
14262TIP3   OH264200   4.696   5.058   2.163  0.0374 -0.6328  0.1547
14262TIP3    H164201   4.701   4.978   2.215  0.0802  0.2581  1.6013
14262TIP3    H264202   4.604   5.083   2.165  0.2999  0.4115  1.4924
14263TIP3   OH264203   2.385   5.812   6.773 -0.1336  0.0627 -0.3824
14263TIP3    H164204   2.345   5.798   6.687 -0.8053  2.1404 -0.4606
14263TIP3    H264205   2.386   5.907   6.784  1.3622 -0.0835  1.2628
14264TIP3   OH264206   2.358   0.828  13.810  0.6458  0.6679  0.2164
14264TIP3    H164207   2.329   0.862  13.895 -1.0389 -0.0201 -0.0337
14264TIP3    H264208   2.376   0.735  13.827 -1.4805  0.0585 -0.4899
14265TIP3   OH264209   1.730   6.682  15.021 -0.8246  0.1128  0.0197
14265TIP3    H164210   1.801   6.741  14.998  0.7105 -1.2042  1.1063
14265TIP3    H264211   1.756   6.598  14.982 -2.2107 -0.1968 -0.2691
14266TIP3   OH264212   3.175   6.023  12.426 -0.1446  0.2099  0.2038
14266TIP3    H164213   3.173   5.984  12.338 -1.5295  0.1925  0.2233
14266TIP3    H264214   3.198   6.114  12.411  0.8636 -0.0720 -0.0482
14267TIP3   OH264215   6.511   1.584  16.245 -0.3138  0.1791  0.1041
14267TIP3    H164216   6.541   1.661  16.294  2.0083 -0.5490 -0.0826
14267TIP3    H264217   6.532   1.603  16.154  0.8263 -0.8774  0.1200
14268TIP3   OH264218   5.275   2.456  14.901 -0.2780 -0.0747  0.5330
14268TIP3    H164219   5.235   2.411  14.976 -1.6518  1.8141  1.0202
14268TIP3    H264220   5.232   2.417  14.824 -1.6138  0.5112  0.9532
14269TIP3   OH264221   5.380   3.242   1.262  0.2893  0.5659 -0.1843
14269TIP3    H164222   5.299   3.290   1.276 -2.0072 -2.6261 -1.1477
14269TIP3    H264223   5.414   3.276   1.180 -1.1773  0.6885 -0.7784
14270TIP3   OH264224   6.732   0.018   0.031  0.2615 -0.5827  0.1764
14270TIP3    H164225   6.793   0.090   0.014  1.5776 -1.3403  1.4277
14270TIP3    H264226   6.732   0.009   0.126  0.4396 -2.4780  0.0407
14271TIP3   OH264227   5.564   4.141   3.184  0.0482  0.2376  0.2492
14271TIP3    H164228   5.488   4.139   3.126  0.4554  2.1230 -0.4299
14271TIP3    H264229   5.530   4.175   3.267  0.0544  0.5792  0.1114
14272TIP3   OH264230   0.816   3.084  14.241  0.2115 -0.1414  0.8559
14272TIP3    H164231   0.850   3.170  14.264 -0.4587  0.4050 -0.1410
14272TIP3    H264232   0.722   3.090  14.258 -0.1659 -0.0094 -1.0398
14273TIP3   OH264233   0.647   5.154  11.648  0.2877  0.5272 -0.2314
14273TIP3    H164234   0.687   5.125  11.566  2.7060  0.7053  0.8037
14273TIP3    H264235   0.587   5.224  11.621 -1.0221 -1.1748 -2.0881
14274TIP3   OH264236   4.888   1.148   4.330  0.1196  0.5711  0.1086
14274TIP3    H164237   4.947   1.162   4.404  0.6396 -0.7276 -0.0348
14274TIP3    H264238   4.825   1.219   4.336  1.5502  1.8701  0.4142
14275TIP3   OH264239   2.207   3.533   0.568  0.3419 -0.3982 -0.1719
14275TIP3    H164240   2.208   3.464   0.635  1.3998  0.7792  1.0692
14275TIP3    H264241   2.279   3.509   0.508  1.2904  0.0647  0.7501
14276TIP3   OH264242   3.455   2.033   5.958  0.0415 -0.0725 -0.3544
14276TIP3    H164243   3.522   2.014   6.024  0.4002  1.0559 -0.3791
14276TIP3    H264244   3.377   1.988   5.990  0.8790 -1.7738 -0.5283
14277TIP3   OH264245   1.043   1.713  11.513  0.1134 -0.5022 -0.0574
14277TIP3    H164246   1.090   1.708  11.596  1.5156  1.4052 -0.6651
14277TIP3    H264247   0.967   1.768  11.531  0.8028  0.5068 -0.1740
14278TIP3   OH264248   6.652   3.362   5.705 -0.1555 -0.1370  0.1002
14278TIP3    H164249   6.664   3.362   5.610  1.0847  0.0722  0.2353
14278TIP3    H264250   6.712   3.294   5.736  0.8195  1.0154  0.8598
14279TIP3   OH264251   4.150   4.381  14.589 -0.2412 -0.5354  0.0191
14279TIP3    H164252   4.090   4.358  14.661 -1.3190 -0.7032 -0.9085
14279TIP3    H264253   4.144   4.307  14.528 -0.3444  0.1910 -0.8700
14280TIP3   OH264254   5.284   4.927  15.246 -0.3865  0.5317 -0.4635
14280TIP3    H164255   5.371   4.930  15.286 -0.6422  1.8762  0.0782
14280TIP3    H264256   5.228   4.970  15.311 -0.9960  1.9067 -1.8389
14281TIP3   OH264257   2.565   4.009   2.292 -0.4259  0.1515  0.2299
14281TIP3    H164258   2.614   3.964   2.361 -0.7709  0.3726  0.6238
14281TIP3    H264259   2.474   3.983   2.306 -0.3946 -0.5069 -0.6895
14282TIP3   OH264260   3.504   3.921   3.948 -0.2258  0.5007 -0.2846
14282TIP3    H164261   3.455   3.964   3.878 -1.5720 -0.4842  0.0069
14282TIP3    H264262   3.550   3.992   3.993  0.0009  1.2470 -1.6411
14283TIP3   OH264263   5.944   5.314   2.199 -0.0017  0.7175 -0.4611
14283TIP3    H164264   5.886   5.312   2.275  1.4198 -0.4582  0.6739
14283TIP3    H264265   6.029   5.340   2.235  0.7069  0.1303 -1.6462
14284TIP3   OH264266   3.136   4.223  12.320 -0.5077 -0.2810 -0.0332
14284TIP3    H164267   3.095   4.292  12.372 -0.1109  0.4089 -0.6142
14284TIP3    H264268   3.174   4.163  12.385 -0.1075  0.5110  0.4752
14285TIP3   OH264269   5.273   1.549   4.116 -0.3488  0.0269  0.5271
14285TIP3    H164270   5.280   1.584   4.027  0.5519 -2.1049 -0.3020
14285TIP3    H264271   5.354   1.577   4.159 -0.1978 -0.0036  0.2669
14286TIP3   OH264272   2.910   1.238  13.787 -0.0477  0.6548  0.5705
14286TIP3    H164273   2.843   1.244  13.855 -1.1506 -1.4450 -0.2701
14286TIP3    H264274   2.863   1.244  13.705  1.0096  0.8414 -0.0446
14287TIP3   OH264275   1.102   5.739   2.814 -0.1041 -0.0795 -0.0940
14287TIP3    H164276   1.112   5.656   2.862 -0.1701 -0.4424 -0.6932
14287TIP3    H264277   1.056   5.714   2.734 -1.3824  0.7771  0.3614
14288TIP3   OH264278   2.725   0.854  16.307 -0.2026  0.1571 -0.4529
14288TIP3    H164279   2.655   0.790  16.324 -0.6363  0.1843 -1.9614
14288TIP3    H264280   2.787   0.807  16.251  0.8848  0.2194  0.6581
14289TIP3   OH264281   2.351   6.342   3.209  0.2036  0.2557 -0.3307
14289TIP3    H164282   2.322   6.279   3.276  0.8282  0.9005  0.5630
14289TIP3    H264283   2.430   6.381   3.245 -0.8051  2.4415 -0.2908
14290TIP3   OH264284   3.629   4.092  15.156 -0.2153 -0.1906  0.3212
14290TIP3    H164285   3.701   4.094  15.219 -0.4900  0.6908  0.6197
14290TIP3    H264286   3.606   4.184  15.143 -0.8809 -0.4279 -0.2395
14291TIP3   OH264287   3.365   3.183  13.388 -0.0317 -0.4790 -0.6363
14291TIP3    H164288   3.378   3.266  13.341 -1.9650  0.0387 -0.3015
14291TIP3    H264289   3.365   3.207  13.480 -2.1305 -0.5747 -0.5715
14292TIP3   OH264290   5.879   5.433  13.605 -0.3091  0.5932 -0.0771
14292TIP3    H164291   5.876   5.398  13.516 -0.7760  0.8574 -0.1696
14292TIP3    H264292   5.891   5.527  13.594 -2.1770  0.8945  0.0623
14293TIP3   OH264293   4.962   1.642  10.537 -0.3692 -0.2490 -0.1457
14293TIP3    H164294   4.964   1.687  10.622  0.2565  1.1761 -0.8639
14293TIP3    H264295   5.029   1.574  10.544  1.3324  1.3361 -0.2156
14294TIP3   OH264296   0.831   5.374  11.701 -0.1070 -0.0172 -0.1537
14294TIP3    H164297   0.905   5.418  11.744 -0.0861  0.9741 -1.1367
14294TIP3    H264298   0.836   5.404  11.610 -1.9268  0.3566 -0.1613
14295TIP3   OH264299   6.002   1.331   4.526  0.2007 -0.3513  0.4503
14295TIP3    H164300   6.022   1.310   4.435  0.3765 -0.0500  0.4174
14295TIP3    H264301   6.030   1.254   4.575 -1.6990 -1.3421  0.0663
14296TIP3   OH264302   3.419   5.476  11.806  0.1449  0.4316  0.1208
14296TIP3    H164303   3.327   5.458  11.826  0.0523  1.7725  1.0564
14296TIP3    H264304   3.452   5.520  11.884  1.1682  1.3610 -0.8005
14297TIP3   OH264305   0.994   0.203  16.948  0.1663 -0.1350  0.4919
14297TIP3    H164306   1.069   0.210  17.007 -0.6194 -2.2808  1.8762
14297TIP3    H264307   0.999   0.114  16.913 -1.6953 -0.3340  0.6066
14298TIP3   OH264308   0.315   3.875  14.742 -0.0879 -0.1236  0.6479
14298TIP3    H164309   0.228   3.849  14.710 -0.6777  2.8519 -0.4740
14298TIP3    H264310   0.299   3.903  14.832  0.0031 -0.8683  0.9038
14299TIP3   OH264311   3.067   2.090  14.557 -0.2122 -0.1775 -0.3282
14299TIP3    H164312   3.095   2.035  14.631 -0.7437 -0.4319 -0.3138
14299TIP3    H264313   3.089   2.179  14.584 -0.6065 -0.2451  0.2393
14300TIP3   OH264314   2.146   1.234  13.349 -0.0478  0.1189 -0.2741
14300TIP3    H164315   2.169   1.318  13.308  2.8893 -0.4951 -0.0683
14300TIP3    H264316   2.129   1.256  13.440 -0.5588  0.6492 -0.4884
14301TIP3   OH264317   3.099   0.014  16.575 -0.3121 -0.2234  0.0336
14301TIP3    H164318   3.189   0.008  16.606 -0.2182 -2.1622 -0.4307
14301TIP3    H264319   3.050  -0.045  16.633 -1.3847  1.1254  0.5466
14302TIP3   OH264320   2.088   1.771  11.449  0.3570 -1.0171 -0.1816
14302TIP3    H164321   2.033   1.712  11.397 -1.9357  0.0405  0.9043
14302TIP3    H264322   2.026   1.827  11.495  2.4154  1.5446 -0.3167
14303TIP3   OH264323   4.637   4.484  10.340 -0.0765  0.1643  0.2993
14303TIP3    H164324   4.717   4.469  10.390  0.6314 -1.2972 -1.2154
14303TIP3    H264325   4.567   4.470  10.404  0.7747 -2.3649  0.7830
14304TIP3   OH264326   6.070   0.250  13.326  0.2485 -0.3139 -0.4502
14304TIP3    H164327   6.099   0.191  13.395 -0.6294  0.2129  0.3873
14304TIP3    H264328   6.037   0.193  13.257  0.6589 -0.8317 -0.2229
14305TIP3   OH264329   3.293   6.763   1.754 -0.5729 -0.0694  0.8125
14305TIP3    H164330   3.248   6.779   1.837 -0.3361  0.5002  0.8337
14305TIP3    H264331   3.298   6.849   1.712 -0.0537 -0.2344  0.5291
14306TIP3   OH264332   4.162   2.575   5.354 -0.3569 -0.2168  0.3952
14306TIP3    H164333   4.218   2.620   5.291  1.6795 -0.8147  1.6748
14306TIP3    H264334   4.098   2.641   5.381  0.4393  0.8477 -0.2598
14307TIP3   OH264335   6.332   1.624   0.202  0.2113 -0.5547 -0.3032
14307TIP3    H164336   6.280   1.636   0.123  2.0814 -0.5859 -1.6156
14307TIP3    H264337   6.386   1.703   0.207 -0.3908 -0.2053  1.3935
14308TIP3   OH264338   2.427   3.565   2.081  0.6868  0.0346  0.2544
14308TIP3    H164339   2.468   3.591   1.998  1.1467 -1.3108  0.0396
14308TIP3    H264340   2.492   3.590   2.148 -0.0300  1.8819  0.3298
14309TIP3   OH264341   4.737   4.197   1.296  0.3022  0.7393 -0.7328
14309TIP3    H164342   4.690   4.194   1.380  0.7291  0.8909 -0.4842
14309TIP3    H264343   4.771   4.286   1.290 -0.1510  0.8781 -1.3095
14310TIP3   OH264344   3.330   3.352   5.519 -0.6153 -0.5288  0.0145
14310TIP3    H164345   3.413   3.359   5.472  0.2713 -0.6342  1.5180
14310TIP3    H264346   3.353   3.314   5.604 -1.6811  2.3758  1.7601
14311TIP3   OH264347   0.954   4.723  11.983  0.1611 -0.2618  0.5274
14311TIP3    H164348   0.872   4.755  11.945  0.5883  1.4047  0.9091
14311TIP3    H264349   0.943   4.628  11.989 -0.8566 -0.3132 -1.4563
14312TIP3   OH264350   2.920   4.897  14.583  0.1514  0.6180 -0.4837
14312TIP3    H164351   2.922   4.849  14.500 -0.6460 -0.0436 -0.1384
14312TIP3    H264352   2.916   4.828  14.650 -2.0875  1.1138 -0.0174
14313TIP3   OH264353   6.205   4.898  16.880 -0.1302 -0.4285  0.6223
14313TIP3    H164354   6.298   4.899  16.906  0.4861 -2.0827 -1.2738
14313TIP3    H264355   6.188   4.988  16.852  2.2063 -0.8666 -2.9065
14314TIP3   OH264356   0.265   0.366   3.688  0.4730  0.0705  0.5228
14314TIP3    H164357   0.315   0.448   3.682  1.7505 -0.6729  0.6329
14314TIP3    H264358   0.301   0.322   3.765  1.2155 -1.4855 -0.6696
14315TIP3   OH264359   1.506   5.341   2.920 -0.1542  0.3936 -0.3785
14315TIP3    H164360   1.462   5.257   2.909 -0.5037  0.3347  1.1993
14315TIP3    H264361   1.571   5.326   2.989  1.7105  0.7442 -1.9575
14316TIP3   OH264362   5.575   4.257   5.441  0.3167  0.3333 -0.2426
14316TIP3    H164363   5.485   4.225   5.442  0.1312  0.8374  0.0779
14316TIP3    H264364   5.620   4.205   5.375  0.1457 -0.8717  0.5613
14317TIP3   OH264365   4.315   0.604  14.393  0.4333  0.1987 -0.1250
14317TIP3    H164366   4.390   0.635  14.444  1.4746 -1.9238 -0.2258
14317TIP3    H264367   4.257   0.563  14.457  0.0562  0.5459 -0.2379
14318TIP3   OH264368   5.207   0.957  11.567  0.0349 -0.8568 -0.4846
14318TIP3    H164369   5.178   0.956  11.658 -1.7215 -0.5554 -0.9964
14318TIP3    H264370   5.241   0.869  11.551 -0.4133 -1.1696  0.2276
14319TIP3   OH264371   4.535   4.802   1.624 -0.1151 -0.2155 -0.3284
14319TIP3    H164372   4.550   4.709   1.644 -0.0071 -0.1427 -0.0700
14319TIP3    H264373   4.550   4.808   1.529 -0.4245 -0.5185 -0.4011
14320TIP3   OH264374   3.773   5.707  13.324  0.2203  0.2184  0.3305
14320TIP3    H164375   3.746   5.787  13.369 -2.8031 -0.2688 -0.3962
14320TIP3    H264376   3.720   5.706  13.244  1.5508 -1.6042 -0.5982
14321TIP3   OH264377   5.759   6.254  15.647  0.3294  0.2977 -0.1529
14321TIP3    H164378   5.740   6.232  15.556  0.1248 -1.0118  0.1967
14321TIP3    H264379   5.673   6.267  15.687  0.3544 -0.4370  0.1584
14322TIP3   OH264380   6.322   5.022   4.769 -0.4216 -0.3431  0.1119
14322TIP3    H164381   6.360   5.102   4.804 -0.7003  0.3203 -1.0713
14322TIP3    H264382   6.370   4.952   4.813 -1.4794  0.4041  2.6294
14323TIP3   OH264383   4.754   4.834  17.011 -0.0999 -1.1807  0.4714
14323TIP3    H164384   4.706   4.777  16.951  0.5390  0.5681 -1.8558
14323TIP3    H264385   4.722   4.922  16.992  1.9975 -0.2723  0.7988
14324TIP3   OH264386   1.450   5.853  15.590 -0.3514 -0.1868 -0.0516
14324TIP3    H164387   1.364   5.841  15.548 -0.7598  2.5583 -0.1867
14324TIP3    H264388   1.513   5.833  15.521 -0.9682  0.8045 -0.9440
14325TIP3   OH264389   3.253   3.910   3.150  0.6018 -0.9301  0.8541
14325TIP3    H164390   3.204   3.831   3.173  0.7716 -1.5293 -0.7323
14325TIP3    H264391   3.344   3.889   3.172  0.5815 -1.0198  0.8551
14326TIP3   OH264392   6.260   3.654   0.140  0.3012  0.3850 -0.6307
14326TIP3    H164393   6.285   3.741   0.109  0.6885 -0.1222 -1.7746
14326TIP3    H264394   6.178   3.635   0.094 -0.1409  0.4165  0.1322
14327TIP3   OH264395   5.663   1.450   0.077  0.2631  0.5263 -0.1460
14327TIP3    H164396   5.754   1.444   0.106 -0.3084  0.7921  1.8085
14327TIP3    H264397   5.651   1.374   0.021  1.6222  0.3632 -0.2580
14328TIP3   OH264398   1.812   0.423  13.592  0.1818  0.7967 -0.8957
14328TIP3    H164399   1.736   0.445  13.644 -0.4604 -0.9647 -0.9964
14328TIP3    H264400   1.868   0.373  13.651  1.4026  2.2870 -0.7490
14329TIP3   OH264401   2.787   2.312   5.151 -0.1772 -0.6886  0.5073
14329TIP3    H164402   2.781   2.407   5.154 -0.6703 -0.6237 -1.1962
14329TIP3    H264403   2.698   2.282   5.168 -0.2190 -0.7887  0.1362
14330TIP3   OH264404   1.108   2.950  11.203  1.0194 -0.3584 -0.1264
14330TIP3    H164405   1.130   2.912  11.118  1.4130  0.0070 -0.1907
14330TIP3    H264406   1.174   3.018  11.217  1.7862 -1.3016  1.0706
14331TIP3   OH264407   5.429   4.063   1.734 -0.1350 -0.7142 -0.1197
14331TIP3    H164408   5.362   3.997   1.754 -1.2501  0.4974  0.2624
14331TIP3    H264409   5.381   4.145   1.728  1.5361  0.5074  1.9843
14332TIP3   OH264410   4.646   0.496   3.943 -0.1347 -0.0652 -0.0516
14332TIP3    H164411   4.569   0.466   3.895  1.5223 -1.3814 -2.0742
14332TIP3    H264412   4.634   0.591   3.950 -0.1373  0.4003 -3.9471
14333TIP3   OH264413   0.083   2.592   1.050 -0.0088  0.4834 -0.1220
14333TIP3    H164414   0.162   2.570   1.002 -0.8515 -1.4973 -0.7477
14333TIP3    H264415   0.110   2.593   1.142  0.6631 -0.7833 -0.2758
14334TIP3   OH264416   6.436   2.438   5.588 -0.1208 -0.1460 -0.6393
14334TIP3    H164417   6.488   2.361   5.612 -0.1019 -0.0315 -0.3126
14334TIP3    H264418   6.374   2.449   5.660 -2.6282 -2.0479 -2.3375
14335TIP3   OH264419   3.468   6.542  14.428 -0.3747  0.1408  0.1221
14335TIP3    H164420   3.542   6.563  14.372  0.3794  1.6134  1.5772
14335TIP3    H264421   3.415   6.621  14.429  1.3932  1.5236  4.0284
14336TIP3   OH264422   4.137   2.679   2.040  0.4887  0.5901  0.9190
14336TIP3    H164423   4.146   2.731   1.960  2.0438  0.0589  0.7162
14336TIP3    H264424   4.047   2.695   2.069  0.0030  1.0728 -0.7394
14337TIP3   OH264425   1.607   3.503  12.262 -0.0219  0.3963  0.4307
14337TIP3    H164426   1.662   3.505  12.184 -1.1707 -2.1313 -0.5354
14337TIP3    H264427   1.572   3.414  12.265 -3.4273  1.6139  1.4165
14338TIP3   OH264428   3.300   0.810  13.239  0.5563  0.5516  0.0920
14338TIP3    H164429   3.358   0.748  13.196 -1.4770  0.5059 -2.8467
14338TIP3    H264430   3.358   0.882  13.266  2.4457 -1.0680  0.6220
14339TIP3   OH264431   3.356   1.135  12.878  0.3394  0.2324 -0.2885
14339TIP3    H164432   3.358   1.204  12.945 -1.2205 -0.2283  0.2712
14339TIP3    H264433   3.336   1.055  12.927  1.4328 -0.5150 -1.0231
14340TIP3   OH264434   6.151   5.183  11.626 -0.3560 -0.0892 -0.1783
14340TIP3    H164435   6.196   5.128  11.562 -0.3138 -0.2954  0.0288
14340TIP3    H264436   6.108   5.121  11.685  0.8093  0.0519  0.8697
14341TIP3   OH264437   1.676   4.484   0.686 -0.1047  0.2419 -0.1811
14341TIP3    H164438   1.682   4.419   0.755 -0.6757 -0.4606 -0.7787
14341TIP3    H264439   1.600   4.537   0.709  0.1648  0.4983  0.1302
14342TIP3   OH264440   0.868   4.104  10.858  1.0589 -0.2974  0.0762
14342TIP3    H164441   0.832   4.023  10.893 -0.8592  0.4992  0.0973
14342TIP3    H264442   0.886   4.158  10.935  0.3250  0.0671  0.0043
14343TIP3   OH264443   5.040   1.005   5.115 -0.2455  0.0858  0.2530
14343TIP3    H164444   5.003   0.937   5.172 -1.8916  1.0084  0.3562
14343TIP3    H264445   5.079   1.068   5.176  0.2478 -0.1872  0.2200
14344TIP3   OH264446   5.857   3.107   0.526 -0.4104 -0.2554  0.2853
14344TIP3    H164447   5.847   3.020   0.566 -0.6395 -0.8680 -1.0521
14344TIP3    H264448   5.788   3.110   0.459  0.7830  0.2062 -0.9612
14345TIP3   OH264449   4.551   6.519   0.111  0.2097 -0.1159 -0.0851
14345TIP3    H164450   4.598   6.458   0.054 -2.3188 -0.3953 -2.0603
14345TIP3    H264451   4.609   6.594   0.119  2.0981 -1.5087 -0.1712
14346TIP3   OH264452   2.569   0.710   3.052  0.2199 -0.1151 -0.1095
14346TIP3    H164453   2.596   0.634   3.103  0.9783  0.2837  0.1000
14346TIP3    H264454   2.562   0.678   2.962 -0.3221 -0.6265  0.1062
14347TIP3   OH264455   4.400   2.345   0.387 -0.0981  0.5599 -0.3359
14347TIP3    H164456   4.472   2.406   0.368 -0.0659  0.5045 -0.3920
14347TIP3    H264457   4.428   2.263   0.347 -0.6953  0.8192 -1.3184
14348TIP3   OH264458   2.332   2.965  14.143  0.0388 -0.0108  0.2979
14348TIP3    H164459   2.369   3.040  14.095 -0.4833  0.3547  0.4615
14348TIP3    H264460   2.391   2.893  14.123  1.5818  0.8316  1.5134
14349TIP3   OH264461   5.130   5.058  15.493 -0.3683 -1.0431  0.4142
14349TIP3    H164462   5.162   5.100  15.572  0.7835 -1.2157  0.0506
14349TIP3    H264463   5.035   5.052  15.506 -0.5327  1.2219  0.6798
14350TIP3   OH264464   3.427   3.926  15.261 -0.4653 -0.4177  0.3011
14350TIP3    H164465   3.435   3.833  15.237 -0.8616  0.0451 -1.8691
14350TIP3    H264466   3.501   3.968  15.217 -1.2440  0.5036 -0.1627
14351TIP3   OH264467   1.719   2.809   1.668 -0.2985 -0.6136 -0.2178
14351TIP3    H164468   1.703   2.892   1.624 -0.0870  0.0202  0.8835
14351TIP3    H264469   1.710   2.743   1.598 -2.1431  0.1628 -0.7852
14352TIP3   OH264470   5.670   5.289  13.749 -0.4089  0.5242 -0.3082
14352TIP3    H164471   5.748   5.334  13.714 -0.6129  0.7298 -0.5048
14352TIP3    H264472   5.600   5.353  13.740 -0.1055  1.3454  2.2926
14353TIP3   OH264473   0.267   3.168  13.560  0.1454 -0.1286  0.0911
14353TIP3    H164474   0.306   3.157  13.646  0.1113 -1.4235 -0.0410
14353TIP3    H264475   0.186   3.116  13.563  0.7659 -1.2229 -1.0987
14354TIP3   OH264476   1.137   5.585  13.934  0.3624 -0.1497  0.1339
14354TIP3    H164477   1.091   5.508  13.900 -0.8345 -0.3445  2.0801
14354TIP3    H264478   1.119   5.654  13.870 -0.2236 -0.9533 -0.5970
14355TIP3   OH264479   5.245   3.040  15.176  0.3177 -0.3228 -0.5250
14355TIP3    H164480   5.162   3.088  15.183  0.3947 -0.2253 -0.2542
14355TIP3    H264481   5.309   3.098  15.218  0.2911 -0.9571  0.4110
14356TIP3   OH264482   6.033   6.356   1.685 -0.3938  0.3425  0.1607
14356TIP3    H164483   6.010   6.265   1.705  0.7714  0.0775  0.3916
14356TIP3    H264484   6.085   6.385   1.760 -0.2213  0.9916 -0.1996
14357TIP3   OH264485   3.523   4.563  10.341  0.3637 -0.0656 -0.8928
14357TIP3    H164486   3.450   4.502  10.327  0.0992  0.5829 -2.5867
14357TIP3    H264487   3.491   4.624  10.407  0.1875 -1.0205 -0.0642
14358TIP3   OH264488   5.193   1.773  14.582  0.4918  0.2114 -0.9069
14358TIP3    H164489   5.199   1.681  14.556  1.9255 -0.2833  0.9559
14358TIP3    H264490   5.199   1.771  14.678 -1.6749  2.1105 -0.6445
14359TIP3   OH264491   4.431   2.737   0.804  0.4903 -0.1510  0.2534
14359TIP3    H164492   4.383   2.796   0.861 -0.3099  0.2001 -0.7656
14359TIP3    H264493   4.492   2.793   0.757  0.1571 -0.2303 -0.2718
14360TIP3   OH264494   1.044   1.716  12.030 -1.2431  0.4369  0.2102
14360TIP3    H164495   1.009   1.805  12.021 -0.2826  1.0780  2.1160
14360TIP3    H264496   1.014   1.687  12.116 -0.6022 -0.6509  0.0886
14361TIP3   OH264497   2.115   1.601   2.881  0.2355 -0.3703  0.0430
14361TIP3    H164498   2.129   1.547   2.803  2.1621 -1.7476  1.2420
14361TIP3    H264499   2.200   1.602   2.924 -0.5847  1.0042  1.7315
14362TIP3   OH264500   0.862   0.732  14.353 -0.6914  0.1064  0.2239
14362TIP3    H164501   0.802   0.749  14.425 -0.3521  0.7916  0.3585
14362TIP3    H264502   0.949   0.732  14.393 -0.4222  1.4165 -0.3045
14363TIP3   OH264503   5.677   0.854  12.998 -0.6327  0.0140 -0.1182
14363TIP3    H164504   5.616   0.912  13.042 -0.8061  1.2329 -1.8750
14363TIP3    H264505   5.624   0.779  12.970 -0.6000 -0.5647  1.3042
14364TIP3   OH264506   2.162   1.496   1.489 -1.0130 -0.8847  0.4737
14364TIP3    H164507   2.100   1.507   1.416 -0.1027 -1.5066 -0.4157
14364TIP3    H264508   2.227   1.565   1.474 -1.0613 -0.7327  0.9604
14365TIP3   OH264509   3.359   1.741   0.014 -0.8235 -0.0050 -0.2363
14365TIP3    H164510   3.288   1.705   0.066  0.2879 -1.1977  0.5336
14365TIP3    H264511   3.411   1.791   0.076 -0.6691  0.3683 -0.6626
14366TIP3   OH264512   5.450   3.550  13.145  0.1084  0.2785  0.0187
14366TIP3    H164513   5.496   3.484  13.197 -2.9041 -1.6735  0.4365
14366TIP3    H264514   5.464   3.523  13.054 -1.3918 -1.2588  0.1948
14367TIP3   OH264515   1.050   5.003   4.943  0.1616  0.3297 -0.6485
14367TIP3    H164516   1.114   5.016   5.014 -0.4193  0.9917 -0.2251
14367TIP3    H264517   0.991   4.935   4.976 -2.1933  2.9754  1.0863
14368TIP3   OH264518   5.309   0.565   3.976  0.5030 -0.6121  0.1543
14368TIP3    H164519   5.307   0.659   3.994 -0.2636 -0.7640  0.9215
14368TIP3    H264520   5.323   0.524   4.061  2.4371 -1.1590 -0.3778
14369TIP3   OH264521   0.575   0.210  13.913 -0.0686  0.7366 -0.1780
14369TIP3    H164522   0.537   0.127  13.884 -0.3807  0.6857  0.3485
14369TIP3    H264523   0.549   0.273  13.846  2.1519 -0.0108 -1.8335
14370TIP3   OH264524   5.423   6.422  11.780 -0.9068 -0.5856  0.4830
14370TIP3    H164525   5.449   6.513  11.792  1.1680 -0.9826 -0.4925
14370TIP3    H264526   5.457   6.377  11.857 -2.0131 -0.5248  1.0099
14371TIP3   OH264527   1.423   5.050  16.507  0.0369  0.4849 -0.2914
14371TIP3    H164528   1.516   5.034  16.492 -0.1605 -0.5346 -0.5065
14371TIP3    H264529   1.414   5.054  16.602  0.2122 -0.0422 -0.2482
14372TIP3   OH264530   3.393   2.608   3.628  0.5944  0.0778  0.0094
14372TIP3    H164531   3.426   2.677   3.685 -1.0131  1.7985 -1.0197
14372TIP3    H264532   3.405   2.642   3.539 -0.5024 -0.8331 -0.5173
14373TIP3   OH264533   6.186   3.426  16.015 -0.6727  0.0959 -0.0274
14373TIP3    H164534   6.267   3.454  16.058  0.0186 -0.4797 -0.9365
14373TIP3    H264535   6.214   3.367  15.945 -1.7415  1.2237 -1.4766
14374TIP3   OH264536   6.608   5.574   3.416  0.1663 -0.3254 -0.2408
14374TIP3    H164537   6.605   5.510   3.345  3.3557  0.1012 -0.9283
14374TIP3    H264538   6.623   5.658   3.372  0.4216  0.2065  0.8325
14375TIP3   OH264539   3.571   4.782  15.802 -0.5707  0.3239 -0.0058
14375TIP3    H164540   3.665   4.774  15.790 -0.6832 -1.0690 -0.1068
14375TIP3    H264541   3.557   4.772  15.897 -0.5439  1.5216  0.1380
14376TIP3   OH264542   0.675   5.963   5.444 -0.5641  0.0958 -0.8586
14376TIP3    H164543   0.620   6.040   5.432 -0.8963  0.5840  2.7183
14376TIP3    H264544   0.760   5.999   5.471  0.0159 -0.7652 -1.4880
14377TIP3   OH264545   5.070   4.787   3.626 -0.3371  0.3540 -0.5135
14377TIP3    H164546   4.981   4.764   3.651  0.1505 -0.8034  0.2259
14377TIP3    H264547   5.110   4.820   3.707  0.2685 -0.3156 -0.5280
14378TIP3   OH264548   2.227   5.435   1.758 -0.0251  0.0340  0.0077
14378TIP3    H164549   2.218   5.413   1.665 -0.2927 -0.0936  0.0635
14378TIP3    H264550   2.184   5.363   1.804 -1.4687  0.9781  0.1756
14379TIP3   OH264551   5.471   2.644   6.358  0.0911 -0.4552  0.2858
14379TIP3    H164552   5.504   2.557   6.379  0.8177 -0.4964 -0.9668
14379TIP3    H264553   5.379   2.642   6.385 -0.1295 -1.8940 -0.5083
14380TIP3   OH264554   6.763   4.163  12.533 -0.0592  0.1882 -0.2227
14380TIP3    H164555   6.776   4.068  12.530  0.2567  0.2433 -0.6564
14380TIP3    H264556   6.720   4.183  12.449 -0.5377  0.3657  0.0641
14381TIP3   OH264557   1.710   4.108   5.587  0.4360  0.1712  0.2659
14381TIP3    H164558   1.684   4.197   5.609  0.0211  0.2096 -0.3600
14381TIP3    H264559   1.769   4.082   5.657 -1.1998  0.1127  1.6873
14382TIP3   OH264560   1.319   1.023  11.471 -0.3447  0.2248 -0.2335
14382TIP3    H164561   1.410   0.994  11.462  0.2831  0.9917  2.4576
14382TIP3    H264562   1.324   1.118  11.473 -1.4986  0.3630 -2.0214
14383TIP3   OH264563   1.278   3.266  17.178 -0.0733 -0.3019  0.3676
14383TIP3    H164564   1.329   3.303  17.250 -0.8772  0.2745  0.6580
14383TIP3    H264565   1.306   3.314  17.101 -1.7093  1.5851  0.8688
14384TIP3   OH264566   4.739   6.486   3.524  0.0348 -0.0668 -0.4054
14384TIP3    H164567   4.803   6.427   3.483 -1.5604 -1.1872 -1.3882
14384TIP3    H264568   4.729   6.452   3.613  0.6694  0.0220 -0.2941
14385TIP3   OH264569   1.438   0.756  15.982  0.6491  0.0573 -0.0751
14385TIP3    H164570   1.448   0.814  15.907 -0.5635 -0.7056 -0.8609
14385TIP3    H264571   1.500   0.789  16.047  1.5534  0.8760 -1.3203
14386TIP3   OH264572   3.498   5.750   0.892 -0.4378  0.5276  0.4044
14386TIP3    H164573   3.547   5.830   0.912  0.8191 -0.0597 -0.1776
14386TIP3    H264574   3.535   5.720   0.809 -0.0761 -1.2749  1.1845
14387TIP3   OH264575   1.679   2.455  13.269 -0.6232 -0.3623  0.6036
14387TIP3    H164576   1.651   2.487  13.183  0.5225 -2.0515 -0.4808
14387TIP3    H264577   1.604   2.469  13.326 -1.1762  1.4233 -0.4941
14388TIP3   OH264578   4.806   2.601   4.293 -0.1363 -0.2811 -0.1847
14388TIP3    H164579   4.830   2.514   4.324  0.7207  0.4578  1.3161
14388TIP3    H264580   4.753   2.585   4.215 -1.8025 -2.2081  1.2379
14389TIP3   OH264581   2.407   2.443   5.459  0.7487  0.2663 -0.3915
14389TIP3    H164582   2.455   2.522   5.437  1.5216 -0.1325 -0.1755
14389TIP3    H264583   2.395   2.448   5.554 -0.7962  0.9936 -0.5954
14390TIP3   OH264584   6.228   3.447  11.401 -0.0062 -0.0712 -0.1738
14390TIP3    H164585   6.176   3.508  11.453 -0.8030 -1.0485  0.2210
14390TIP3    H264586   6.207   3.361  11.437  0.1879 -0.6855 -1.4644
14391TIP3   OH264587   6.078   6.591   3.403  0.5203 -0.0839 -0.0966
14391TIP3    H164588   6.056   6.650   3.330 -0.5619 -0.1178  0.1959
14391TIP3    H264589   6.084   6.505   3.363  0.3960 -0.0342 -0.2236
14392TIP3   OH264590   1.740   3.970   5.201  0.1421  0.5637  1.1743
14392TIP3    H164591   1.825   4.010   5.185 -0.8329  3.2792  2.2224
14392TIP3    H264592   1.730   3.906   5.131  2.9927  0.1650  0.9966
14393TIP3   OH264593   4.427   4.424  16.949  0.0485  0.3313  0.0793
14393TIP3    H164594   4.342   4.467  16.940 -0.5563 -1.0848 -1.5594
14393TIP3    H264595   4.414   4.359  17.019  0.2707  1.1491  0.9024
14394TIP3   OH264596   3.112   4.566   3.966  0.1938 -0.0548 -0.4700
14394TIP3    H164597   3.140   4.616   3.890  1.5185  0.3953  0.2794
14394TIP3    H264598   3.168   4.488   3.965 -1.4664 -1.2838 -1.3155
14395TIP3   OH264599   4.419   1.325  12.314  0.0410 -0.4023  0.2029
14395TIP3    H164600   4.478   1.261  12.274 -1.2690 -3.4906  2.6983
14395TIP3    H264601   4.344   1.329  12.255  0.5575 -0.4364 -0.4590
14396TIP3   OH264602   1.427   2.631   3.119  0.0705  0.0225 -0.3659
14396TIP3    H164603   1.398   2.613   3.030  2.5822 -0.3771 -1.1840
14396TIP3    H264604   1.498   2.569   3.134 -0.7154 -0.4003  2.2092
14397TIP3   OH264605   4.949   5.874   4.301  0.0241 -0.2620 -0.4027
14397TIP3    H164606   4.921   5.905   4.387  0.2138  0.7036 -0.6715
14397TIP3    H264607   4.940   5.779   4.305  0.6106 -0.2825  0.8864
14398TIP3   OH264608   5.081   0.910   2.328 -0.1654  0.5163  0.2428
14398TIP3    H164609   5.028   0.907   2.248  0.0797  0.1957  0.0900
14398TIP3    H264610   5.022   0.881   2.397 -0.4684  1.0896  0.2278
14399TIP3   OH264611   4.722   6.789   0.072  0.6670  0.4188  0.2282
14399TIP3    H164612   4.791   6.811   0.009  1.0630 -3.2565 -0.8650
14399TIP3    H264613   4.651   6.851   0.052  2.1625  1.7414 -1.2955
14400TIP3   OH264614   4.860   1.033  12.896 -0.0683 -0.7721 -0.0220
14400TIP3    H164615   4.812   1.009  12.975  1.4935 -0.2667  1.1313
14400TIP3    H264616   4.841   1.127  12.885 -1.0785 -1.0550 -0.8537
14401TIP3   OH264617   5.071   6.245   3.606  0.3872  0.4172  0.2842
14401TIP3    H164618   5.071   6.307   3.678  0.5613  0.4535  0.2531
14401TIP3    H264619   5.063   6.159   3.648 -0.0222  0.4695  0.3175
14402TIP3   OH264620   3.185   4.900  11.990 -0.2525  0.2212  0.1709
14402TIP3    H164621   3.112   4.930  11.936 -0.5770  0.2872  0.6437
14402TIP3    H264622   3.215   4.820  11.948 -0.8055  0.0207  0.1604
14403TIP3   OH264623   2.241   0.934  14.483  0.0397  0.5995  0.6402
14403TIP3    H164624   2.236   0.873  14.409  2.0187 -0.8353  1.6071
14403TIP3    H264625   2.200   0.887  14.556  1.6886  0.3353  1.4274
14404TIP3   OH264626   4.109   0.477  14.681 -0.0594  0.2401 -0.4213
14404TIP3    H164627   4.157   0.559  14.692 -0.6545  0.4531  0.7000
14404TIP3    H264628   4.020   0.497  14.711 -0.0327 -0.9996  0.5430
14405TIP3   OH264629   1.450   3.586   0.868  0.1608 -0.0930 -0.1490
14405TIP3    H164630   1.517   3.592   0.936  0.5647  0.7803 -0.6133
14405TIP3    H264631   1.496   3.549   0.793 -0.0666 -0.2148 -0.2269
14406TIP3   OH264632   4.820   6.284   0.583  0.1397  0.4342 -0.8547
14406TIP3    H164633   4.799   6.278   0.489  0.6492 -0.4414 -0.9302
14406TIP3    H264634   4.814   6.193   0.614  0.8377  0.5860 -0.2373
14407TIP3   OH264635   4.907   3.972  14.928  0.2719 -0.0565  0.9171
14407TIP3    H164636   4.900   4.064  14.953  0.8935  1.0059 -2.3867
14407TIP3    H264637   4.819   3.937  14.942 -0.8566  1.9197 -0.6117
14408TIP3   OH264638   3.097   1.762  12.703  0.0387  0.0574 -0.0196
14408TIP3    H164639   3.039   1.700  12.657  1.2603 -0.8740 -0.3585
14408TIP3    H264640   3.170   1.776  12.642  2.7537 -2.7922  2.2794
14409TIP3   OH264641   5.146   0.997   6.054 -0.3970 -0.2630 -0.0400
14409TIP3    H164642   5.180   1.065   6.111  0.6897 -0.4749 -0.4105
14409TIP3    H264643   5.224   0.951   6.022 -1.0582 -1.0606 -0.5551
14410TIP3   OH264644   6.715   4.334  13.023 -0.0796  0.0127  0.1899
14410TIP3    H164645   6.712   4.287  12.939  0.1033 -1.4638  0.9914
14410TIP3    H264646   6.703   4.267  13.089  1.5358  0.8943  1.4455
14411TIP3   OH264647   4.377   0.748   0.048  0.5076  0.4008  0.6031
14411TIP3    H164648   4.425   0.819   0.091  1.1209 -1.4621  3.2438
14411TIP3    H264649   4.444   0.687   0.020 -0.1335 -0.4077  0.7947
14412TIP3   OH264650   6.299   3.999  14.416 -0.3642 -0.2457 -0.3150
14412TIP3    H164651   6.348   3.924  14.380 -1.5261 -1.6348  0.8989
14412TIP3    H264652   6.360   4.039  14.479 -0.1057 -0.7962 -0.2104
14413TIP3   OH264653   6.669   0.155  13.048  0.4879  0.2211  0.2169
14413TIP3    H164654   6.712   0.237  13.023 -1.2872  1.2668  0.4306
14413TIP3    H264655   6.740   0.099  13.079  1.6007  2.1643  1.3599
14414TIP3   OH264656   0.861   2.261  14.665 -0.3655  0.4296  0.4735
14414TIP3    H164657   0.928   2.329  14.663 -0.1006  0.1734 -1.0174
14414TIP3    H264658   0.843   2.247  14.758  0.7719  1.3565  0.8588
14415TIP3   OH264659   1.764   0.374   3.998  0.2688 -0.3126  0.5822
14415TIP3    H164660   1.681   0.407   3.961  1.8606  3.5637 -0.0032
14415TIP3    H264661   1.772   0.420   4.081  2.7721  1.1766 -0.3755
14416TIP3   OH264662   3.045   3.244   6.494  0.1324 -0.2332 -0.1377
14416TIP3    H164663   3.090   3.207   6.570  1.1544 -0.4249 -0.8149
14416TIP3    H264664   3.084   3.198   6.419  0.3461  1.1297 -0.8867
14417TIP3   OH264665   0.020   2.299  15.778 -0.1562 -0.4148 -0.6830
14417TIP3    H164666   0.095   2.348  15.811 -0.3814 -0.6884  0.2716
14417TIP3    H264667  -0.008   2.245  15.852 -1.3978 -0.1826 -0.9586
14418TIP3   OH264668   1.816   3.413  13.606 -0.0411 -0.0919  0.5656
14418TIP3    H164669   1.817   3.329  13.560  0.8759  0.3035 -0.1719
14418TIP3    H264670   1.734   3.455  13.578 -1.2763 -1.3421  2.1224
14419TIP3   OH264671   6.675   3.839   0.987  0.8363  0.3672 -0.3035
14419TIP3    H164672   6.666   3.755   1.032  0.4946  0.2120 -0.6485
14419TIP3    H264673   6.645   3.821   0.898  3.6764  0.0580 -1.3009
14420TIP3   OH264674   2.471   1.081   0.289 -0.2897 -0.2551  0.1992
14420TIP3    H164675   2.530   1.151   0.262  0.3410 -1.2549 -1.1395
14420TIP3    H264676   2.511   1.001   0.256 -0.7248 -1.3456  2.1442
14421TIP3   OH264677   1.551   6.787   6.178  0.1923 -0.2529 -0.1391
14421TIP3    H164678   1.642   6.816   6.170  0.2964  0.4630  2.5962
14421TIP3    H264679   1.509   6.854   6.232 -0.9012 -2.5389  2.0529
14422TIP3   OH264680   3.596   2.961   1.727 -0.0576  0.6399  0.0465
14422TIP3    H164681   3.531   2.971   1.797 -1.7705  0.6817 -1.4618
14422TIP3    H264682   3.557   2.896   1.668  0.7256  1.5145 -1.4953
14423TIP3   OH264683   0.185   4.394   5.630  0.0566 -0.0498  0.2298
14423TIP3    H164684   0.164   4.486   5.612 -0.2121 -0.0760  0.4078
14423TIP3    H264685   0.195   4.390   5.725  0.1387 -0.1932  0.2150
14424TIP3   OH264686   5.054   1.455  15.607 -0.4579  0.2318 -0.1678
14424TIP3    H164687   5.012   1.401  15.540  2.3408 -1.1367 -0.9699
14424TIP3    H264688   5.109   1.394  15.655  0.8892  1.9613  0.5868
14425TIP3   OH264689   3.779   0.423   3.993  0.1833 -0.0561  0.4070
14425TIP3    H164690   3.849   0.482   3.964  0.6061  0.4934  2.4155
14425TIP3    H264691   3.819   0.336   3.994 -0.1756 -0.3053 -1.6537
14426TIP3   OH264692   3.941   5.551  14.568  0.0881 -0.1630 -0.5379
14426TIP3    H164693   3.848   5.538  14.552 -0.1532  0.5592  0.2514
14426TIP3    H264694   3.956   5.520  14.657  0.7735 -1.0209 -0.9261
14427TIP3   OH264695   0.623   4.238   3.286 -0.4497  0.0006 -0.0227
14427TIP3    H164696   0.664   4.316   3.248  0.9641 -0.5451  0.3212
14427TIP3    H264697   0.614   4.178   3.212 -1.0805  0.2962 -0.1909
14428TIP3   OH264698   2.770   2.737  10.595  0.0201  0.2758  0.4164
14428TIP3    H164699   2.747   2.676  10.665  2.2433  0.2003  1.1325
14428TIP3    H264700   2.818   2.808  10.638  0.6654  0.6676 -0.8972
14429TIP3   OH264701   4.806   5.312   1.601 -0.2712 -0.0294 -0.0359
14429TIP3    H164702   4.853   5.322   1.685  1.2057  2.2616 -1.0493
14429TIP3    H264703   4.746   5.386   1.598  0.3379  0.4358 -1.3699
14430TIP3   OH264704   0.122   0.447   4.269 -0.7941  0.4183 -0.2004
14430TIP3    H164705   0.193   0.416   4.326  0.4337 -0.2543 -1.9740
14430TIP3    H264706   0.047   0.392   4.292 -0.6560  0.8972  1.4768
14431TIP3   OH264707   1.085   3.612  12.837  0.1019 -0.5227  0.2957
14431TIP3    H164708   1.096   3.529  12.883  0.9828  0.8270  2.6425
14431TIP3    H264709   1.165   3.623  12.787  0.6257 -0.4218  1.1425
14432TIP3   OH264710   3.272   0.271  16.814 -0.4287  0.5101  0.4127
14432TIP3    H164711   3.311   0.272  16.902 -1.5991 -1.0855  0.9992
14432TIP3    H264712   3.322   0.204  16.767  0.2307  1.3981 -0.1864
14433TIP3   OH264713   4.779   5.291  10.730  0.0024 -0.1109 -0.3828
14433TIP3    H164714   4.695   5.245  10.727 -0.5346  0.8930 -1.8430
14433TIP3    H264715   4.776   5.350  10.654  3.0007 -1.7625 -1.9741
14434TIP3   OH264716   3.891   1.663  11.414 -0.4425  0.0088  0.1066
14434TIP3    H164717   3.987   1.658  11.411 -0.1026  3.2303  1.6229
14434TIP3    H264718   3.864   1.588  11.467  1.2864 -0.4528  0.3895
14435TIP3   OH264719   2.966   2.061  16.917  0.0553  0.3886 -0.0814
14435TIP3    H164720   2.919   2.131  16.872  0.8875  0.1430 -1.3793
14435TIP3    H264721   3.042   2.104  16.956  0.1368  0.3365 -0.1846
14436TIP3   OH264722   1.924   0.210   5.187  0.1405 -0.3698  0.4443
14436TIP3    H164723   1.942   0.123   5.223  1.7929  0.0768  0.7692
14436TIP3    H264724   1.839   0.234   5.224 -0.9794 -2.3446 -0.6490
14437TIP3   OH264725   4.777   1.799   6.597 -0.1536 -0.7534 -0.0737
14437TIP3    H164726   4.851   1.758   6.642  0.1111 -1.6130 -1.2378
14437TIP3    H264727   4.816   1.868   6.544 -0.3597 -0.2943  0.3699
14438TIP3   OH264728   5.687   2.315  14.625  0.1280  0.5487  0.0366
14438TIP3    H164729   5.733   2.296  14.706 -2.8967  0.1712  1.8242
14438TIP3    H264730   5.654   2.404  14.636 -1.3243  0.0681 -0.2021
14439TIP3   OH264731   4.213   4.515   4.936 -0.2759  0.1168  0.6729
14439TIP3    H164732   4.193   4.497   5.028  2.7632  0.1560  1.4266
14439TIP3    H264733   4.196   4.608   4.926 -1.1535  0.0095  1.0059
14440TIP3   OH264734   2.697   5.869   0.923 -0.1425  0.5683 -0.2465
14440TIP3    H164735   2.753   5.793   0.909 -0.1620  0.2573  1.2281
14440TIP3    H264736   2.615   5.846   0.880  0.1245  0.1097 -0.5289
14441TIP3   OH264737   0.293   2.295  16.925  0.2223 -0.2630  0.2186
14441TIP3    H164738   0.264   2.293  17.016 -0.0791  0.5307  0.1413
14441TIP3    H264739   0.218   2.329  16.876  0.2225 -1.0925 -0.3968
14442TIP3   OH264740   0.827   3.464   5.677  1.0080 -0.3294 -1.1891
14442TIP3    H164741   0.842   3.392   5.738 -0.8619 -0.7072 -1.1424
14442TIP3    H264742   0.887   3.533   5.707  1.8060 -1.3424 -0.3822
14443TIP3   OH264743   2.365   2.141  14.670  0.4001  0.2276  0.3573
14443TIP3    H164744   2.341   2.179  14.755  2.1311 -1.5526  1.7474
14443TIP3    H264745   2.401   2.214  14.620 -2.9026  1.8861  0.0688
14444TIP3   OH264746   6.324   6.450   1.006  0.0948  0.3900 -0.4909
14444TIP3    H164747   6.267   6.472   0.932 -0.3427  0.4632 -0.1379
14444TIP3    H264748   6.365   6.533   1.030 -1.4299  0.8289  0.7351
14445TIP3   OH264749   3.948   6.755  12.993  0.8027  0.4941 -0.2918
14445TIP3    H164750   4.005   6.769  13.068  1.8298  0.4692 -1.0449
14445TIP3    H264751   3.867   6.720  13.030  1.4347  0.1209  0.7671
14446TIP3   OH264752   5.926   3.057  15.372 -0.1248 -0.1642 -0.2256
14446TIP3    H164753   5.860   2.990  15.357 -0.1708  0.0103 -0.8470
14446TIP3    H264754   6.006   3.008  15.391 -0.8103 -0.3746  2.4318
14447TIP3   OH264755   3.760   2.281   1.772  0.6175  0.0545 -0.9666
14447TIP3    H164756   3.736   2.193   1.803  1.5171  0.3326  0.6355
14447TIP3    H264757   3.701   2.297   1.699  0.8219 -2.1290 -1.6969
14448TIP3   OH264758   5.054   1.858   2.749 -0.2705 -0.2150  0.2945
14448TIP3    H164759   5.054   1.784   2.690  0.0976 -1.7044  2.0752
14448TIP3    H264760   5.144   1.863   2.783 -0.6804 -0.0100  1.4165
14449TIP3   OH264761   4.184   0.292   1.835 -0.4882  0.0640 -0.6529
14449TIP3    H164762   4.144   0.230   1.896 -2.2787 -0.2350 -2.0471
14449TIP3    H264763   4.276   0.293   1.859 -0.9089 -1.0184  1.2054
14450TIP3   OH264764   3.625   1.146  10.633 -0.3634  0.1487 -0.4197
14450TIP3    H164765   3.569   1.141  10.555 -0.4914  1.6303 -0.4588
14450TIP3    H264766   3.576   1.101  10.701  0.0086 -1.6941 -1.3085
14451TIP3   OH264767   4.753   5.459  16.909  0.1451  0.1320  0.8061
14451TIP3    H164768   4.733   5.521  16.839  0.0784 -0.9453 -0.1499
14451TIP3    H264769   4.814   5.397  16.870  0.8842  0.0736  2.0032
14452TIP3   OH264770   5.770   5.943  13.461 -0.5294  0.0127  0.0288
14452TIP3    H164771   5.758   5.970  13.370  1.2896 -0.6263 -0.4488
14452TIP3    H264772   5.750   6.021  13.512 -1.5260  0.3937 -0.9152
14453TIP3   OH264773   2.957   1.785   6.122  0.3220  0.1004  0.3316
14453TIP3    H164774   2.955   1.810   6.030  0.8719 -1.4370 -0.1366
14453TIP3    H264775   2.896   1.712   6.128 -1.3640  1.5351  1.6673
14454TIP3   OH264776   4.406   2.713   1.654 -0.3417 -0.5632 -0.5560
14454TIP3    H164777   4.412   2.709   1.749 -1.4532 -0.8012 -0.4739
14454TIP3    H264778   4.324   2.668   1.634 -1.0920  1.0941 -1.4726
14455TIP3   OH264779   4.589   5.922   4.147  0.2336  0.3815  0.4956
14455TIP3    H164780   4.502   5.892   4.175 -0.1011  1.5526  0.7753
14455TIP3    H264781   4.609   5.869   4.070 -1.5930  1.3866 -0.7587
14456TIP3   OH264782   4.500   0.298  15.188  0.1468 -0.4692 -0.0730
14456TIP3    H164783   4.437   0.253  15.132 -1.8565  2.2753 -0.2014
14456TIP3    H264784   4.550   0.227  15.229 -2.9108 -2.8336 -0.0873
14457TIP3   OH264785   4.742   1.581   4.872  0.5206 -0.0245  0.0762
14457TIP3    H164786   4.766   1.661   4.825 -2.4178  0.4463 -0.8720
14457TIP3    H264787   4.669   1.546   4.821  1.7109 -3.3874  0.4528
14458TIP3   OH264788   2.330   6.129   1.155  0.4874  0.4258  0.0920
14458TIP3    H164789   2.394   6.143   1.086 -0.2744 -0.1920 -0.7602
14458TIP3    H264790   2.377   6.079   1.222  0.6952 -0.6935 -0.8644
14459TIP3   OH264791   2.567   1.637  16.556  0.3751 -0.1803  0.3290
14459TIP3    H164792   2.587   1.660  16.646  0.3624 -0.4837  0.4116
14459TIP3    H264793   2.478   1.667  16.542  0.1655 -0.6600  0.6054
14460TIP3   OH264794   6.634   0.493   3.571 -0.2389  0.7645 -0.4461
14460TIP3    H164795   6.565   0.553   3.601  0.1009  2.8069 -3.2883
14460TIP3    H264796   6.592   0.408   3.565 -1.5239  1.2506  1.1651
14461TIP3   OH264797   6.258   4.202   1.841 -0.0334  0.3125 -0.3348
14461TIP3    H164798   6.261   4.277   1.900  0.3055  0.4249 -0.4897
14461TIP3    H264799   6.350   4.178   1.829  0.1029  1.7671 -2.7186
14462TIP3   OH264800   6.278   0.576  16.940 -0.4270 -0.3358  0.7447
14462TIP3    H164801   6.328   0.658  16.948 -1.7636  0.6356 -0.2629
14462TIP3    H264802   6.281   0.556  16.847 -0.5372 -1.1824  0.9162
14463TIP3   OH264803   6.492   6.285  14.866  0.2130  0.1730 -0.0416
14463TIP3    H164804   6.410   6.255  14.904 -0.4520 -0.4942 -1.8822
14463TIP3    H264805   6.477   6.282  14.771  2.0106  1.0409 -0.3984
14464TIP3   OH264806   5.769   1.990   3.170  0.3097  0.3527 -0.1453
14464TIP3    H164807   5.739   1.922   3.110 -1.2907  0.6440  0.2655
14464TIP3    H264808   5.757   1.953   3.257 -0.7159  1.1591  0.0898
14465TIP3   OH264809   2.328   2.865  11.689  0.3087  1.0830 -0.0485
14465TIP3    H164810   2.317   2.843  11.597 -0.4155  1.2471 -0.0010
14465TIP3    H264811   2.333   2.961  11.690  1.9406  1.0279 -0.0843
14466TIP3   OH264812   3.028   3.817  14.279 -0.3033 -0.2383 -0.2712
14466TIP3    H164813   3.035   3.911  14.264  0.0910  0.1275  1.9023
14466TIP3    H264814   3.118   3.787  14.286 -0.4338 -0.7368 -0.6841
14467TIP3   OH264815   5.905   2.571  16.616  0.2715 -0.0102 -0.0436
14467TIP3    H164816   5.949   2.538  16.538  0.2400  0.8884 -0.4625
14467TIP3    H264817   5.966   2.636  16.651 -0.4724  0.8687 -0.3343
14468TIP3   OH264818   4.210   6.142  15.310  0.0439  0.5078 -0.4187
14468TIP3    H164819   4.148   6.103  15.371  0.1565 -1.3494 -1.4395
14468TIP3    H264820   4.161   6.153  15.229  0.5840  0.6539 -0.7302
14469TIP3   OH264821   3.983   2.062   4.480 -0.8962 -0.8069  0.1282
14469TIP3    H164822   4.074   2.080   4.506  0.3392 -1.3409 -3.2465
14469TIP3    H264823   3.949   2.006   4.550  0.8630  0.5086  2.1886
14470TIP3   OH264824   3.164   0.628   4.691  0.2833  0.2155  0.1783
14470TIP3    H164825   3.099   0.696   4.675  0.6363  0.5489  0.1623
14470TIP3    H264826   3.163   0.616   4.786  0.6692  0.6854  0.2420
14471TIP3   OH264827   1.714   3.706   6.527 -0.0728 -0.0221 -0.4055
14471TIP3    H164828   1.683   3.669   6.609  1.3785  1.4963  0.9231
14471TIP3    H264829   1.809   3.692   6.529 -0.0472 -0.3071 -2.0326
14472TIP3   OH264830   5.085   5.897   3.375 -0.0531 -0.3295  0.7868
14472TIP3    H164831   5.033   5.895   3.295 -0.3511  1.9080  0.8550
14472TIP3    H264832   5.165   5.945   3.351 -1.3763  3.0037  2.3605
14473TIP3   OH264833   2.199   1.372  10.653  0.0566  0.1558  0.1370
14473TIP3    H164834   2.208   1.351  10.746 -0.4899  1.4667  0.5209
14473TIP3    H264835   2.181   1.466  10.652 -0.3819  0.0790 -1.2799
14474TIP3   OH264836   6.433   4.886   2.980 -0.0185 -0.4131  0.3887
14474TIP3    H164837   6.504   4.830   3.010  0.5850 -0.7898 -1.5930
14474TIP3    H264838   6.423   4.864   2.887  0.9851  3.5036 -0.8347
14475TIP3   OH264839   0.656   4.711   5.378 -0.8519  0.8302  0.1361
14475TIP3    H164840   0.644   4.627   5.334  1.8107  0.1851  0.4895
14475TIP3    H264841   0.637   4.693   5.470  0.7070  0.2967  0.3848
14476TIP3   OH264842   6.025   5.555   2.821 -0.1922  0.1814  0.0557
14476TIP3    H164843   5.966   5.613   2.870  0.6721  0.3268  0.9595
14476TIP3    H264844   5.967   5.501   2.768 -1.0810  1.0516  0.1150
14477TIP3   OH264845   4.121   0.127  13.835  0.1474  0.3912 -0.2208
14477TIP3    H164846   4.214   0.149  13.831  0.3218  0.0910  1.6429
14477TIP3    H264847   4.083   0.193  13.893 -0.9022  0.7775 -1.3069
14478TIP3   OH264848   5.811   6.098  12.314 -0.3226 -0.2670 -0.5522
14478TIP3    H164849   5.873   6.112  12.386 -0.2214  0.4831 -0.7748
14478TIP3    H264850   5.725   6.113  12.353 -0.3100 -0.4477 -0.4511
14479TIP3   OH264851   0.919   5.772  13.999 -0.1664 -0.2247  0.2131
14479TIP3    H164852   0.935   5.741  13.910 -1.3930 -0.6494  0.1163
14479TIP3    H264853   0.888   5.694  14.046 -0.3464  0.1836  0.7824
14480TIP3   OH264854   4.544   0.630  16.706  0.6222  0.0903  0.0994
14480TIP3    H164855   4.539   0.707  16.763  0.1047  0.3974 -0.3596
14480TIP3    H264856   4.593   0.566  16.758  1.9731  1.0745  0.0902
14481TIP3   OH264857   6.052   0.734   3.405 -0.0497 -0.3464  0.3174
14481TIP3    H164858   6.121   0.788   3.445  1.8914 -2.7091  0.3888
14481TIP3    H264859   6.058   0.755   3.312  0.1452  0.1515  0.4369
14482TIP3   OH264860   1.431   1.632   5.783  0.0613 -0.0589  0.0674
14482TIP3    H164861   1.430   1.728   5.786 -2.5847  0.0089  3.0760
14482TIP3    H264862   1.471   1.607   5.866 -0.4211 -1.5353 -0.1220
14483TIP3   OH264863   5.697   4.574   3.099 -0.4972  0.8385  0.1770
14483TIP3    H164864   5.783   4.593   3.136  0.5977 -0.3334 -1.6255
14483TIP3    H264865   5.659   4.660   3.081  0.0027  1.3812  1.5734
14484TIP3   OH264866   5.136   3.291  15.512 -0.2961  0.4045 -0.0638
14484TIP3    H164867   5.082   3.369  15.512  0.2946  0.8215 -0.3879
14484TIP3    H264868   5.165   3.281  15.602 -2.4016 -0.8966  0.5443
14485TIP3   OH264869   2.823   2.220  14.594  0.7579  0.1792 -0.3927
14485TIP3    H164870   2.868   2.136  14.585  1.6281  0.5878  0.0244
14485TIP3    H264871   2.804   2.227  14.687  1.2843  0.7328 -0.3174
14486TIP3   OH264872   2.969   0.866  14.287  0.4543 -0.1032 -0.0978
14486TIP3    H164873   3.033   0.867  14.216 -1.9543  0.8418 -2.4291
14486TIP3    H264874   2.911   0.793  14.266  0.2088 -0.3680  1.4199
14487TIP3   OH264875   5.881   2.022  17.140 -0.4196  0.4353 -0.1272
14487TIP3    H164876   5.899   2.116  17.143  2.1484 -0.0018  0.7557
14487TIP3    H264877   5.845   2.002  17.227  1.1786  0.2914  0.5403
14488TIP3   OH264878   3.264   4.247  14.169  0.1745  0.2309 -0.1247
14488TIP3    H164879   3.170   4.230  14.178  0.8538 -3.1080  3.7286
14488TIP3    H264880   3.278   4.330  14.213 -0.9278  0.7618 -0.7348
14489TIP3   OH264881   3.043   4.642   3.634  0.6529  0.0961 -0.6012
14489TIP3    H164882   3.120   4.585   3.630  1.5668  1.2928 -0.5266
14489TIP3    H264883   3.050   4.697   3.556  0.0353  0.4397 -0.4190
14490TIP3   OH264884   1.341   2.790  13.493 -0.3356  0.1492 -0.0859
14490TIP3    H164885   1.343   2.818  13.584 -0.8855  0.0448 -0.0405
14490TIP3    H264886   1.432   2.799  13.463  0.6630 -3.1724  1.4898
14491TIP3   OH264887   5.796   1.159  11.633  0.3787  0.0987  0.2177
14491TIP3    H164888   5.756   1.072  11.637  1.1320 -0.2644  0.0337
14491TIP3    H264889   5.750   1.203  11.561 -0.1552 -0.0654  0.4552
14492TIP3   OH264890   1.929   0.899  15.836  0.2915  0.8858 -0.2869
14492TIP3    H164891   1.881   0.919  15.757 -2.2811  1.4366  1.3058
14492TIP3    H264892   1.926   0.979  15.888  0.3016  0.0093  1.1420
14493TIP3   OH264893   4.472   5.303   4.999 -0.2087  0.1502 -0.0776
14493TIP3    H164894   4.491   5.371   5.064  2.2390 -1.5912  1.1879
14493TIP3    H264895   4.557   5.277   4.965 -1.0724 -1.9497 -0.8421
14494TIP3   OH264896   4.863   2.637   0.775  0.5610 -0.3957  0.2542
14494TIP3    H164897   4.810   2.708   0.812  1.0444 -0.1899  0.5582
14494TIP3    H264898   4.851   2.645   0.680  0.7006  0.1599  0.2809
14495TIP3   OH264899   1.252   2.913   0.306  0.0748  0.2120 -0.2355
14495TIP3    H164900   1.227   2.821   0.296  1.9033 -0.3153 -0.3491
14495TIP3    H264901   1.245   2.949   0.217 -1.6748  0.5131 -0.0202
14496TIP3   OH264902   6.423   6.087   2.995 -0.1405 -0.3615 -0.4365
14496TIP3    H164903   6.341   6.040   3.006  0.1846 -1.2916 -1.7827
14496TIP3    H264904   6.411   6.140   2.916  0.3244  0.0191 -0.2650
14497TIP3   OH264905   0.278   2.708  13.049 -0.0856  0.1639  0.0323
14497TIP3    H164906   0.234   2.776  13.100 -0.6407 -0.4571  0.3907
14497TIP3    H264907   0.278   2.742  12.960 -1.2395  0.2238  0.0325
14498TIP3   OH264908   3.656   0.852  11.640  0.2027  0.4263  0.1337
14498TIP3    H164909   3.602   0.847  11.718 -2.2507 -0.3670 -1.5145
14498TIP3    H264910   3.621   0.926  11.591  0.8849  0.1562 -0.7898
14499TIP3   OH264911   2.325   4.183  14.729 -0.3130 -0.5656  0.1224
14499TIP3    H164912   2.325   4.275  14.753  0.7590  0.4351 -3.1522
14499TIP3    H264913   2.234   4.155  14.739 -1.1393  1.5325 -0.8925
14500TIP3   OH264914   5.821   2.052  13.710  0.4343 -0.7030 -0.4014
14500TIP3    H164915   5.796   2.123  13.769 -0.3665  1.1444 -2.8028
14500TIP3    H264916   5.903   2.017  13.747  0.8524  1.4757  0.8690
14501TIP3   OH264917   0.037   5.307  17.077  0.4885 -0.2962  0.4511
14501TIP3    H164918   0.009   5.218  17.053  4.8407 -1.6330 -0.4427
14501TIP3    H264919   0.082   5.297  17.160  1.7582  0.8898 -0.0638
14502TIP3   OH264920   5.386   3.980   5.791  0.0680 -0.0090  0.7229
14502TIP3    H164921   5.340   3.905   5.754  0.4465 -0.1798  0.5853
14502TIP3    H264922   5.460   3.994   5.731 -0.7745  1.3624 -0.0690
14503TIP3   OH264923   4.317   5.762   5.242 -0.0009  0.1927 -0.0269
14503TIP3    H164924   4.344   5.853   5.256  1.2039 -0.0688 -0.5502
14503TIP3    H264925   4.297   5.730   5.330  0.4651  0.6975  0.2722
14504TIP3   OH264926   6.605   1.869  14.053  0.6532 -0.0825  0.0755
14504TIP3    H164927   6.658   1.949  14.045  0.7101  0.1073  1.9475
14504TIP3    H264928   6.515   1.900  14.060  0.4280 -0.3255 -1.4075
14505TIP3   OH264929   5.230   2.366  15.551 -0.5316 -0.4515  0.0883
14505TIP3    H164930   5.190   2.385  15.466  1.1528  1.2480 -0.3938
14505TIP3    H264931   5.193   2.433  15.610 -2.0101 -1.8696  0.8672
14506TIP3   OH264932   1.913   3.944   4.688  0.5566 -0.0400  0.4625
14506TIP3    H164933   1.893   4.037   4.673  0.8003  0.0037  0.4098
14506TIP3    H264934   1.829   3.899   4.673 -0.6182  0.5506  4.2726
14507TIP3   OH264935   3.287   0.587   0.219  0.3063  0.1711  0.2957
14507TIP3    H164936   3.356   0.540   0.171  0.7011  0.3681  0.6633
14507TIP3    H264937   3.329   0.614   0.301  0.0094  0.9306  0.2078
14508TIP3   OH264938   6.507   2.093  12.317  0.8035 -0.7240 -0.0492
14508TIP3    H164939   6.503   2.135  12.231  3.0865 -0.0506  0.0992
14508TIP3    H264940   6.581   2.136  12.361 -1.1859  0.0261  2.8498
14509TIP3   OH264941   4.658   3.591   3.026  0.4369  0.3262  0.3954
14509TIP3    H164942   4.673   3.596   2.931  0.8018  1.6247  0.5166
14509TIP3    H264943   4.710   3.662   3.063  0.2952 -0.1677  1.5843
14510TIP3   OH264944   6.491   1.496  14.689 -0.8934  0.0593 -0.3252
14510TIP3    H164945   6.527   1.435  14.625 -0.5368 -0.9881  0.8294
14510TIP3    H264946   6.401   1.510  14.661 -0.5782  0.0865 -1.3775
14511TIP3   OH264947   1.803   4.095  12.485 -0.5090  0.3343  0.2032
14511TIP3    H164948   1.716   4.104  12.447  0.0435 -0.9580 -1.5289
14511TIP3    H264949   1.852   4.169  12.451 -0.6730  0.5343  0.4010
14512TIP3   OH264950   2.517   4.820   2.787  0.1961 -0.5848 -0.6664
14512TIP3    H164951   2.480   4.906   2.763 -1.4295 -0.2596  2.5640
14512TIP3    H264952   2.447   4.758   2.768  0.0843 -0.7222  0.1578
14513TIP3   OH264953   0.057   4.216  14.142  0.4677  0.2438 -0.2914
14513TIP3    H164954   0.076   4.134  14.188 -0.8919 -0.4728 -0.9536
14513TIP3    H264955   0.075   4.285  14.206  2.9445 -0.4439 -0.1323
14514TIP3   OH264956   0.358   2.293   5.831 -0.0490 -0.4512 -0.6369
14514TIP3    H164957   0.263   2.287   5.843 -0.3168 -0.2380 -2.3620
14514TIP3    H264958   0.384   2.370   5.882 -1.1183  0.6414 -1.6867
14515TIP3   OH264959   6.306   6.122  14.020  0.0156 -0.0966 -0.3403
14515TIP3    H164960   6.301   6.037  14.065 -0.1754  1.4790  2.9040
14515TIP3    H264961   6.392   6.156  14.044  0.7459  0.0868 -2.8845
14516TIP3   OH264962   2.251   2.214  15.168 -0.6904  0.3331 -0.0687
14516TIP3    H164963   2.282   2.133  15.127 -0.9471  0.7493 -1.1116
14516TIP3    H264964   2.157   2.200  15.181 -0.9564  0.8368 -1.2390
14517TIP3   OH264965   6.279   3.426   3.039  0.2373 -0.3336 -0.2678
14517TIP3    H164966   6.284   3.521   3.040 -0.0674 -0.3223  0.1847
14517TIP3    H264967   6.251   3.402   3.127 -0.3358 -0.8049 -0.5689
14518TIP3   OH264968   0.970   2.926  11.446 -0.0669 -0.0113  0.2924
14518TIP3    H164969   0.885   2.883  11.437  1.0828 -2.1264 -1.6041
14518TIP3    H264970   1.014   2.909  11.362  1.4152  2.9531  0.3439
14519TIP3   OH264971   0.845   3.691   6.501  0.0617  0.5104  0.9261
14519TIP3    H164972   0.881   3.618   6.551 -0.2632  1.0111  1.9361
14519TIP3    H264973   0.785   3.734   6.563  0.8517  2.0968  0.6254
14520TIP3   OH264974   1.907   6.258   2.280  0.1805 -0.0494  0.2920
14520TIP3    H164975   1.954   6.225   2.356  0.1121 -1.8575 -0.3832
14520TIP3    H264976   1.913   6.353   2.286  2.4260 -0.1944  1.1356
14521TIP3   OH264977   1.815   4.491  14.794 -0.3426 -0.3076 -0.0378
14521TIP3    H164978   1.845   4.546  14.867 -1.3354  1.1331 -0.6610
14521TIP3    H264979   1.887   4.494  14.731  0.5101 -1.5358  0.8310
14522TIP3   OH264980   3.503   6.044  12.515  0.1948  0.4071 -0.4997
14522TIP3    H164981   3.596   6.046  12.494  0.0546 -0.4416 -1.2476
14522TIP3    H264982   3.459   6.068  12.433 -0.2344  1.7559  0.0907
14523TIP3   OH264983   5.787   2.811   0.299  0.2029 -0.2668  0.1890
14523TIP3    H164984   5.818   2.726   0.268 -0.5072 -0.2010 -0.7444
14523TIP3    H264985   5.850   2.874   0.263  0.2969 -0.3291  0.2428
14524TIP3   OH264986   2.707   4.857   1.477  1.1366  0.1018 -0.3117
14524TIP3    H164987   2.773   4.870   1.545  1.7999 -1.2548 -0.6636
14524TIP3    H264988   2.661   4.777   1.504 -0.7955  1.3259  0.2434
14525TIP3   OH264989   1.128   4.307   4.926 -0.6671 -0.0043 -0.5461
14525TIP3    H164990   1.059   4.264   4.977 -1.8137  0.1779 -1.9091
14525TIP3    H264991   1.087   4.386   4.893  0.1134 -0.0339 -1.6068
14526TIP3   OH264992   0.313   4.377  13.899  0.3192  0.1161 -0.2440
14526TIP3    H164993   0.296   4.339  13.985  0.4336  0.4072 -0.0907
14526TIP3    H264994   0.387   4.436  13.914 -0.6063  1.2984 -0.2250
14527TIP3   OH264995   1.225   6.781  14.849 -0.1822  0.1184 -0.0202
14527TIP3    H164996   1.226   6.686  14.835  1.9759 -0.6925  4.0504
14527TIP3    H264997   1.135   6.801  14.875 -0.5946 -0.8521 -0.6571
14528TIP3   OH264998   2.297   3.608   4.613 -0.0037 -0.3009  0.2084
14528TIP3    H164999   2.307   3.641   4.702  0.6328  0.8819 -0.2642
14528TIP3    H265000   2.216   3.649   4.582 -0.8032 -1.5480  0.5645
14529TIP3   OH265001   4.239   5.489  10.371 -0.6620 -0.0838 -0.5147
14529TIP3    H165002   4.257   5.558  10.434 -3.2745  0.1944  0.0467
14529TIP3    H265003   4.161   5.519  10.324 -1.8331 -2.5624 -0.3099
14530TIP3   OH265004   3.882   2.649  14.593  0.3600  0.0913 -0.0395
14530TIP3    H165005   3.896   2.605  14.510  0.5680 -1.0003  0.5525
14530TIP3    H265006   3.850   2.736  14.569  1.3928  0.1644 -1.2694
14531TIP3   OH265007   4.287   6.438  14.732 -0.3508 -0.0046  0.1817
14531TIP3    H165008   4.262   6.530  14.729  1.3869  0.4954 -0.2055
14531TIP3    H265009   4.275   6.406  14.642  0.1701  0.1774  0.0442
14532TIP3   OH265010   0.330   4.474  11.552  0.5259 -0.1416  0.0553
14532TIP3    H165011   0.251   4.424  11.532 -2.0290  3.0592  1.3785
14532TIP3    H265012   0.356   4.511  11.468  1.3400 -2.0158 -0.5796
14533TIP3   OH265013   5.831   3.547   0.514 -0.1570 -1.0668  0.2400
14533TIP3    H165014   5.755   3.503   0.475  0.8121 -1.7238 -0.9915
14533TIP3    H265015   5.901   3.481   0.511 -0.1514 -1.4312  3.8434
14534TIP3   OH265016   0.251   0.856   2.022  0.1783  0.9237  0.5416
14534TIP3    H165017   0.218   0.771   2.050  1.5565  0.4235  0.7182
14534TIP3    H265018   0.289   0.894   2.102  1.1470  0.9337  0.0837
14535TIP3   OH265019   3.194   3.707  14.703 -0.0545  0.6841  0.3914
14535TIP3    H165020   3.260   3.735  14.767 -0.0817  2.5405 -0.3352
14535TIP3    H265021   3.179   3.784  14.648 -1.3466 -0.3181 -0.7444
14536TIP3   OH265022   3.410   5.487  14.052  0.0954 -0.0400  0.3572
14536TIP3    H165023   3.337   5.445  14.008 -0.0023 -0.0319  0.5098
14536TIP3    H265024   3.371   5.562  14.098  0.7353  2.3447 -2.6821
14537TIP3   OH265025   1.411   0.503   5.101  0.0829  0.1719  0.8003
14537TIP3    H165026   1.369   0.432   5.150 -0.1316  1.1555  2.0893
14537TIP3    H265027   1.373   0.583   5.138  0.3970  0.9639 -0.5583
14538TIP3   OH265028   5.787   0.422   4.523 -0.4998 -0.0201  0.1811
14538TIP3    H165029   5.775   0.328   4.508  2.0280 -0.1996 -1.2036
14538TIP3    H265030   5.851   0.449   4.457 -0.2444  2.4321  1.3318
14539TIP3   OH265031   4.163   6.542   4.368 -0.4635  0.2167 -0.4303
14539TIP3    H165032   4.174   6.634   4.344  0.3048  0.0198 -0.8585
14539TIP3    H265033   4.135   6.500   4.287 -1.5612  0.1921 -0.0548
14540TIP3   OH265034   4.728   6.360   1.373  0.2256  0.5228  0.5370
14540TIP3    H165035   4.784   6.427   1.335 -0.4345  0.9389  0.2834
14540TIP3    H265036   4.677   6.326   1.298  0.7178 -0.4267  0.6173
14541TIP3   OH265037   0.254   1.675  15.251 -0.1083  0.3312  0.1452
14541TIP3    H165038   0.309   1.675  15.173 -0.7797 -2.1486 -0.4059
14541TIP3    H265039   0.317   1.671  15.324  0.4839 -0.2070 -0.3825
14542TIP3   OH265040   6.028   1.740  12.647 -0.1926 -0.3359  0.1394
14542TIP3    H165041   6.082   1.790  12.708 -0.4816  0.3866 -0.1790
14542TIP3    H265042   6.069   1.654  12.644  1.2096  0.3158 -0.4145
14543TIP3   OH265043   6.122   3.604   1.617 -0.1178 -0.2755  0.6529
14543TIP3    H165044   6.169   3.681   1.650  0.2376  0.1417 -0.7395
14543TIP3    H265045   6.045   3.597   1.674 -0.0220  0.9575  0.9707
14544TIP3   OH265046   3.100   4.277  13.076  0.5294 -0.2465  0.2034
14544TIP3    H165047   3.068   4.245  13.160  2.6553 -1.9693  0.4320
14544TIP3    H265048   3.193   4.258  13.077  1.0824  1.9739 -1.5624
14545TIP3   OH265049   4.505   3.539  12.166 -0.6407 -0.3255 -0.4120
14545TIP3    H165050   4.583   3.513  12.216 -0.7413 -0.6041 -0.3992
14545TIP3    H265051   4.432   3.523  12.225 -0.6772  0.3286 -0.2730
14546TIP3   OH265052   4.171   5.807  13.591 -0.4199 -0.6727 -0.0354
14546TIP3    H165053   4.112   5.810  13.515 -0.0731  0.8252 -0.2854
14546TIP3    H265054   4.164   5.895  13.629  0.1103 -1.1239  1.1314
14547TIP3   OH265055   4.162   0.746   2.811 -0.3985  0.3306 -0.1123
14547TIP3    H165056   4.166   0.785   2.724  0.9645  0.7994  0.1379
14547TIP3    H265057   4.247   0.767   2.850 -1.2124  0.6619  1.5523
14548TIP3   OH265058   5.092   1.342   1.932 -0.4880  0.2633  0.2847
14548TIP3    H165059   5.158   1.293   1.981 -0.4848  0.5811  0.6038
14548TIP3    H265060   5.111   1.434   1.951 -0.4676  0.3924 -0.3453
14549TIP3   OH265061   3.068   2.665  13.898  0.3997 -0.2133 -0.0670
14549TIP3    H165062   3.107   2.662  13.810  0.5268  1.5967 -0.1016
14549TIP3    H265063   3.128   2.719  13.949 -1.3592  1.6175  0.2029
14550TIP3   OH265064   4.004   3.495  17.163 -1.0072  0.4267  0.6014
14550TIP3    H165065   4.001   3.585  17.195 -0.3056  0.3147  1.0034
14550TIP3    H265066   4.092   3.485  17.127 -0.8926 -0.2500  1.0502
14551TIP3   OH265067   5.528   2.299   1.758  0.5329  0.4676  0.3810
14551TIP3    H165068   5.456   2.309   1.696  0.3976 -0.2317  0.4194
14551TIP3    H265069   5.557   2.389   1.776  0.2523  0.7018 -0.3156
14552TIP3   OH265070   1.568   4.062   1.869 -0.0604  0.1379  0.1685
14552TIP3    H165071   1.600   4.151   1.882  2.8691 -0.7846 -0.1629
14552TIP3    H265072   1.501   4.051   1.937  1.4030  1.7230  1.9978
14553TIP3   OH265073   5.089   2.623  13.309 -0.2231  0.1302 -0.0856
14553TIP3    H165074   5.040   2.634  13.391  0.9389  0.3340  0.6004
14553TIP3    H265075   5.127   2.709  13.292 -1.3807  0.3961 -1.4753
14554TIP3   OH265076   3.530   1.688   4.586  0.2469  0.1879  0.0428
14554TIP3    H165077   3.461   1.650   4.531 -1.1427  0.9603  1.1687
14554TIP3    H265078   3.606   1.694   4.529 -0.7179 -0.3569 -1.3666
14555TIP3   OH265079   6.581   3.425   6.010  0.0475 -0.3551 -0.4328
14555TIP3    H165080   6.573   3.473   5.927  0.0473 -1.2973 -1.0005
14555TIP3    H265081   6.673   3.400   6.015  0.5784  1.6030  0.9908
14556TIP3   OH265082   5.283   3.762  10.760 -0.3940  0.3765  0.2647
14556TIP3    H165083   5.266   3.701  10.687  0.9813 -0.4535  0.5949
14556TIP3    H265084   5.332   3.834  10.719 -0.1243  0.1878  0.2455
14557TIP3   OH265085   4.575   2.335   1.819 -0.1321  0.4484 -0.4108
14557TIP3    H165086   4.657   2.368   1.783 -0.3320 -1.1747 -2.5815
14557TIP3    H265087   4.507   2.372   1.763 -0.7048  0.0590  0.0071
14558TIP3   OH265088   6.649   3.624   5.674 -0.6621 -0.3276  0.3853
14558TIP3    H165089   6.641   3.531   5.697  1.5774 -1.1827 -1.9032
14558TIP3    H265090   6.570   3.643   5.624 -0.8855 -1.1524  0.4066
14559TIP3   OH265091   3.410   2.382  12.576 -0.1895  0.0974 -0.0913
14559TIP3    H165092   3.315   2.388  12.581 -0.3554 -0.2883 -1.9955
14559TIP3    H265093   3.434   2.440  12.503  1.2440  1.5928  1.4696
14560TIP3   OH265094   2.624   0.286  14.466  0.3850  0.0724  0.3988
14560TIP3    H165095   2.636   0.234  14.546  0.6179 -0.3983  0.0603
14560TIP3    H265096   2.713   0.312  14.442  0.3386  0.0005  0.1494
14561TIP3   OH265097   3.984   6.485   2.676  0.3150 -0.3457  0.6371
14561TIP3    H165098   3.908   6.455   2.726 -0.3800  1.1530  0.5130
14561TIP3    H265099   4.059   6.466   2.734 -0.3321 -0.0684  1.5883
14562TIP3   OH265100   0.974   6.479   1.272  0.3123  0.3036 -0.6423
14562TIP3    H165101   0.931   6.396   1.291  2.5907 -0.5780  1.0907
14562TIP3    H265102   0.920   6.545   1.316  1.1159 -0.8564  2.2772
14563TIP3   OH265103   5.053   6.592   0.673  0.3900  0.2683  0.4559
14563TIP3    H165104   5.085   6.660   0.734  1.0712 -1.3434  2.0019
14563TIP3    H265105   5.024   6.641   0.596  2.6632  2.1888  0.6817
14564TIP3   OH265106   1.286   0.950  15.214 -0.4272  0.1506  0.6551
14564TIP3    H165107   1.324   0.864  15.202 -0.7580  0.2091 -1.1150
14564TIP3    H265108   1.354   1.011  15.184 -1.4428  0.2929 -1.6256
14565TIP3   OH265109   2.012   1.831  16.459 -0.1941  0.0952 -0.0294
14565TIP3    H165110   2.051   1.904  16.410 -0.9784  2.0131  2.0194
14565TIP3    H265111   1.998   1.867  16.547 -3.2507 -1.6379  0.3080
14566TIP3   OH265112   2.332   0.901  15.039  0.3159 -0.3829 -0.1098
14566TIP3    H165113   2.279   0.881  14.963  0.1464 -1.2555  0.2200
14566TIP3    H265114   2.389   0.973  15.012  0.6426 -1.0486 -1.2339
14567TIP3   OH265115   0.108   5.381  15.395 -0.0904 -0.1024  0.0799
14567TIP3    H165116   0.065   5.466  15.391 -0.9451 -0.5439 -0.2174
14567TIP3    H265117   0.198   5.399  15.365 -0.2395  0.6993  0.0841
14568TIP3   OH265118   2.621   2.022   1.450  0.2195 -0.2061  0.5204
14568TIP3    H165119   2.535   1.996   1.419 -0.6123  2.1315  0.6869
14568TIP3    H265120   2.634   1.972   1.530 -1.9132  0.8659  1.6127
14569TIP3   OH265121   5.775   3.823  16.787  0.0367 -0.1373  0.5454
14569TIP3    H165122   5.700   3.882  16.789 -0.0455 -0.2000 -0.2129
14569TIP3    H265123   5.848   3.875  16.821 -0.2926  0.0102  1.0217
14570TIP3   OH265124   0.529   2.317   0.494  0.0431 -0.7057 -0.0192
14570TIP3    H165125   0.541   2.339   0.587  2.1986  0.3583 -0.4786
14570TIP3    H265126   0.442   2.351   0.473 -1.6103 -3.2103  2.1461
14571TIP3   OH265127   1.271   2.773  16.944 -0.1084 -0.0084  0.3960
14571TIP3    H165128   1.211   2.708  16.981 -0.4006  1.5808  3.0523
14571TIP3    H265129   1.261   2.765  16.849 -1.5388 -2.4738  0.6820
14572TIP3   OH265130   3.392   0.871   2.938 -0.0913 -0.2172  0.2842
14572TIP3    H165131   3.451   0.823   2.996  0.1613 -0.2349  0.0182
14572TIP3    H265132   3.385   0.959   2.977  0.5107 -0.0600  0.0494
14573TIP3   OH265133   1.197   5.481  14.277  0.3290 -0.3155 -0.1333
14573TIP3    H165134   1.281   5.443  14.252  0.5410 -1.0313  1.5115
14573TIP3    H265135   1.200   5.571  14.244  0.8764 -0.9295 -1.8561
14574TIP3   OH265136   3.151   5.546  15.396  0.0379  0.4432 -0.1654
14574TIP3    H165137   3.188   5.568  15.310 -1.1537 -0.0185 -0.8105
14574TIP3    H265138   3.226   5.511  15.445  0.6809  0.4359 -1.1055
14575TIP3   OH265139   1.761   5.718   3.553 -0.5723  0.0051  0.0705
14575TIP3    H165140   1.843   5.681   3.521 -1.7107 -0.9246 -1.9911
14575TIP3    H265141   1.720   5.756   3.475 -2.7964 -0.9388  0.7050
14576TIP3   OH265142   5.954   6.748  15.527 -0.5404 -0.3351 -0.1746
14576TIP3    H165143   5.897   6.672  15.537 -0.6195 -0.5060 -1.7029
14576TIP3    H265144   6.025   6.718  15.470 -1.2398  1.0464 -1.8663
14577TIP3   OH265145   2.743   2.862  14.536  0.1338  0.1720 -0.2082
14577TIP3    H165146   2.775   2.915  14.609  1.1287 -2.4079  1.4098
14577TIP3    H265147   2.648   2.867  14.542  0.0102  4.3098 -2.2515
14578TIP3   OH265148   2.280   5.567  11.612  0.3309  0.0960 -0.0441
14578TIP3    H165149   2.233   5.552  11.531  0.7381 -1.3643 -0.0301
14578TIP3    H265150   2.309   5.658  11.606  0.3646  0.0112 -1.5344
14579TIP3   OH265151   5.970   0.617   3.682  0.1368  0.1108 -0.6437
14579TIP3    H165152   6.030   0.543   3.673  0.8257  0.5840 -0.0174
14579TIP3    H265153   5.971   0.659   3.596  1.9563  1.0464 -0.2117
14580TIP3   OH265154   0.603   4.380  10.437 -0.4111 -0.3103 -0.2313
14580TIP3    H165155   0.637   4.401  10.524 -0.6706  0.4426 -0.3092
14580TIP3    H265156   0.642   4.295  10.417  2.3639  0.9967 -0.8215
14581TIP3   OH265157   0.395   0.012  11.532 -0.3875  0.7041  0.4239
14581TIP3    H165158   0.303   0.028  11.512 -0.3493 -0.1954 -0.5955
14581TIP3    H265159   0.398  -0.079  11.561  0.3419  0.2695 -0.8967
14582TIP3   OH265160   1.192   4.608  15.618  0.3469 -0.0433 -0.0844
14582TIP3    H165161   1.263   4.561  15.573 -0.6422 -1.5909 -0.1111
14582TIP3    H265162   1.197   4.697  15.585  1.6895 -0.3552 -0.7921
14583TIP3   OH265163   0.054   4.964  11.269  0.1325 -0.2711 -0.2346
14583TIP3    H165164   0.105   4.885  11.249  0.2013 -1.0906  2.6719
14583TIP3    H265165  -0.031   4.948  11.228  0.8603 -0.7805 -1.6196
14584TIP3   OH265166   5.928   5.026  16.853 -0.0406 -0.3875 -0.0513
14584TIP3    H165167   5.913   5.067  16.768  2.9366 -0.5884 -0.7875
14584TIP3    H265168   5.932   5.098  16.915 -2.4438 -0.2527  0.0490
14585TIP3   OH265169   5.032   5.833   2.062 -0.1975 -0.3021  0.4379
14585TIP3    H165170   5.046   5.745   2.026  0.8142  0.1475 -0.3343
14585TIP3    H265171   5.104   5.846   2.123 -0.2141  0.0767  0.3788
14586TIP3   OH265172   4.370   1.738  12.229 -0.2471  0.0977 -0.4802
14586TIP3    H165173   4.436   1.746  12.297  0.6869  3.4001 -1.5732
14586TIP3    H265174   4.291   1.711  12.275  0.8215  0.3012  1.5895
14587TIP3   OH265175   1.988   0.736   2.639 -0.1327  0.3019  0.1591
14587TIP3    H165176   1.980   0.785   2.557 -1.3049  0.1605  0.1684
14587TIP3    H265177   2.034   0.656   2.615 -0.5222  0.2358 -0.3797
14588TIP3   OH265178   5.439   1.079   3.258  0.3731  0.2219 -0.7850
14588TIP3    H165179   5.437   1.173   3.242  2.6139  0.1072 -2.1363
14588TIP3    H265180   5.471   1.041   3.176  2.1251 -1.4451  0.5637
14589TIP3   OH265181   1.322   5.139   3.048 -0.7977 -0.2482 -0.0615
14589TIP3    H165182   1.254   5.185   3.097  0.2807  1.4842 -0.1435
14589TIP3    H265183   1.391   5.121   3.112 -0.2503  0.2467 -0.5049
14590TIP3   OH265184   4.955   3.905  14.630  0.0572 -0.6575  0.1553
14590TIP3    H165185   4.949   3.944  14.717 -0.7562 -0.0944 -0.1387
14590TIP3    H265186   5.028   3.950  14.587 -0.3068 -0.0808  0.1333
14591TIP3   OH265187   3.818   2.007   1.636 -0.1461 -0.0797  0.0180
14591TIP3    H165188   3.729   2.043   1.635 -0.9270 -1.8797 -1.0979
14591TIP3    H265189   3.868   2.067   1.580 -0.9331  0.3472 -0.2544
14592TIP3   OH265190   0.486   4.584  17.194 -0.5212  0.4319  0.1257
14592TIP3    H165191   0.439   4.668  17.195 -2.2644 -0.5059  0.7778
14592TIP3    H265192   0.418   4.519  17.178  0.9388 -0.8082 -1.4128
14593TIP3   OH265193   5.376   0.653  11.978  0.0352  0.0197 -0.3364
14593TIP3    H165194   5.410   0.685  11.895 -0.0494  1.4370  0.1520
14593TIP3    H265195   5.326   0.575  11.955 -0.3363  0.6305 -1.6654
14594TIP3   OH265196   6.425   2.686   3.120  0.0611  0.1487  0.3116
14594TIP3    H165197   6.333   2.660   3.115  0.0264  0.1859  0.7380
14594TIP3    H265198   6.429   2.771   3.075  0.0422 -0.2363 -0.4337
14595TIP3   OH265199   2.057   0.443  15.316 -0.3031 -0.5582 -0.0641
14595TIP3    H165200   1.996   0.469  15.384 -0.1834  0.6368 -0.3997
14595TIP3    H265201   2.055   0.514  15.252 -0.7683 -1.8553 -1.5656
14596TIP3   OH265202   6.581   0.559  16.353  0.1877  0.7150 -0.1208
14596TIP3    H165203   6.603   0.607  16.433  0.1085  0.8533 -0.1809
14596TIP3    H265204   6.602   0.468  16.373  1.1607  0.8875 -0.2945
14597TIP3   OH265205   6.389   5.620   2.527 -0.1058 -0.2896 -0.1902
14597TIP3    H165206   6.422   5.534   2.553  1.2123 -0.4722 -2.2522
14597TIP3    H265207   6.294   5.613   2.538 -0.2629 -2.7581 -2.2479
14598TIP3   OH265208   4.735   5.450  10.951 -0.0297  0.1820 -0.0388
14598TIP3    H165209   4.729   5.400  11.033  1.1050  1.3718  0.8281
14598TIP3    H265210   4.735   5.384  10.882 -0.4809 -0.8880  0.9495
14599TIP3   OH265211   6.130   0.407   5.072 -0.2370 -0.3429 -0.4728
14599TIP3    H165212   6.079   0.470   5.123  2.2000  2.9184 -1.6696
14599TIP3    H265213   6.066   0.365   5.014 -2.2655 -0.4643  1.7088
14600TIP3   OH265214   1.133   0.279   0.170 -0.3662 -0.3132  0.3172
14600TIP3    H165215   1.128   0.189   0.200  0.2725 -0.0083  1.3631
14600TIP3    H265216   1.222   0.307   0.191 -0.2372  0.2670 -0.8795
14601TIP3   OH265217   0.804   3.871  14.071  0.0166 -0.6744 -0.4267
14601TIP3    H165218   0.821   3.824  14.152  1.1973  0.3469 -0.0585
14601TIP3    H265219   0.890   3.904  14.044 -0.7471  1.1082 -0.7716
14602TIP3   OH265220   5.734   4.982  15.618  0.1674 -0.0765  0.4752
14602TIP3    H165221   5.682   4.938  15.550 -0.2782  0.0073  0.7594
14602TIP3    H265222   5.689   4.960  15.700 -0.2848  1.2125  0.5928
14603TIP3   OH265223   2.683   3.486   5.116  0.0314 -0.4597  0.3339
14603TIP3    H165224   2.619   3.417   5.095  1.3494 -1.7015  0.2554
14603TIP3    H265225   2.664   3.509   5.207 -0.6612 -0.6549  0.2489
14604TIP3   OH265226   1.920   1.026  13.600  0.3293 -0.5147 -0.2084
14604TIP3    H165227   1.886   0.950  13.647  1.8355 -0.9670  0.2179
14604TIP3    H265228   2.015   1.015  13.602  0.6642  1.8628  0.6819
14605TIP3   OH265229   5.330   0.240  13.686  0.0732 -0.4452  0.7598
14605TIP3    H165230   5.413   0.233  13.638 -1.0521  4.4370 -2.6138
14605TIP3    H265231   5.353   0.287  13.766  0.7691 -0.9808  0.8937
14606TIP3   OH265232   1.645   2.421   1.823  0.7483 -0.0688 -0.2276
14606TIP3    H165233   1.604   2.505   1.801  1.9322  0.6516  0.2249
14606TIP3    H265234   1.620   2.405   1.914 -2.0970 -1.8261 -1.1915
14607TIP3   OH265235   0.630   0.061   0.126  0.5422  0.2911 -0.2509
14607TIP3    H165236   0.583   0.132   0.169 -0.4862 -0.8256  0.5752
14607TIP3    H265237   0.675   0.102   0.053  2.1030  2.2340  1.6858
14608TIP3   OH265238   0.037   5.400   4.363 -0.0767  0.0283  0.4726
14608TIP3    H165239   0.001   5.312   4.353  0.6077 -0.1704 -0.4263
14608TIP3    H265240  -0.033   5.459   4.336  0.7271 -0.4026 -2.9872
14609TIP3   OH265241   5.366   4.428  13.861 -0.6677 -0.5422 -0.2314
14609TIP3    H165242   5.414   4.469  13.789  0.7453 -1.0789  0.3662
14609TIP3    H265243   5.299   4.375  13.818 -0.6949  0.1703 -1.0986
14610TIP3   OH265244   2.514   1.744   2.337  0.3757 -0.3884 -0.4421
14610TIP3    H165245   2.447   1.758   2.270 -1.0741 -1.7816  0.6324
14610TIP3    H265246   2.473   1.773   2.418  2.0902  1.2482 -0.1027
14611TIP3   OH265247   5.290   2.987   4.470  0.0085  0.6479 -0.6772
14611TIP3    H165248   5.239   2.906   4.463 -0.1874  0.7769 -0.7625
14611TIP3    H265249   5.224   3.055   4.483  0.2609  0.5553  1.5508
14612TIP3   OH265250   3.078   2.770  12.520  0.5082 -0.4966  0.2848
14612TIP3    H165251   3.033   2.845  12.480  1.8136  0.2209  0.0916
14612TIP3    H265252   3.117   2.806  12.600 -0.2609 -1.4033  1.0874
14613TIP3   OH265253   2.093   4.407   5.741 -0.3888 -0.4733  0.1398
14613TIP3    H165254   2.030   4.479   5.741  0.6393  0.4503  0.1359
14613TIP3    H265255   2.104   4.384   5.833 -0.1421 -0.0970  0.2057
14614TIP3   OH265256   2.685   0.402  14.825 -0.5839 -0.1176  0.3791
14614TIP3    H165257   2.601   0.429  14.788  0.5118 -0.0430 -2.2822
14614TIP3    H265258   2.737   0.482  14.828 -0.4115 -0.2438  1.6071
14615TIP3   OH265259   5.181   3.795  13.440 -0.1305  0.6725 -0.0337
14615TIP3    H165260   5.260   3.758  13.400  0.9861  2.4065  0.4498
14615TIP3    H265261   5.128   3.719  13.463  2.6546 -0.8123  2.2296
14616TIP3   OH265262   2.136   3.161  13.192  0.0349 -0.2788  0.3946
14616TIP3    H165263   2.139   3.193  13.282  1.6055  0.8248 -0.0082
14616TIP3    H265264   2.156   3.238  13.138  0.9294 -1.2900 -0.7944
14617TIP3   OH265265   1.417   4.934   3.417  0.0481 -0.0599 -0.8014
14617TIP3    H165266   1.331   4.916   3.378 -0.0950 -0.5546 -0.2617
14617TIP3    H265267   1.407   4.912   3.510  0.7478 -0.0851 -0.7258
14618TIP3   OH265268   6.576   3.482  12.969 -0.0435  0.0529  0.4458
14618TIP3    H165269   6.637   3.479  12.895  0.9322  0.3196  1.2146
14618TIP3    H265270   6.597   3.405  13.021 -0.5920 -0.0344  0.5429
14619TIP3   OH265271   5.530   5.560   5.344 -0.2311 -0.3680  0.1200
14619TIP3    H165272   5.516   5.535   5.436  0.6339 -0.5949  0.2082
14619TIP3    H265273   5.550   5.477   5.300 -1.7834 -0.4304 -0.5285
14620TIP3   OH265274   6.503   1.688  12.303  0.0737 -0.2809  0.0656
14620TIP3    H165275   6.479   1.681  12.396 -1.9921 -3.6088 -0.5393
14620TIP3    H265276   6.422   1.715  12.260  0.9738  1.0877 -0.8555
14621TIP3   OH265277   3.377   2.178  14.339 -0.1582  0.5993 -0.1231
14621TIP3    H165278   3.287   2.206  14.319  0.4841  1.8827 -1.3738
14621TIP3    H265279   3.379   2.173  14.435 -1.2746  1.5904 -0.0172
14622TIP3   OH265280   6.401   2.079   5.807  0.0929 -0.2012  0.2136
14622TIP3    H165281   6.452   2.050   5.882 -1.6849 -2.6750  0.5956
14622TIP3    H265282   6.321   2.115   5.845  0.2377  0.8656 -0.4455
14623TIP3   OH265283   1.377   6.679   5.954  0.2990  0.6529  0.4167
14623TIP3    H165284   1.415   6.706   5.870  1.3972 -0.1445  0.6421
14623TIP3    H265285   1.433   6.719   6.020  0.0496  0.4330  0.7641
14624TIP3   OH265286   4.190   3.581  14.600  0.3745  0.8081  0.1636
14624TIP3    H165287   4.099   3.558  14.579  0.9603 -2.0871  0.4528
14624TIP3    H265288   4.208   3.658  14.545 -2.0324  1.1062 -0.3376
14625TIP3   OH265289   2.002   0.853   2.225 -0.1200 -0.0442 -0.4049
14625TIP3    H165290   1.963   0.780   2.273  1.6874 -0.9805 -0.3055
14625TIP3    H265291   1.955   0.854   2.141 -1.2425 -0.2717  0.1969
14626TIP3   OH265292   3.511   2.914  13.581 -0.8644 -0.1085 -0.0842
14626TIP3    H165293   3.430   2.934  13.534 -0.6308  1.2836  0.0538
14626TIP3    H265294   3.493   2.832  13.627 -1.9695 -0.1548 -0.5732
14627TIP3   OH265295   1.269   4.730   4.478  0.1728 -0.3984 -0.5090
14627TIP3    H165296   1.262   4.690   4.565 -0.2745  0.1605 -0.2828
14627TIP3    H265297   1.362   4.725   4.456  0.0616 -1.9736 -0.6882
14628TIP3   OH265298   6.536   4.909   6.278 -0.2671 -0.0796  0.1124
14628TIP3    H165299   6.591   4.985   6.298  0.2092  0.1000 -1.7011
14628TIP3    H265300   6.588   4.834   6.306  0.6903  0.1153 -1.0998
14629TIP3   OH265301   6.259   5.313  12.910  0.5607 -0.0375 -0.2479
14629TIP3    H165302   6.275   5.407  12.916  0.4540 -0.0705  0.6415
14629TIP3    H265303   6.344   5.276  12.885  1.0136  0.1433  0.9606
14630TIP3   OH265304   3.044   0.095   0.438 -0.0934  0.2367 -0.2992
14630TIP3    H165305   3.050   0.178   0.390  0.2345  0.4378  0.0809
14630TIP3    H265306   2.953   0.090   0.465 -0.2392  0.2090 -0.7914
14631TIP3   OH265307   4.445   0.611  14.108 -0.4210  0.2673 -0.0313
14631TIP3    H165308   4.478   0.526  14.078 -1.1152 -0.2867  0.7234
14631TIP3    H265309   4.379   0.589  14.173  1.5234  1.4069  2.4901
14632TIP3   OH265310   0.918   2.667  16.118 -0.6193  0.3363  0.2709
14632TIP3    H165311   0.939   2.679  16.025 -0.5841 -0.4020  0.1807
14632TIP3    H265312   1.001   2.642  16.158 -0.7938 -0.0903  0.3675
14633TIP3   OH265313   4.570   0.013  16.276  0.2174  1.1496 -0.0841
14633TIP3    H165314   4.640  -0.043  16.244 -1.3183 -0.9956  0.0992
14633TIP3    H265315   4.542   0.063  16.200  0.6757  0.5977 -0.6232
14634TIP3   OH265316   0.718   5.952   0.278  0.1984 -0.0538 -0.1022
14634TIP3    H165317   0.643   5.936   0.337 -0.2374 -3.2041 -1.3226
14634TIP3    H265318   0.795   5.943   0.335 -0.1460  3.8344  1.3076
14635TIP3   OH265319   2.783   2.415  12.695  0.0083  0.6276  0.1810
14635TIP3    H165320   2.763   2.340  12.751 -0.3558 -0.0164 -0.7846
14635TIP3    H265321   2.802   2.486  12.756 -0.0076 -0.1503  1.1157
14636TIP3   OH265322   5.719   2.236   3.300  0.4445 -0.0160 -0.3539
14636TIP3    H165323   5.794   2.220   3.357 -0.1763 -0.1427  0.4509
14636TIP3    H265324   5.715   2.160   3.243  1.2153  0.2201 -0.7453
14637TIP3   OH265325   3.536   4.639  11.374  0.3106 -0.2018  0.1423
14637TIP3    H165326   3.499   4.641  11.285  0.8283 -0.9199 -0.1018
14637TIP3    H265327   3.460   4.634  11.431 -0.0038 -0.9069 -0.3195
14638TIP3   OH265328   6.214   3.461   3.932  0.3370  0.0697  0.6600
14638TIP3    H165329   6.129   3.419   3.944  0.8683 -1.1962  0.1642
14638TIP3    H265330   6.195   3.555   3.934 -0.7797 -0.1510  2.6113
14639TIP3   OH265331   2.727   1.147  14.772  0.6082  0.0715 -0.2776
14639TIP3    H165332   2.738   1.052  14.777 -3.3093 -0.6457 -1.8655
14639TIP3    H265333   2.816   1.182  14.777  2.2154 -3.6648  0.0881
14640TIP3   OH265334   4.223   2.184   4.779 -0.2270 -0.5373  0.3456
14640TIP3    H165335   4.293   2.165   4.841  1.6319  1.0241 -1.1268
14640TIP3    H265336   4.211   2.279   4.784  0.8137 -0.1455 -2.3568
14641TIP3   OH265337   2.962   2.242   6.882 -0.4539 -0.3779 -0.0507
14641TIP3    H165338   2.991   2.192   6.958 -0.1693 -1.3088 -0.7365
14641TIP3    H265339   2.977   2.182   6.808 -2.1474 -0.0923 -0.6737
14642TIP3   OH265340   3.976   0.730  10.892 -0.4278 -0.4549 -0.1267
14642TIP3    H165341   3.931   0.651  10.923  0.6157 -0.7582  0.6903
14642TIP3    H265342   3.924   0.803  10.926 -0.2032 -0.7991  0.9987
14643TIP3   OH265343   5.285   3.702  11.049  0.0594  0.0890  0.7437
14643TIP3    H165344   5.290   3.708  10.953  1.5042  1.8701  0.8870
14643TIP3    H265345   5.369   3.667  11.076 -0.9142 -1.9714  1.3347
14644TIP3   OH265346   6.599   2.218   5.642 -0.0119  0.0013 -0.3187
14644TIP3    H165347   6.688   2.220   5.676  0.1786 -0.9463 -0.6958
14644TIP3    H265348   6.546   2.187   5.715  0.3040 -1.4413 -0.6507
14645TIP3   OH265349   3.705   1.499  14.000  0.2531 -0.5618 -0.5026
14645TIP3    H165350   3.719   1.414  14.042  1.0246 -0.4323 -0.4669
14645TIP3    H265351   3.612   1.501  13.979 -0.1784 -0.6310  1.2139
14646TIP3   OH265352   4.293   0.584   0.933  0.1892 -0.0167 -0.2953
14646TIP3    H165353   4.297   0.677   0.955  1.6754  0.2052 -1.3346
14646TIP3    H265354   4.283   0.582   0.838  1.8506 -0.8739 -0.4989
14647TIP3   OH265355   5.507   1.828   4.343 -0.0024 -0.0513 -0.0754
14647TIP3    H165356   5.540   1.826   4.432  0.8334 -1.9048 -0.3788
14647TIP3    H265357   5.441   1.758   4.341 -0.0020 -0.0334 -0.9161
14648TIP3   OH265358   2.020   3.159  12.662  0.3749  1.1454  0.4443
14648TIP3    H165359   1.967   3.211  12.601 -0.3242 -0.9624 -0.8775
14648TIP3    H265360   2.098   3.136  12.612  0.0334 -0.1931  0.5033
14649TIP3   OH265361   4.267   0.317   1.162 -0.4935  0.2230  0.0551
14649TIP3    H165362   4.292   0.245   1.104  2.6524  0.5250  0.8551
14649TIP3    H265363   4.284   0.283   1.250 -2.5422  0.7380  0.7066
14650TIP3   OH265364   3.747   5.034  16.897  0.4717  0.0402  0.0090
14650TIP3    H165365   3.755   5.037  16.802  1.0055  0.6345  0.0632
14650TIP3    H265366   3.654   5.045  16.914  0.0759 -2.1220 -0.5009
14651TIP3   OH265367   5.804   6.465  11.243 -0.0364  0.2526  0.0525
14651TIP3    H165368   5.824   6.503  11.157  1.1781  1.2643  0.7385
14651TIP3    H265369   5.727   6.513  11.272  1.5271  2.4287  0.9487
14652TIP3   OH265370   5.565   1.457  12.644 -0.4349 -0.4075  0.2579
14652TIP3    H165371   5.608   1.444  12.560 -0.1844  1.3442  0.0757
14652TIP3    H265372   5.627   1.424  12.709 -0.6013 -1.7035 -0.2223
14653TIP3   OH265373   0.704   5.015  13.646 -0.8109  0.1330 -0.1968
14653TIP3    H165374   0.735   5.010  13.737  1.7314 -0.3943 -1.0174
14653TIP3    H265375   0.665   5.102  13.638 -0.6848  0.3489  1.2755
14654TIP3   OH265376   3.199   0.414   3.236  0.3081 -0.5545 -0.0487
14654TIP3    H165377   3.161   0.499   3.259 -0.0136 -0.3257 -1.3250
14654TIP3    H265378   3.125   0.354   3.234  0.0451 -0.2240 -1.9980
14655TIP3   OH265379   0.817   2.190   0.309  0.3265  0.5674 -0.0686
14655TIP3    H165380   0.789   2.280   0.326  1.7665  1.2949 -1.3364
14655TIP3    H265381   0.911   2.190   0.326  0.1643 -1.0210  1.0579
14656TIP3   OH265382   4.005   0.598   3.679  0.2276 -0.2479 -0.7804
14656TIP3    H165383   4.066   0.650   3.730 -0.8268 -0.5228  0.8319
14656TIP3    H265384   3.936   0.659   3.655  0.3195 -0.3039 -1.1927
14657TIP3   OH265385   4.554   3.022  11.613  0.0451 -0.4027  0.2925
14657TIP3    H165386   4.571   2.971  11.534 -0.9675 -1.1146  0.5222
14657TIP3    H265387   4.641   3.036  11.651  0.3350 -2.4033  0.4916
14658TIP3   OH265388   1.250   5.064  13.814 -0.2342 -0.4343 -0.3665
14658TIP3    H165389   1.220   5.039  13.901  0.8921  0.4931  0.3210
14658TIP3    H265390   1.301   4.989  13.784  0.0618 -0.4361  0.1329
14659TIP3   OH265391   6.690   3.033   4.156  0.9316  0.6360 -0.4853
14659TIP3    H165392   6.664   3.125   4.149  1.5029  0.8035 -0.4270
14659TIP3    H265393   6.770   3.035   4.208  0.4128  0.0156  0.3484
14660TIP3   OH265394   1.090   3.876  16.348  0.2959 -0.2843 -0.0282
14660TIP3    H165395   1.155   3.946  16.343  2.1078 -1.5831  2.6159
14660TIP3    H265396   1.031   3.903  16.418 -0.2830 -0.4071 -0.4685
14661TIP3   OH265397   2.412   6.759  15.455 -0.0553  0.1665 -0.3376
14661TIP3    H165398   2.446   6.841  15.419  0.4948  0.1798  0.1878
14661TIP3    H265399   2.330   6.783  15.497  0.1234  0.4538 -0.1531
14662TIP3   OH265400   2.357   6.216  15.019 -0.5892 -0.0641 -0.3360
14662TIP3    H165401   2.312   6.180  15.095 -0.3394 -1.1322 -0.6711
14662TIP3    H265402   2.445   6.177  15.022 -1.0079 -1.2457 -1.9002
14663TIP3   OH265403   6.595   4.877   5.591 -0.4832  0.1830  0.0219
14663TIP3    H165404   6.578   4.891   5.498 -2.6155 -0.8967  0.1942
14663TIP3    H265405   6.594   4.965   5.629 -0.6007  0.5536 -0.8181
14664TIP3   OH265406   5.941   4.957   1.130 -0.1713 -0.9527  0.0565
14664TIP3    H165407   6.003   4.981   1.199  0.6298 -1.7087 -0.3859
14664TIP3    H265408   5.858   4.945   1.177 -0.2970  1.1664  0.4978
14665TIP3   OH265409   2.395   0.670   4.915  0.1103 -0.2134 -0.0220
14665TIP3    H165410   2.381   0.596   4.974 -2.5011 -0.1716 -0.4569
14665TIP3    H265411   2.356   0.745   4.960 -0.8718  0.0488 -1.2432
14666TIP3   OH265412   2.332   4.233   4.020 -0.0091  0.2487 -0.0962
14666TIP3    H165413   2.280   4.223   4.100 -1.2828  0.7470 -0.8312
14666TIP3    H265414   2.270   4.267   3.955  0.6366 -1.3629 -1.6622
14667TIP3   OH265415   6.451   5.428   1.432  0.1092  0.2126  0.2152
14667TIP3    H165416   6.546   5.422   1.447 -0.1018 -1.7046  0.9914
14667TIP3    H265417   6.412   5.386   1.508 -1.4673  2.1326  0.5577
14668TIP3   OH265418   1.642   4.295   0.897 -0.2336 -0.1772 -0.4543
14668TIP3    H165419   1.595   4.324   0.976  0.0198  1.9595 -1.0121
14668TIP3    H265420   1.573   4.274   0.834 -0.4436 -0.3178 -0.1787
14669TIP3   OH265421   6.138   5.369   1.689  0.1898 -0.2664  0.3737
14669TIP3    H165422   6.103   5.454   1.663  0.2788  0.2711  1.8940
14669TIP3    H265423   6.212   5.390   1.746  1.8525 -1.3802 -1.2365
14670TIP3   OH265424   6.015   6.317  15.621  0.2649 -0.1017  0.2439
14670TIP3    H165425   5.920   6.317  15.615  0.0333  3.0786  1.8561
14670TIP3    H265426   6.034   6.349  15.709  2.9088 -2.9190  0.8428
14671TIP3   OH265427   5.799   2.535  11.155  0.5990 -0.0496  0.4355
14671TIP3    H165428   5.773   2.486  11.077 -1.1506  0.7279  0.4795
14671TIP3    H265429   5.791   2.472  11.227  0.1611 -0.2028  0.2536
14672TIP3   OH265430   1.978   5.466   5.671  0.5987  0.1449 -0.1898
14672TIP3    H165431   1.926   5.476   5.591 -1.2366  0.4719  0.9811
14672TIP3    H265432   1.976   5.553   5.712  0.7034 -0.2524  0.6806
14673TIP3   OH265433   3.852   5.473   1.006  0.0706  0.0056 -0.1265
14673TIP3    H165434   3.815   5.529   1.074  0.6879  0.4008 -0.1068
14673TIP3    H265435   3.805   5.390   1.015  0.6228 -0.1863  1.2362
14674TIP3   OH265436   1.530   4.239   5.858 -0.3753  0.5411 -0.0921
14674TIP3    H165437   1.435   4.224   5.865 -0.3330  0.7167  0.9559
14674TIP3    H265438   1.551   4.296   5.931  0.3856  1.3544 -0.9167
14675TIP3   OH265439   1.857   3.537  14.436 -0.5306 -0.4969  0.4367
14675TIP3    H165440   1.870   3.630  14.416 -1.6626 -0.5663 -0.7251
14675TIP3    H265441   1.771   3.533  14.478 -0.1251 -0.9257  1.2365
14676TIP3   OH265442   6.554   4.779   4.456  0.5879 -0.3095 -0.3809
14676TIP3    H165443   6.581   4.708   4.515  0.7624 -0.3037 -0.4534
14676TIP3    H265444   6.531   4.734   4.374 -2.1073 -0.6132  0.4524
14677TIP3   OH265445   4.632   3.911  17.036 -0.1370 -0.1490 -0.5089
14677TIP3    H165446   4.658   4.002  17.050  0.0896 -0.5125  1.9568
14677TIP3    H265447   4.713   3.867  17.008  0.8415 -0.2883  2.2139
14678TIP3   OH265448   0.319   2.433  12.771  0.0213  0.8541 -0.1419
14678TIP3    H165449   0.370   2.387  12.838  1.7041  1.7972 -0.7086
14678TIP3    H265450   0.306   2.521  12.806 -3.0744  0.0975  0.8813
14679TIP3   OH265451   2.198   1.624   0.691  0.1072 -0.2591  0.4193
14679TIP3    H165452   2.161   1.635   0.604 -0.9920  1.5668  1.0536
14679TIP3    H265453   2.292   1.622   0.677 -0.0223  0.7442 -0.7670
14680TIP3   OH265454   1.583   0.536  13.683  0.0493 -0.0217 -0.6647
14680TIP3    H165455   1.502   0.511  13.639  1.6811 -2.1306 -2.7451
14680TIP3    H265456   1.600   0.625  13.652 -1.4886  0.5181 -0.0666
14681TIP3   OH265457   0.131   3.004   1.346 -0.5094 -0.3463  0.0343
14681TIP3    H165458   0.119   3.026   1.438  1.6411  2.2273 -0.1618
14681TIP3    H265459   0.205   3.059   1.318 -1.7228 -0.2623 -3.4952
14682TIP3   OH265460   0.995   3.341  12.487 -0.0243 -0.2253 -0.1209
14682TIP3    H165461   1.053   3.265  12.491  0.0349 -0.1561  0.6519
14682TIP3    H265462   0.933   3.321  12.418  0.2620 -0.7814 -0.2249
14683TIP3   OH265463   0.536   4.546   2.340  0.1336 -0.0240 -0.1424
14683TIP3    H165464   0.486   4.537   2.421 -0.7424 -0.8551 -0.7694
14683TIP3    H265465   0.597   4.472   2.341 -0.5300 -0.5848 -0.6932
14684TIP3   OH265466   6.095   0.842   4.674 -0.2690 -0.0709 -0.8826
14684TIP3    H165467   6.125   0.757   4.705  1.7611  0.9242  0.0411
14684TIP3    H265468   6.070   0.889   4.754 -1.3507  0.2310 -1.3776
14685TIP3   OH265469   3.088   4.581  10.850 -0.1066 -0.5718 -0.0591
14685TIP3    H165470   3.115   4.557  10.762  1.4076  2.1638 -0.4505
14685TIP3    H265471   3.119   4.508  10.905  1.1498 -1.1751 -1.5002
14686TIP3   OH265472   2.299   3.715  12.201 -0.0728 -0.1990 -0.4959
14686TIP3    H165473   2.288   3.708  12.296  0.3666  1.2542 -0.3132
14686TIP3    H265474   2.250   3.641  12.166 -2.3990  0.6559  0.7246
14687TIP3   OH265475   4.373   5.302  13.841  0.1009 -0.3088 -0.0517
14687TIP3    H165476   4.379   5.307  13.745  0.6105  0.4460  0.0119
14687TIP3    H265477   4.325   5.380  13.866  1.1018  0.1847  0.3911
14688TIP3   OH265478   6.057   0.952  16.549  0.3756  0.8293  0.0106
14688TIP3    H165479   6.077   0.878  16.492 -0.3868  1.0777 -0.5991
14688TIP3    H265480   6.083   0.923  16.637 -1.7483 -0.9652  0.1274
14689TIP3   OH265481   0.140   0.644   5.760 -0.0504 -0.8311  0.5058
14689TIP3    H165482   0.051   0.639   5.724  0.3185  2.3951 -1.2362
14689TIP3    H265483   0.186   0.570   5.721 -0.6124  0.5725 -3.1713
14690TIP3   OH265484   4.720   1.331   6.559  0.3882  0.3905  0.2547
14690TIP3    H165485   4.667   1.387   6.614  0.5616 -0.2595  1.1050
14690TIP3    H265486   4.782   1.289   6.619 -0.5084 -1.6111 -0.1303
14691TIP3   OH265487   1.995   6.086   5.621  0.1906  0.2766  0.2496
14691TIP3    H165488   1.987   6.056   5.531  0.2465  0.8022  0.0686
14691TIP3    H265489   1.926   6.038   5.668  0.7294 -0.6608  0.1064
14692TIP3   OH265490   1.976   6.465  15.788  0.0830  0.0344 -0.0320
14692TIP3    H165491   1.992   6.372  15.771  0.6692  0.3746 -1.4792
14692TIP3    H265492   1.923   6.466  15.868  1.3264 -1.4672  0.8722
14693TIP3   OH265493   4.063   5.319   4.447 -0.3444  0.5715 -0.2474
14693TIP3    H165494   4.059   5.244   4.505  0.9751  2.0431  1.9206
14693TIP3    H265495   4.146   5.309   4.400 -1.0635 -0.2457 -1.3769
14694TIP3   OH265496   4.022   6.796  12.358  0.5554  0.6069  0.1753
14694TIP3    H165497   4.067   6.855  12.298 -0.2629  0.9052 -0.1564
14694TIP3    H265498   3.929   6.817  12.348  0.1587 -1.3568 -0.6109
14695TIP3   OH265499   3.343   4.732  11.211  0.1477 -0.7769 -0.1578
14695TIP3    H165500   3.380   4.817  11.233 -1.5185 -0.1368  0.2814
14695TIP3    H265501   3.368   4.718  11.119 -2.1214  1.6812 -1.2903
14696TIP3   OH265502   5.265   4.267   1.662  0.1980  0.0103 -0.8420
14696TIP3    H165503   5.239   4.357   1.683 -1.5936 -0.8347  0.9441
14696TIP3    H265504   5.282   4.268   1.567 -0.7579  2.0025 -1.0428
14697TIP3   OH265505   3.527   5.011   1.158 -0.1509  0.4031  0.2295
14697TIP3    H165506   3.525   5.106   1.146  1.4169  0.3951 -0.2724
14697TIP3    H265507   3.577   4.998   1.239  1.9753 -0.0362 -1.0751
14698TIP3   OH265508   4.672   6.407   2.021  0.2614 -0.9154  0.0278
14698TIP3    H165509   4.619   6.453   2.086  0.6598 -0.6197  0.1482
14698TIP3    H265510   4.761   6.436   2.038  0.3579 -0.7281 -0.7299
14699TIP3   OH265511   1.914   4.431  12.588 -0.0786  0.5278  0.3279
14699TIP3    H165512   1.823   4.410  12.564 -0.3894  2.2994 -0.2158
14699TIP3    H265513   1.948   4.477  12.511  1.1769  0.1626  0.6579
14700TIP3   OH265514   2.783   1.745  13.345  0.0483 -0.4150  0.3595
14700TIP3    H165515   2.704   1.691  13.341  1.4183 -2.5161  0.7824
14700TIP3    H265516   2.811   1.753  13.254 -0.6131  0.3460  0.2056
14701TIP3   OH265517   0.606   1.188  14.178  0.1648  0.2718  0.8027
14701TIP3    H165518   0.535   1.177  14.241 -0.8066  1.9888  0.0864
14701TIP3    H265519   0.605   1.281  14.156  0.6397 -0.1822 -1.5063
14702TIP3   OH265520   5.592   4.874  15.816 -0.7930  0.3997  0.0746
14702TIP3    H165521   5.500   4.894  15.805 -1.2298 -1.2055  0.4659
14702TIP3    H265522   5.601   4.854  15.910 -0.2055 -0.0930 -0.0744
14703TIP3   OH265523   4.589   2.160  16.877  0.0995 -0.1346 -0.6246
14703TIP3    H165524   4.613   2.127  16.790 -1.1643 -0.0767 -1.0077
14703TIP3    H265525   4.673   2.172  16.922  0.7317 -0.8733 -1.5734
14704TIP3   OH265526   0.311   3.831   5.126  0.1624 -0.4494  0.0193
14704TIP3    H165527   0.354   3.768   5.067  0.1944 -0.0400 -0.3941
14704TIP3    H265528   0.383   3.881   5.164  0.1271 -0.5687  0.2462
14705TIP3   OH265529   6.614   5.174   2.673  0.2653 -0.0993 -0.2256
14705TIP3    H165530   6.584   5.213   2.755  0.3160 -0.6336  0.0466
14705TIP3    H265531   6.570   5.090   2.668 -0.8743  0.5369 -1.4629
14706TIP3   OH265532   1.737   1.130   0.404 -0.1784  0.0435 -0.2117
14706TIP3    H165533   1.684   1.210   0.409 -0.0629  0.1188 -0.2046
14706TIP3    H265534   1.825   1.158   0.427  0.0201  0.0726 -0.9813
14707TIP3   OH265535   2.564   1.535  12.351  0.4561  0.2316 -0.2317
14707TIP3    H165536   2.525   1.463  12.402  2.5587 -1.5192 -0.9053
14707TIP3    H265537   2.591   1.494  12.269  2.4045  1.6076 -0.3514
14708TIP3   OH265538   1.464   3.938   0.136  0.3016  0.8767  0.4072
14708TIP3    H165539   1.539   3.987   0.102 -0.1517  0.6157 -1.0331
14708TIP3    H265540   1.470   3.949   0.231  0.7031  3.0102  0.2030
14709TIP3   OH265541   3.166   1.652  11.242  0.3620 -0.2579 -0.2355
14709TIP3    H165542   3.089   1.602  11.267 -0.5777  1.3995  0.3032
14709TIP3    H265543   3.240   1.594  11.264 -0.6985 -2.1647 -1.4477
14710TIP3   OH265544   1.202   4.953   0.974  0.1985  0.1063 -0.6720
14710TIP3    H165545   1.250   4.979   0.896  0.1558 -2.2596 -1.5691
14710TIP3    H265546   1.122   5.004   0.972  1.8342  2.9387 -0.0205
14711TIP3   OH265547   1.320   2.202  16.171  0.6575  0.9243  0.6839
14711TIP3    H165548   1.249   2.240  16.119  0.7383 -0.7461 -0.7293
14711TIP3    H265549   1.304   2.235  16.260 -0.0013  3.1382 -0.1892
14712TIP3   OH265550   1.086   5.486  11.794  0.0939 -0.6485 -0.2643
14712TIP3    H165551   1.161   5.466  11.850  1.0701  1.2738 -0.8149
14712TIP3    H265552   1.084   5.581  11.789 -1.1659 -0.7185 -1.9132
14713TIP3   OH265553   3.972   1.780  14.823 -0.2701  0.2059 -0.1585
14713TIP3    H165554   4.019   1.834  14.886  0.2247  0.1075 -0.4358
14713TIP3    H265555   4.030   1.704  14.809 -1.6763 -1.2527  1.5020
14714TIP3   OH265556   3.257   5.962   1.752  0.4077  0.1334  0.3641
14714TIP3    H165557   3.293   6.037   1.706 -1.0427 -0.3958 -1.7760
14714TIP3    H265558   3.180   5.996   1.797  0.8268  0.2997  0.9598
14715TIP3   OH265559   6.572   3.636   4.539  0.5936 -0.5120  0.3943
14715TIP3    H165560   6.517   3.566   4.574  0.9667 -2.0601 -1.9068
14715TIP3    H265561   6.541   3.648   4.449  0.8442  2.0220  0.5815
14716TIP3   OH265562   3.773   4.186  11.721  0.2321  0.2799 -0.2121
14716TIP3    H165563   3.855   4.162  11.678  0.0750  0.6517 -0.7185
14716TIP3    H265564   3.799   4.207  11.811  0.7393  0.7091 -0.4583
14717TIP3   OH265565   0.915   6.706   0.142 -0.0472 -0.5986  0.2068
14717TIP3    H165566   0.840   6.749   0.100  0.7670 -0.3409 -1.0046
14717TIP3    H265567   0.955   6.654   0.073  0.0036 -1.9841  1.2347
14718TIP3   OH265568   6.384   1.789   5.766  0.1557 -0.1033 -0.1661
14718TIP3    H165569   6.460   1.794   5.824 -0.2606 -1.7715  0.6037
14718TIP3    H265570   6.345   1.876   5.770  1.2865  0.3979  0.4576
14719TIP3   OH265571   0.909   2.115  17.149 -0.4689 -0.0134  0.8685
14719TIP3    H165572   0.949   2.190  17.106  0.7474 -0.7151  0.7312
14719TIP3    H265573   0.843   2.084  17.087  1.1671 -0.9349 -0.4708
14720TIP3   OH265574   2.043   0.246   2.768 -0.0480 -0.2658  0.1781
14720TIP3    H165575   2.083   0.161   2.749 -0.2585 -0.4144  0.4060
14720TIP3    H265576   2.116   0.299   2.801  0.4159  0.1086 -1.3203
14721TIP3   OH265577   3.648   0.296  13.489 -0.8112  0.6524  0.2890
14721TIP3    H165578   3.703   0.360  13.535 -0.0438 -0.9568  1.6924
14721TIP3    H265579   3.710   0.231  13.455 -1.7210 -0.3375  0.4890
14722TIP3   OH265580   1.066   3.650   0.230  0.4223  0.2637 -0.5701
14722TIP3    H165581   1.092   3.742   0.239  1.7648 -0.2634  1.5087
14722TIP3    H265582   1.046   3.641   0.137  1.9426  2.2400 -1.1806
14723TIP3   OH265583   0.344   0.608   0.118 -0.2824  0.3463 -0.8264
14723TIP3    H165584   0.371   0.553   0.192  0.3998 -0.7161 -1.8244
14723TIP3    H265585   0.397   0.687   0.127  0.0048  0.1066 -0.3429
14724TIP3   OH265586   2.561   4.840  14.278  0.4870  0.9668  0.0166
14724TIP3    H165587   2.475   4.800  14.263  0.2277  0.3460  2.6038
14724TIP3    H265588   2.552   4.929  14.246 -0.7251  0.5766 -0.8301
14725TIP3   OH265589   2.839   2.542   1.848  0.3816 -0.2664  0.2652
14725TIP3    H165590   2.883   2.627   1.841  1.3091 -0.8762 -2.0756
14725TIP3    H265591   2.901   2.479   1.811 -1.1241 -1.6525 -0.0042
14726TIP3   OH265592   5.080   0.821  13.750  0.1227 -0.0008 -0.3420
14726TIP3    H165593   5.152   0.818  13.688 -0.1727  0.7106 -0.7361
14726TIP3    H265594   5.001   0.813  13.697 -0.1562  1.2004 -0.1415
14727TIP3   OH265595   3.468   1.225  12.002  0.5869  0.5485  0.3464
14727TIP3    H165596   3.373   1.223  11.992  0.6625 -0.2886 -0.3019
14727TIP3    H265597   3.486   1.308  12.046 -0.3155  1.4088 -0.8619
14728TIP3   OH265598   2.582   4.946  13.048 -0.0876 -1.0512  1.1167
14728TIP3    H165599   2.671   4.911  13.052 -0.6988 -2.5357  2.6058
14728TIP3    H265600   2.535   4.887  12.989 -0.3847 -0.9573  1.2556
14729TIP3   OH265601   4.851   2.211  13.468  0.3101  0.9613  0.0471
14729TIP3    H165602   4.756   2.203  13.467  0.2975  0.7194  1.3168
14729TIP3    H265603   4.870   2.262  13.546  1.0921  3.6541 -1.7640
14730TIP3   OH265604   3.328   1.117   5.414  0.5110 -0.3515  0.3102
14730TIP3    H165605   3.379   1.148   5.340  0.5374 -2.3463 -0.5804
14730TIP3    H265606   3.237   1.130   5.387  0.4838  1.3165  1.0575
14731TIP3   OH265607   4.863   0.323   1.237  0.0191 -0.0842  0.3041
14731TIP3    H165608   4.846   0.417   1.245 -0.5012  0.1231 -2.3097
14731TIP3    H265609   4.777   0.283   1.243  0.2242 -0.4140  1.2511
14732TIP3   OH265610   2.248   4.918  12.728  0.4826  0.0958  0.1463
14732TIP3    H165611   2.191   4.944  12.656 -1.7614 -1.1071  1.3628
14732TIP3    H265612   2.255   4.996  12.783 -0.3039  0.1806  0.1358
14733TIP3   OH265613   0.660   1.399   5.230 -0.4376 -0.8231  0.0492
14733TIP3    H165614   0.747   1.433   5.209 -0.8368 -0.8135 -1.7852
14733TIP3    H265615   0.674   1.338   5.302  1.4421 -2.4216 -1.5448
14734TIP3   OH265616   3.567   3.213   1.614  0.1073 -0.2148 -0.3638
14734TIP3    H165617   3.548   3.124   1.643  1.4071 -0.1845  0.6624
14734TIP3    H265618   3.519   3.269   1.676  2.2412 -0.1682  1.3629
14735TIP3   OH265619   5.061   0.403   1.918 -0.3822 -0.1670  0.2955
14735TIP3    H165620   5.006   0.356   1.855  1.5385 -0.1064 -1.5221
14735TIP3    H265621   5.056   0.350   1.997 -2.5099 -0.4964  0.0128
14736TIP3   OH265622   3.309   4.254   2.267 -0.1867  0.1545  0.5541
14736TIP3    H165623   3.396   4.214   2.275 -0.1701  0.6414  4.0947
14736TIP3    H265624   3.248   4.182   2.282 -0.3926  0.1092 -0.4237
14737TIP3   OH265625   0.446   6.492  14.396 -0.3342  0.3058 -0.1685
14737TIP3    H165626   0.364   6.451  14.426 -0.7489  0.8158 -0.5854
14737TIP3    H265627   0.496   6.505  14.476 -0.9274  0.5616  0.1687
14738TIP3   OH265628   1.527   2.669   1.826  0.7419  0.1366 -0.4465
14738TIP3    H165629   1.451   2.639   1.775 -0.2693  0.0290  1.0318
14738TIP3    H265630   1.571   2.732   1.769 -1.9234  2.1722 -0.4771
14739TIP3   OH265631   2.877   5.875  12.973  0.5552  0.0517 -0.1365
14739TIP3    H165632   2.814   5.948  12.970  0.7544  0.2858  0.9383
14739TIP3    H265633   2.946   5.905  13.032 -0.1311 -1.5784  1.6320
14740TIP3   OH265634   1.422   3.034  14.606 -0.2486 -0.1558  0.0434
14740TIP3    H165635   1.494   2.993  14.558  0.7321 -1.0906  2.2101
14740TIP3    H265636   1.441   3.128  14.603  0.4692 -0.3088 -0.2995
14741TIP3   OH265637   5.922   5.758  15.562  0.8075  0.0573 -0.2077
14741TIP3    H165638   5.917   5.822  15.632 -0.1637 -1.2365  0.9563
14741TIP3    H265639   5.833   5.752  15.527  0.9545 -0.3996 -0.5200
14742TIP3   OH265640   5.404   2.011   0.578 -0.6052  0.4433  0.0242
14742TIP3    H165641   5.352   1.936   0.549 -0.1886 -0.1565  0.7698
14742TIP3    H265642   5.341   2.070   0.619 -0.8947  0.3718 -0.3161
14743TIP3   OH265643   6.768   1.258   6.142  0.1705 -0.2499  0.1907
14743TIP3    H165644   6.721   1.180   6.112  0.7891 -1.4569  2.1594
14743TIP3    H265645   6.846   1.261   6.086  0.7177 -1.7497  0.8108
14744TIP3   OH265646   1.024   4.357   3.750  0.5969  0.0968 -0.5513
14744TIP3    H165647   1.093   4.294   3.769  0.6202 -0.3833 -2.0623
14744TIP3    H265648   0.947   4.323   3.797  0.9724 -0.2643 -0.1858
14745TIP3   OH265649   2.851   6.716  13.443  0.1459  0.0531 -0.4010
14745TIP3    H165650   2.789   6.742  13.512  1.2932  0.8465  0.3694
14745TIP3    H265651   2.795   6.683  13.372 -1.0908 -0.5249  0.7799
14746TIP3   OH265652   1.076   0.300   5.786  0.0220  0.1537 -0.6879
14746TIP3    H165653   1.077   0.389   5.822 -1.0714  0.0397 -0.3375
14746TIP3    H265654   1.077   0.243   5.862  1.0281 -0.1509 -0.9194
14747TIP3   OH265655   3.053   1.407  11.480 -0.0871  0.3804 -0.1529
14747TIP3    H165656   3.051   1.392  11.385  2.1234  0.7326 -0.2929
14747TIP3    H265657   2.987   1.347  11.515 -1.0258  0.3336 -1.9066
14748TIP3   OH265658   0.927   6.422  12.683  0.8452  0.0435  0.3650
14748TIP3    H165659   1.004   6.444  12.630  0.8459  0.0891  0.3846
14748TIP3    H265660   0.877   6.361  12.629  1.8125 -1.4468  1.0687
14749TIP3   OH265661   4.530   4.965  15.230  0.1469 -0.0077  0.2103
14749TIP3    H165662   4.520   4.931  15.141 -1.3228 -0.6590  0.6000
14749TIP3    H265663   4.450   5.014  15.247  0.7256  0.7127  0.9300
14750TIP3   OH265664   1.238   2.547  14.936 -0.2602  0.1826  0.2556
14750TIP3    H165665   1.323   2.515  14.968 -0.4952  1.0756  1.9124
14750TIP3    H265666   1.258   2.587  14.851  0.9325  0.1354  0.4973
14751TIP3   OH265667   5.647   6.124   6.429  0.4038 -0.0351 -0.1501
14751TIP3    H165668   5.742   6.111   6.431  0.2748 -0.9767  0.6224
14751TIP3    H265669   5.612   6.042   6.395 -0.2076 -0.2427  0.9216
14752TIP3   OH265670   2.159   4.418  13.547 -0.4037 -0.0736  0.3020
14752TIP3    H165671   2.140   4.423  13.453 -0.8804  0.1421  0.4074
14752TIP3    H265672   2.166   4.324  13.565 -1.0565 -0.1483  0.1940
14753TIP3   OH265673   6.336   4.971  14.681 -0.2270  0.6094 -0.5233
14753TIP3    H165674   6.329   4.930  14.767  0.7098  1.3404 -0.0731
14753TIP3    H265675   6.247   4.973  14.647 -0.5270 -0.1699  0.2001
14754TIP3   OH265676   3.067   2.335  16.502 -0.3026  0.5595 -0.2551
14754TIP3    H165677   2.985   2.287  16.513  0.5260 -1.2679 -1.5440
14754TIP3    H265678   3.135   2.272  16.523  0.8334  1.5229 -0.9001
14755TIP3   OH265679   4.314   3.218   2.076 -0.4946 -0.2517  0.2360
14755TIP3    H165680   4.321   3.182   2.165 -2.6325 -0.8643  0.2169
14755TIP3    H265681   4.404   3.227   2.047  0.2299 -1.4210  1.9283
14756TIP3   OH265682   1.309   5.921   0.281  0.5909  0.4479  0.0921
14756TIP3    H165683   1.390   5.972   0.268  0.2383  1.1501  0.5987
14756TIP3    H265684   1.327   5.867   0.358  0.6687  0.4102  0.0485
14757TIP3   OH265685   5.483   1.017   0.214 -0.0789  0.4078  0.2442
14757TIP3    H165686   5.422   0.995   0.144 -0.5571 -0.6821  0.9770
14757TIP3    H265687   5.428   1.025   0.292  0.6624 -0.3455  0.8650
14758TIP3   OH265688   1.638   3.311   3.704 -0.0222  0.1522  0.3786
14758TIP3    H165689   1.610   3.339   3.791  0.6919 -1.0034  1.0081
14758TIP3    H265690   1.632   3.215   3.707  1.8798 -0.0333 -0.1609
14759TIP3   OH265691   3.801   5.623  14.266 -1.0913 -0.6421 -0.4435
14759TIP3    H165692   3.734   5.556  14.253  0.0958 -2.0106  0.2759
14759TIP3    H265693   3.865   5.607  14.196 -0.6232 -0.5004 -0.0582
14760TIP3   OH265694   4.198   5.958   2.263  0.6874  0.5451 -0.4108
14760TIP3    H165695   4.280   5.959   2.313  1.3448 -1.4173 -1.3425
14760TIP3    H265696   4.129   5.959   2.329  1.5028  0.1743  0.4585
14761TIP3   OH265697   4.401   6.623  12.348  0.1121 -0.3678  0.0669
14761TIP3    H165698   4.494   6.599  12.349 -0.3720 -2.4797  0.1839
14761TIP3    H265699   4.394   6.694  12.411  1.9842  1.4002 -1.5674
14762TIP3   OH265700   5.950   0.198  14.338  0.0568  0.4728  0.1093
14762TIP3    H165701   5.980   0.282  14.302  0.5057  1.6878  3.0239
14762TIP3    H265702   5.869   0.179  14.289  0.9731  1.5354 -1.9788
14763TIP3   OH265703   5.430   0.722  11.724 -0.3697 -0.1891 -0.3061
14763TIP3    H165704   5.378   0.701  11.647  0.0672 -0.7542 -0.4576
14763TIP3    H265705   5.464   0.810  11.707  0.3545 -0.6138 -1.1202
14764TIP3   OH265706   0.163   1.662  14.075  0.0422 -0.3187  0.4335
14764TIP3    H165707   0.206   1.736  14.117  1.9441 -1.0156 -0.1947
14764TIP3    H265708   0.201   1.659  13.987 -1.8177 -0.5720 -0.4074
14765TIP3   OH265709   1.677   3.243  12.772  0.3628  0.1301  0.7589
14765TIP3    H165710   1.599   3.286  12.738 -0.1565 -0.4736  1.1514
14765TIP3    H265711   1.704   3.182  12.703  0.0837 -0.1478  0.8932
14766TIP3   OH265712   6.750   1.776   5.244  0.2530 -0.2885 -0.2624
14766TIP3    H165713   6.755   1.825   5.326  2.6252  0.9433 -1.0529
14766TIP3    H265714   6.771   1.686   5.270  0.6047  0.0104  0.5420
14767TIP3   OH265715   1.519   2.971  11.892  0.6591  0.2409 -0.2021
14767TIP3    H165716   1.615   2.976  11.890  0.7354 -0.3516  0.8563
14767TIP3    H265717   1.490   3.035  11.827  1.7697  0.4584 -0.5116
14768TIP3   OH265718   0.686   6.246   4.858  0.2932  0.3627 -0.1427
14768TIP3    H165719   0.615   6.215   4.915  0.1151 -1.8797 -1.4629
14768TIP3    H265720   0.642   6.300   4.793 -0.2912 -1.1561 -1.0545
14769TIP3   OH265721   4.652   0.861   3.683  0.5674 -0.4393  0.2573
14769TIP3    H165722   4.654   0.766   3.668  1.8252 -0.3917  0.0105
14769TIP3    H265723   4.634   0.898   3.597 -0.8671 -0.4637  0.5185
14770TIP3   OH265724   0.426   2.830  13.398  0.2552  0.6802 -0.1606
14770TIP3    H165725   0.352   2.850  13.341  2.0434  1.3136 -2.4007
14770TIP3    H265726   0.402   2.867  13.483 -1.7510  1.3066 -0.9461
14771TIP3   OH265727   1.159   6.386  12.002  0.1410 -0.0476 -0.4736
14771TIP3    H165728   1.070   6.415  11.987  0.2832  0.7218  0.0929
14771TIP3    H265729   1.166   6.378  12.098  0.6116 -0.3236 -0.5243
14772TIP3   OH265730   2.395   3.848  11.868  0.1902 -0.4197  0.1934
14772TIP3    H165731   2.481   3.829  11.905  0.5044 -3.0426 -1.6759
14772TIP3    H265732   2.351   3.899  11.936  3.1848  1.0603  1.1835
14773TIP3   OH265733   2.812   4.740   3.108 -0.1504  0.3659 -0.0377
14773TIP3    H165734   2.903   4.710   3.096 -0.2223 -0.3900  1.1664
14773TIP3    H265735   2.814   4.832   3.082  1.0757  0.4881  0.4177
14774TIP3   OH265736   3.729   2.738  11.866  0.3156  0.3051  0.2837
14774TIP3    H165737   3.679   2.712  11.943  0.0588  0.6661  0.2402
14774TIP3    H265738   3.736   2.658  11.813  0.1531  0.1539  0.4896
14775TIP3   OH265739   2.076   4.438  15.459 -0.0457  0.5798  0.3763
14775TIP3    H165740   2.103   4.349  15.436 -1.2424  0.2598  0.1252
14775TIP3    H265741   2.158   4.486  15.471  0.6194 -0.5329  0.4361
14776TIP3   OH265742   4.958   4.847  14.313  0.2566 -0.8558  0.2038
14776TIP3    H165743   4.964   4.942  14.322  1.1307 -0.8546 -0.3003
14776TIP3    H265744   5.020   4.813  14.378  1.0962 -1.0320 -0.6761
14777TIP3   OH265745   2.119   5.940  11.674  0.4852  0.2963 -0.0997
14777TIP3    H165746   2.126   6.006  11.743 -0.6075 -1.0733  1.4125
14777TIP3    H265747   2.059   5.977  11.610  0.4372  1.0455  0.3700
14778TIP3   OH265748   3.135   5.353  13.041 -0.2882  0.2408  0.2923
14778TIP3    H165749   3.077   5.344  13.116 -0.6425  0.6457  0.0707
14778TIP3    H265750   3.193   5.277  13.046  1.0160  1.2655  2.1041
14779TIP3   OH265751   1.638   1.907   1.186 -0.0264 -0.4944  0.1301
14779TIP3    H165752   1.577   1.852   1.234 -0.5927 -1.2573 -1.3957
14779TIP3    H265753   1.584   1.978   1.152  0.2663 -0.2347  0.2052
14780TIP3   OH265754   5.937   1.327  15.189 -0.2038  0.4136  0.5691
14780TIP3    H165755   5.886   1.404  15.164  1.3725  0.6733 -2.2611
14780TIP3    H265756   6.026   1.346  15.157  0.7821 -1.5815  1.9523
14781TIP3   OH265757   3.433   5.771  12.575  0.6414  0.0743 -0.4828
14781TIP3    H165758   3.359   5.749  12.632  1.8725 -1.2919  0.6679
14781TIP3    H265759   3.449   5.863  12.592  0.6887 -0.1963  1.0659
14782TIP3   OH265760   1.900   6.793   1.090  0.3259 -0.0419  0.1367
14782TIP3    H165761   1.933   6.845   1.018 -1.3255 -1.1258 -1.4986
14782TIP3    H265762   1.808   6.820   1.099  0.0182 -1.1629  0.6237
14783TIP3   OH265763   2.864   3.960   1.625 -0.0502 -0.0116 -0.2256
14783TIP3    H165764   2.856   3.897   1.553 -2.2585 -1.2249  0.9489
14783TIP3    H265765   2.852   4.046   1.583 -2.0485 -0.7265 -1.2673
14784TIP3   OH265766   5.892   2.720  12.463  0.3441  0.0656  0.3457
14784TIP3    H165767   5.807   2.750  12.495  0.3124  0.7428 -0.3531
14784TIP3    H265768   5.872   2.646  12.406  0.2593  0.0159  0.4389
14785TIP3   OH265769   1.846   3.057   3.916  0.0467 -0.0889  0.0253
14785TIP3    H165770   1.758   3.023   3.902  0.3670 -0.9116 -0.1005
14785TIP3    H265771   1.865   3.110   3.839 -0.2572 -0.0811 -0.0434
14786TIP3   OH265772   0.370   0.966   0.962  0.3061  0.4564 -0.1910
14786TIP3    H165773   0.323   1.000   1.038  1.8497  0.6952  0.7069
14786TIP3    H265774   0.461   0.993   0.976  0.7093  0.1062 -1.9043
14787TIP3   OH265775   4.005   3.597  10.378 -0.4220 -0.1642 -0.6471
14787TIP3    H165776   3.931   3.559  10.331 -1.6810 -0.9922  1.8451
14787TIP3    H265777   3.968   3.669  10.429  1.1894  1.7688 -2.0330
14788TIP3   OH265778   4.010   2.444  15.807 -0.0435  0.1284  0.0167
14788TIP3    H165779   4.063   2.452  15.727  3.1776 -1.4134  1.8311
14788TIP3    H265780   4.006   2.533  15.842  3.0040  0.0845  0.7133
14789TIP3   OH265781   5.289   5.110   3.074 -0.2067  0.2859  0.1356
14789TIP3    H165782   5.290   5.035   3.015  1.2310  0.2968  0.1121
14789TIP3    H265783   5.279   5.186   3.016  2.7449  0.4256 -0.3294
14790TIP3   OH265784   4.018   0.530  12.865 -0.5420 -0.4689  0.1795
14790TIP3    H165785   4.074   0.592  12.819  0.7495 -0.3853  1.7770
14790TIP3    H265786   4.063   0.446  12.856 -0.9217 -0.6860  0.2622
14791TIP3   OH265787   6.206   6.576  10.987  0.0325  0.1247 -0.0760
14791TIP3    H165788   6.141   6.615  11.045 -1.0707 -0.0627 -1.1608
14791TIP3    H265789   6.289   6.616  11.015 -0.5529  0.5221  1.1888
14792TIP3   OH265790   3.245   6.741   0.573 -0.0960  0.3662 -0.0610
14792TIP3    H165791   3.182   6.781   0.512  0.2958  0.6907 -0.2610
14792TIP3    H265792   3.204   6.750   0.659  0.9034  3.2754  0.2420
14793TIP3   OH265793   3.696   4.624   1.159  0.0745 -0.2187 -0.1044
14793TIP3    H165794   3.782   4.588   1.180  0.3433  1.1937  1.4268
14793TIP3    H265795   3.650   4.626   1.243 -1.6019 -1.2333 -0.9483
14794TIP3   OH265796   3.915   5.707   5.738 -0.3437  0.2959  0.1082
14794TIP3    H165797   3.970   5.722   5.661  0.6865  0.3997  0.8365
14794TIP3    H265798   3.847   5.647   5.708  0.8486 -0.7737 -0.5354
14795TIP3   OH265799   5.804   5.998   2.624  0.3195  0.3464  0.2247
14795TIP3    H165800   5.741   5.955   2.566 -1.2231  0.9719  1.3732
14795TIP3    H265801   5.889   5.985   2.581 -0.7166  0.5818 -2.0485
14796TIP3   OH265802   3.044   1.673  15.528 -0.1740 -0.7062 -0.0158
14796TIP3    H165803   2.955   1.700  15.506 -1.0400 -2.1824  1.3955
14796TIP3    H265804   3.064   1.604  15.465  0.8078  0.9711 -1.6168
14797TIP3   OH265805   2.689   6.554   1.478 -0.5049  1.3305 -0.5353
14797TIP3    H165806   2.699   6.513   1.392  1.7202 -1.0693  0.7408
14797TIP3    H265807   2.771   6.601   1.492 -0.0996  0.2740  0.9119
14798TIP3   OH265808   3.666   2.111   2.489  0.2806  0.2601  0.2063
14798TIP3    H165809   3.736   2.066   2.442  0.3271  2.4038 -1.9673
14798TIP3    H265810   3.709   2.186   2.530 -0.1978 -0.2900  1.7913
14799TIP3   OH265811   1.390   3.781   4.504  0.5449  0.3156 -0.0677
14799TIP3    H165812   1.477   3.811   4.530 -0.1401  0.4510  2.2972
14799TIP3    H265813   1.345   3.763   4.586 -1.4215 -0.5213 -1.2448
14800TIP3   OH265814   0.965   2.709  13.899  0.1144  0.6241 -0.0468
14800TIP3    H165815   0.996   2.680  13.984 -3.9436 -2.9407  0.5689
14800TIP3    H265816   0.915   2.788  13.918 -0.4981  0.0354  0.9046
14801TIP3   OH265817   3.095   3.310  12.600 -0.5175  0.3367  0.4535
14801TIP3    H165818   3.142   3.243  12.551 -0.3561 -0.8157  2.0852
14801TIP3    H265819   3.060   3.368  12.534 -0.5359 -1.2791 -1.0264
14802TIP3   OH265820   0.809   4.514   4.151  0.3007  0.4004  0.1366
14802TIP3    H165821   0.739   4.578   4.135  1.7733  2.1305  0.3785
14802TIP3    H265822   0.888   4.556   4.119  1.0944 -2.1687 -1.6934
14803TIP3   OH265823   6.558   4.495   0.607  0.2830  0.3772  0.5273
14803TIP3    H165824   6.534   4.420   0.661 -0.0821 -0.2964 -0.5439
14803TIP3    H265825   6.549   4.464   0.517  1.7991  1.1829  0.0577
14804TIP3   OH265826   4.890   3.692   1.974  0.1455  0.1556  0.0094
14804TIP3    H165827   4.914   3.752   1.904 -1.9903  0.5330 -0.4662
14804TIP3    H265828   4.935   3.726   2.051  0.6361  1.1124 -0.6779
14805TIP3   OH265829   4.104   1.681  12.294 -0.3894  0.2473 -0.2562
14805TIP3    H165830   4.068   1.669  12.206 -0.1035  0.4829 -0.4092
14805TIP3    H265831   4.049   1.627  12.350  0.7680 -1.7155 -0.8805
14806TIP3   OH265832   5.668   1.873   3.810  0.2346 -0.0064  0.1092
14806TIP3    H165833   5.708   1.938   3.752  0.4542  0.8720  1.2077
14806TIP3    H265834   5.729   1.799   3.809  0.3179  0.0668 -0.6345
14807TIP3   OH265835   4.960   4.232   4.766  0.1123  0.1842  0.1915
14807TIP3    H165836   4.982   4.324   4.780 -2.9340  0.8813  1.0759
14807TIP3    H265837   5.022   4.184   4.821  1.3076  1.6897  0.2487
14808TIP3   OH265838   5.163   5.557  12.110 -0.2509  0.5613 -0.2184
14808TIP3    H165839   5.258   5.567  12.103 -0.3294  0.8932 -0.8855
14808TIP3    H265840   5.131   5.645  12.129 -0.3597  0.2947  0.9150
14809TIP3   OH265841   6.185   0.517   6.932 -0.2512  0.7677 -0.3107
14809TIP3    H165842   6.212   0.451   6.997 -0.9643  0.9041  0.1376
14809TIP3    H265843   6.155   0.465   6.857 -1.6906  0.5339  0.3943
14810TIP3   OH265844   2.192   3.822   0.383 -0.0693  0.4843 -0.5452
14810TIP3    H165845   2.107   3.792   0.415  0.0113  0.8120 -0.0166
14810TIP3    H265846   2.214   3.897   0.439  0.9376 -0.0814 -0.1614
14811TIP3   OH265847   1.799   1.906  15.596 -0.2589  0.6386  0.1846
14811TIP3    H165848   1.746   1.986  15.593 -0.3992  0.6613  1.9635
14811TIP3    H265849   1.885   1.936  15.625 -0.1895  0.1911  0.4415
14812TIP3   OH265850   6.760   0.309  14.968  0.0966  0.3300  0.0702
14812TIP3    H165851   6.815   0.369  15.018  0.3925  0.0900  0.0356
14812TIP3    H265852   6.686   0.290  15.026 -0.7117  1.7793 -0.4176
14813TIP3   OH265853   2.659   2.832  13.939  0.2757  0.5225 -0.0875
14813TIP3    H165854   2.685   2.779  14.015 -1.1767  0.0841  0.1387
14813TIP3    H265855   2.656   2.921  13.972  1.2220  0.5542 -0.0633
14814TIP3   OH265856   5.080   2.217   5.453 -0.3765 -0.0586  0.2328
14814TIP3    H165857   5.063   2.125   5.476  1.4407 -0.7625 -1.0131
14814TIP3    H265858   5.050   2.224   5.362  0.0461  0.4038  0.1264
14815TIP3   OH265859   6.651   6.624  15.828 -0.7319 -0.1929  0.9088
14815TIP3    H165860   6.610   6.553  15.779 -1.2496  0.8937 -0.2766
14815TIP3    H265861   6.733   6.641  15.782 -1.2224  0.8346  0.3737
14816TIP3   OH265862   6.406   5.821  12.902 -0.5916  0.6307  0.1667
14816TIP3    H165863   6.427   5.888  12.968  1.3920 -0.9147  1.2025
14816TIP3    H265864   6.385   5.743  12.953  0.7295 -0.5372 -1.0039
14817TIP3   OH265865   2.510   6.727  14.586 -0.0447 -0.0344 -0.1000
14817TIP3    H165866   2.596   6.691  14.566  0.2478 -0.5915  1.9423
14817TIP3    H265867   2.484   6.772  14.506  1.3163 -1.4210 -1.3999
14818TIP3   OH265868   1.329   5.782   3.364  0.8892  0.0236 -0.9250
14818TIP3    H165869   1.319   5.692   3.334 -1.4138 -0.1092  0.0478
14818TIP3    H265870   1.305   5.835   3.288 -1.0318 -0.2636 -0.5595
14819TIP3   OH265871   1.475   2.402  15.142 -0.3878 -0.0105  0.4265
14819TIP3    H165872   1.527   2.480  15.161 -0.1884 -0.2089  0.7010
14819TIP3    H265873   1.536   2.341  15.100 -0.5615  0.0093  0.1405
14820TIP3   OH265874   5.764   5.770  11.098 -0.1491  0.2973  0.0796
14820TIP3    H165875   5.743   5.736  11.010  0.2081 -0.9900  0.4643
14820TIP3    H265876   5.703   5.725  11.156 -2.4128  3.3073  0.2493
14821TIP3   OH265877   2.296   6.264  15.577  0.2561  0.3974 -0.2446
14821TIP3    H165878   2.336   6.277  15.490  0.7728 -1.5226 -0.3472
14821TIP3    H265879   2.351   6.316  15.636  1.3405 -0.1302 -0.7535
14822TIP3   OH265880   3.406   1.503  15.901 -0.0255 -0.0325 -0.1030
14822TIP3    H165881   3.474   1.565  15.874  1.9823 -0.4721  3.3526
14822TIP3    H265882   3.442   1.417  15.879  0.1024 -0.2073  0.7278
14823TIP3   OH265883   5.494   6.244   0.215 -0.2260 -0.5417 -0.3790
14823TIP3    H165884   5.566   6.282   0.165 -2.8075  1.1278 -3.1712
14823TIP3    H265885   5.425   6.310   0.212 -1.2137 -0.9910  4.2878
14824TIP3   OH265886   4.044   4.687  13.734 -0.5242 -0.7687 -0.1280
14824TIP3    H165887   3.948   4.684  13.734 -0.5021 -2.3274 -0.1095
14824TIP3    H265888   4.069   4.626  13.665  0.4684 -0.6510  0.1251
14825TIP3   OH265889   1.697   3.789   1.247  0.8113 -0.0187 -0.6147
14825TIP3    H165890   1.753   3.740   1.307  1.8438 -0.5835 -1.9827
14825TIP3    H265891   1.630   3.829   1.303  1.7393 -0.5051  0.8892
14826TIP3   OH265892   2.797   4.183  14.443 -0.0071 -0.0338 -0.5820
14826TIP3    H165893   2.789   4.140  14.528 -0.6471  0.1882 -0.5251
14826TIP3    H265894   2.796   4.277  14.463 -0.3796  0.0226 -0.8491
14827TIP3   OH265895   2.290   0.142   3.337  0.0689 -0.3872 -0.0324
14827TIP3    H165896   2.202   0.108   3.347 -0.6204  1.6819  1.9855
14827TIP3    H265897   2.278   0.226   3.292  1.1603 -0.7037 -0.9349
14828TIP3   OH265898   4.355   3.569  11.586 -0.0216 -0.4469 -0.2872
14828TIP3    H165899   4.387   3.588  11.674 -0.0216 -1.6437 -0.0055
14828TIP3    H265900   4.404   3.491  11.559 -0.7588 -0.7033 -0.9272
14829TIP3   OH265901   2.988   6.591   5.204 -0.2452 -0.1307  0.0404
14829TIP3    H165902   2.938   6.579   5.285 -0.8063  1.6703  0.0116
14829TIP3    H265903   2.921   6.591   5.135 -0.4309  2.9834  0.0588
14830TIP3   OH265904   6.107   2.905   3.364  0.0101 -0.2178 -0.5658
14830TIP3    H165905   6.033   2.874   3.313 -1.2513  1.0331  0.4207
14830TIP3    H265906   6.067   2.953   3.437  1.8009  1.1663 -0.4349
14831TIP3   OH265907   2.212   3.522  12.044  0.2783  0.0732 -0.3533
14831TIP3    H165908   2.160   3.550  11.969  0.0876 -0.7981 -0.5521
14831TIP3    H265909   2.285   3.472  12.006 -0.7802 -1.9227  0.0936
14832TIP3   OH265910   2.065   1.050  13.155 -0.6103  0.0988 -1.2246
14832TIP3    H165911   1.973   1.065  13.175 -1.0146 -1.9282 -1.3421
14832TIP3    H265912   2.112   1.116  13.206 -2.1397  1.7436 -1.8396
14833TIP3   OH265913   5.963   6.248  11.244 -0.0906  0.3776 -0.6361
14833TIP3    H165914   5.891   6.311  11.248  0.4799  1.0562 -0.7041
14833TIP3    H265915   6.032   6.294  11.195 -0.1543 -0.8223 -1.9132
14834TIP3   OH265916   0.379   2.750   0.421  0.0674  0.3711 -0.0388
14834TIP3    H165917   0.431   2.819   0.379  0.3167  0.5587  0.5703
14834TIP3    H265918   0.432   2.722   0.495  0.4366 -1.1876 -0.8399
14835TIP3   OH265919   0.413   6.340  13.901 -0.0698  0.4045  0.0382
14835TIP3    H165920   0.497   6.378  13.875  0.0295  0.0557 -0.1580
14835TIP3    H265921   0.370   6.409  13.952 -0.2775  1.1114 -1.0606
14836TIP3   OH265922   2.284   2.461  12.808  0.6885 -0.5257 -0.6272
14836TIP3    H165923   2.208   2.465  12.867  1.1636 -2.0378  0.1717
14836TIP3    H265924   2.255   2.406  12.736 -0.3989  2.5560 -2.7258
14837TIP3   OH265925   3.143   0.353   4.591 -0.2809 -0.0099  0.4153
14837TIP3    H165926   3.211   0.364   4.657 -0.7683 -0.7201  1.0498
14837TIP3    H265927   3.118   0.443   4.568 -0.1315  0.2496  1.2266
14838TIP3   OH265928   0.982   0.626   6.630  0.6684 -0.4232  0.3885
14838TIP3    H165929   0.954   0.575   6.554  0.3605  0.4379 -0.0826
14838TIP3    H265930   0.901   0.665   6.664  0.8071 -0.7637  1.1395
14839TIP3   OH265931   4.770   2.219  16.389  0.0512  0.1062  0.5635
14839TIP3    H165932   4.698   2.222  16.452 -0.5487  1.2841 -0.1480
14839TIP3    H265933   4.742   2.155  16.324 -0.1449  0.2155  0.5395
14840TIP3   OH265934   1.451   2.375   0.060  0.2782  0.2907  0.5360
14840TIP3    H165935   1.363   2.340   0.045  0.3046  0.9152 -1.3186
14840TIP3    H265936   1.504   2.299   0.082 -0.7403 -0.0713  1.8548
14841TIP3   OH265937   1.749   5.115   0.052 -0.6459  0.0900  0.2803
14841TIP3    H165938   1.745   5.026   0.085 -1.4624  0.5709  1.5410
14841TIP3    H265939   1.764   5.105  -0.042  0.8430 -1.3381  0.6149
14842TIP3   OH265940   4.042   0.908  11.252  0.6366  0.1560 -0.0190
14842TIP3    H165941   4.063   0.952  11.169 -0.6407 -0.8516 -0.9234
14842TIP3    H265942   4.077   0.819  11.241 -0.1436 -0.1903  0.2377
14843TIP3   OH265943   3.038   0.106  12.681 -0.0520  0.1743  0.2825
14843TIP3    H165944   3.119   0.071  12.717 -0.3581  0.8899  1.7242
14843TIP3    H265945   3.050   0.100  12.586  0.7686 -1.7954  0.4614
14844TIP3   OH265946   5.179   4.777  16.924 -0.4787  0.4238 -0.1628
14844TIP3    H165947   5.247   4.840  16.902 -0.6099  0.1956 -1.2758
14844TIP3    H265948   5.221   4.716  16.984 -0.4014  1.6499  1.0763
14845TIP3   OH265949   2.629   6.531  14.329  0.0468 -0.1304  0.5414
14845TIP3    H165950   2.645   6.601  14.266 -1.3061  0.7411  1.1214
14845TIP3    H265951   2.696   6.543  14.396  0.8703 -0.4478 -0.2078
14846TIP3   OH265952   0.989   1.613   1.262 -0.3127  0.1605  0.6312
14846TIP3    H165953   0.951   1.701   1.266  0.6888  0.5661  1.4904
14846TIP3    H265954   1.065   1.616   1.320  0.7482 -0.7734 -0.6268
14847TIP3   OH265955   0.689   2.622   1.337 -0.1185  0.0763  0.2743
14847TIP3    H165956   0.737   2.570   1.272 -1.9954 -1.5242  0.0631
14847TIP3    H265957   0.703   2.712   1.310  1.8496 -0.3720 -0.3870
14848TIP3   OH265958   1.864   6.633  12.693 -0.3093  0.2981  0.5219
14848TIP3    H165959   1.880   6.642  12.599  1.8120  2.0629  0.9767
14848TIP3    H265960   1.939   6.584  12.727 -0.4211  0.7406  1.4613
14849TIP3   OH265961   5.445   4.246  12.887 -0.0535  0.4375  0.3861
14849TIP3    H165962   5.388   4.305  12.936 -0.6501  0.1245  0.0725
14849TIP3    H265963   5.478   4.184  12.953 -1.2096 -0.2605  0.3280
14850TIP3   OH265964   0.990   3.703   4.888 -0.1634  0.1739  0.1562
14850TIP3    H165965   0.901   3.675   4.908  0.6070 -2.4740  0.1775
14850TIP3    H265966   1.034   3.708   4.974 -0.0407  0.6013  0.0730
14851TIP3   OH265967   5.959   0.418  13.954  0.1449  0.4634 -0.0696
14851TIP3    H165968   6.022   0.481  13.990 -0.6777  0.9664  0.5243
14851TIP3    H265969   5.972   0.422  13.859  0.4125  1.2002 -0.0073
14852TIP3   OH265970   3.288   1.332  15.325 -0.0005 -0.2254  0.3425
14852TIP3    H165971   3.351   1.401  15.346 -0.8000  0.2924  1.1161
14852TIP3    H265972   3.317   1.256  15.377  0.6021 -0.3247 -0.1381
14853TIP3   OH265973   1.094   0.769   0.794  0.2308 -0.2286 -0.3410
14853TIP3    H165974   1.113   0.856   0.757  0.7816 -1.0930 -2.2144
14853TIP3    H265975   1.012   0.743   0.752 -0.8772  0.0646  1.5316
14854TIP3   OH265976   0.959   4.185   2.308 -0.0448 -0.0043  0.1996
14854TIP3    H165977   0.981   4.099   2.343  0.2324  0.2249  0.6044
14854TIP3    H265978   0.901   4.167   2.234 -0.4469 -0.5140  0.6278
14855TIP3   OH265979   3.105   3.174   1.308 -0.2868 -0.2934 -0.8893
14855TIP3    H165980   3.104   3.225   1.227 -0.7258  0.5266 -0.3874
14855TIP3    H265981   3.162   3.100   1.290  0.4789  0.4545 -1.6080
14856TIP3   OH265982   3.763   5.554  15.890 -0.5875 -0.1695 -0.1806
14856TIP3    H165983   3.705   5.620  15.929  1.6227  1.0794  1.2507
14856TIP3    H265984   3.821   5.528  15.962 -0.4181 -2.6345 -1.1023
14857TIP3   OH265985   4.335   5.586   4.157 -0.3447 -0.3232  0.0832
14857TIP3    H165986   4.247   5.590   4.194 -0.2078 -0.4453  0.4283
14857TIP3    H265987   4.385   5.535   4.221 -0.1814 -0.8054 -0.4225
14858TIP3   OH265988   2.957   1.752   5.004  0.9033 -0.6754  0.3622
14858TIP3    H165989   3.004   1.755   4.921 -1.6784  0.2185 -1.1585
14858TIP3    H265990   3.005   1.812   5.061  1.6940  0.0980 -1.0724
14859TIP3   OH265991   3.619   2.422  14.029 -0.2365 -0.8429  0.4369
14859TIP3    H165992   3.557   2.354  14.056  0.0886 -1.0736  0.6097
14859TIP3    H265993   3.654   2.392  13.946  0.1483 -1.0491  0.6705
14860TIP3   OH265994   1.757   6.427   4.392  0.0344 -0.3918 -0.1088
14860TIP3    H165995   1.684   6.486   4.372  0.2098 -0.0094  0.3913
14860TIP3    H265996   1.835   6.482   4.391  0.1728 -0.5634  0.5994
14861TIP3   OH265997   1.110   4.057   1.907 -0.5519  0.8848 -0.6253
14861TIP3    H165998   1.111   4.120   1.835 -0.7473  1.1020 -0.4373
14861TIP3    H265999   1.019   4.031   1.916 -0.1691 -1.3880 -2.3948
14862TIP3   OH266000   1.594   2.317   6.045 -0.3637  0.7685 -0.4928
14862TIP3    H166001   1.525   2.371   6.006  0.0178  0.2931 -1.8751
14862TIP3    H266002   1.654   2.300   5.973  1.2424  1.2088  0.6884
14863TIP3   OH266003   2.285   4.217  11.069  0.6434  0.8027  0.3315
14863TIP3    H166004   2.240   4.146  11.114 -1.7188  2.2487  0.3799
14863TIP3    H266005   2.377   4.188  11.065 -0.1999 -2.2093  0.3392
14864TIP3   OH266006   5.284   4.665  12.331  0.1284 -0.3464  0.4099
14864TIP3    H166007   5.211   4.662  12.393 -0.2474  1.4088  0.1043
14864TIP3    H266008   5.244   4.647  12.246 -0.0559  1.0358  0.1842
14865TIP3   OH266009   3.338   2.369  16.995 -0.6401  0.6120  0.3155
14865TIP3    H166010   3.283   2.305  17.040  1.4009 -1.0957  0.5525
14865TIP3    H266011   3.311   2.454  17.030 -0.1202 -0.5090  3.7682
14866TIP3   OH266012   0.927   5.725  16.392 -0.5105 -0.9769  0.1446
14866TIP3    H166013   0.942   5.689  16.479 -0.5508 -0.9314  0.1705
14866TIP3    H266014   1.009   5.769  16.370  0.1892 -2.5702 -0.6231
14867TIP3   OH266015   6.180   0.431  12.051  0.4661 -0.2962 -0.0635
14867TIP3    H166016   6.088   0.405  12.047 -0.1209  1.3013  1.4514
14867TIP3    H266017   6.198   0.441  12.144  1.2981  2.1742 -0.4053
14868TIP3   OH266018   2.512   6.637   6.606 -0.1832 -1.0956 -0.0056
14868TIP3    H166019   2.529   6.632   6.512  0.6094 -1.9344  0.1665
14868TIP3    H266020   2.599   6.631   6.646 -0.4299  0.1894  0.7678
14869TIP3   OH266021   1.388   6.195  12.977  0.2336 -0.2645 -0.2877
14869TIP3    H166022   1.337   6.239  12.909  1.5655 -0.7832 -1.6859
14869TIP3    H266023   1.447   6.263  13.009  0.6530 -0.3882 -0.7680
14870TIP3   OH266024   6.659   1.728  12.939 -0.8744 -0.2298 -0.2515
14870TIP3    H166025   6.660   1.641  12.900 -0.1345 -1.1185  1.6210
14870TIP3    H266026   6.626   1.715  13.027  1.8529  0.8525  1.0715
14871TIP3   OH266027   4.315   2.856   2.355 -0.1498 -0.0035 -1.1722
14871TIP3    H166028   4.317   2.770   2.315  3.0190 -0.4903 -0.2227
14871TIP3    H266029   4.334   2.840   2.447 -0.0766  1.6645 -0.8680
14872TIP3   OH266030   1.104   1.591  11.788 -0.1715  0.0045  0.3589
14872TIP3    H166031   1.036   1.531  11.757 -1.9890  1.9902  0.1752
14872TIP3    H266032   1.078   1.611  11.878  1.0830 -0.3728  0.8168
14873TIP3   OH266033   1.397   1.758   6.540 -0.3095 -0.5525 -0.1331
14873TIP3    H166034   1.467   1.818   6.564  1.0127 -1.3160 -1.8614
14873TIP3    H266035   1.420   1.675   6.583  0.0508 -0.8999 -0.9818
14874TIP3   OH266036   6.408   3.946   4.858 -0.2150  0.3868 -1.3206
14874TIP3    H166037   6.454   3.864   4.845  1.3006  1.1991 -1.2857
14874TIP3    H266038   6.315   3.923   4.851  0.1609 -1.3741 -0.8777
14875TIP3   OH266039   4.640   0.041  15.460  0.2161  0.1024  0.2186
14875TIP3    H166040   4.575  -0.021  15.492 -0.6728  1.6110  1.5084
14875TIP3    H266041   4.652   0.103  15.532  1.2624  1.2563 -0.8919
14876TIP3   OH266042   4.779   5.181  13.284 -0.5294 -0.4742  0.1368
14876TIP3    H166043   4.863   5.151  13.250 -0.6537 -1.1686  0.4330
14876TIP3    H266044   4.791   5.275  13.297 -0.5670 -0.0844 -2.1059
14877TIP3   OH266045   0.063   0.134  14.290 -0.2137 -0.4457  0.2805
14877TIP3    H166046   0.131   0.105  14.350 -0.9036  0.8273  1.7404
14877TIP3    H266047   0.108   0.145  14.206  1.0392 -1.0442  0.8455
14878TIP3   OH266048   3.619   0.623  13.495 -0.4235 -0.3180 -0.3523
14878TIP3    H166049   3.605   0.604  13.588  0.4351 -2.6540 -0.6366
14878TIP3    H266050   3.535   0.601  13.453 -0.2021 -1.2424 -0.3473
14879TIP3   OH266051   3.504   5.555   6.145 -0.2556  0.1191  0.2364
14879TIP3    H166052   3.499   5.470   6.187 -0.2955  0.9787  2.0650
14879TIP3    H266053   3.431   5.555   6.083  0.1787 -1.4216 -0.3145
14880TIP3   OH266054   0.206   1.907  15.656  0.5475 -0.5018 -0.0102
14880TIP3    H166055   0.171   1.820  15.636  1.7236 -1.2683  1.1440
14880TIP3    H266056   0.254   1.896  15.737  0.9062  1.1984  0.0499
14881TIP3   OH266057   2.490   0.648  11.490  0.5581 -0.5804 -0.1600
14881TIP3    H166058   2.465   0.710  11.422 -1.8990 -0.5436  0.6769
14881TIP3    H266059   2.537   0.579  11.444  1.6741  0.9324 -1.3860
14882TIP3   OH266060   1.537   4.120   3.194  0.1020  0.0552  0.1097
14882TIP3    H166061   1.451   4.160   3.195  0.3670  0.6272  0.5000
14882TIP3    H266062   1.552   4.090   3.284  0.1492 -0.4027 -0.0443
14883TIP3   OH266063   1.435   6.542  17.122 -0.1186 -0.2976  0.3129
14883TIP3    H166064   1.489   6.620  17.111 -0.3593 -0.0427  0.8714
14883TIP3    H266065   1.418   6.512  17.033  1.0031 -0.4351  0.1326
14884TIP3   OH266066   4.726   5.918   2.418 -0.7572 -0.8304 -0.4193
14884TIP3    H166067   4.690   5.842   2.374 -0.9784  0.2968 -2.3044
14884TIP3    H266068   4.778   5.963   2.351  1.4641 -0.6167  1.2897
14885TIP3   OH266069   5.500   1.937   5.763 -0.0678  0.4465  0.4591
14885TIP3    H166070   5.562   2.010   5.762 -1.0018  1.2833 -0.9696
14885TIP3    H266071   5.497   1.909   5.854  1.7686  0.9120  0.6964
14886TIP3   OH266072   1.280   0.652  12.554  0.1839 -0.4030  0.0595
14886TIP3    H166073   1.199   0.611  12.524  0.1739 -0.0627 -0.3824
14886TIP3    H266074   1.347   0.585  12.541 -0.5802 -2.3338  4.2661
14887TIP3   OH266075   1.725   3.066  12.506  0.1878  0.5660 -0.2460
14887TIP3    H166076   1.769   3.140  12.466 -0.3571  0.4344 -1.1198
14887TIP3    H266077   1.741   2.993  12.446 -0.5153  0.3296 -0.1648
14888TIP3   OH266078   5.870   1.521  15.696 -0.8111  0.0798  0.1694
14888TIP3    H166079   5.838   1.605  15.728 -2.3219 -0.6495  0.6630
14888TIP3    H266080   5.959   1.515  15.730 -0.7354  1.3995  0.2601
14889TIP3   OH266081   3.639   1.226   2.519 -0.0451  0.0827 -0.3130
14889TIP3    H166082   3.561   1.187   2.558 -0.4597 -0.1246 -1.3136
14889TIP3    H266083   3.671   1.161   2.456  0.2268  0.6495 -0.7846
14890TIP3   OH266084   0.225   4.971   4.692  0.1936  0.0277  0.0455
14890TIP3    H166085   0.200   5.007   4.777 -0.1826 -0.0446 -0.0339
14890TIP3    H266086   0.288   5.035   4.657 -1.2890  1.2073 -0.5764
14891TIP3   OH266087   0.835   6.775   5.941 -0.1406 -0.2549  0.3467
14891TIP3    H166088   0.922   6.741   5.965 -0.1467  0.1211  0.9423
14891TIP3    H266089   0.786   6.775   6.024 -0.3877  0.4510  0.2130
14892TIP3   OH266090   1.618   5.446   5.120 -0.6208 -0.2198 -0.0289
14892TIP3    H166091   1.701   5.491   5.106  0.2318 -1.1051  1.8329
14892TIP3    H266092   1.584   5.430   5.032  1.8743 -1.0786 -0.9169
14893TIP3   OH266093   6.464   0.029  11.729 -0.1205  0.1864 -0.5480
14893TIP3    H166094   6.444   0.120  11.705  0.6830  0.0252 -1.9442
14893TIP3    H266095   6.380  -0.016  11.725 -0.7292  1.0544  1.2473
14894TIP3   OH266096   3.289   0.676  11.309 -0.3697 -0.1483  0.0975
14894TIP3    H166097   3.196   0.668  11.334 -0.0284 -1.2580  1.1238
14894TIP3    H266098   3.306   0.599  11.255  0.9250 -2.4208  3.3541
14895TIP3   OH266099   1.861   4.064   1.103  0.2115  0.6326 -0.4489
14895TIP3    H166100   1.822   4.152   1.097  0.3258  0.6924 -0.3152
14895TIP3    H266101   1.899   4.060   1.190 -1.7729 -0.3697  0.4320
14896TIP3   OH266102   6.247   4.058  15.205 -0.7275 -0.0978 -0.0822
14896TIP3    H166103   6.230   3.999  15.279 -6.0378  0.2438 -0.6148
14896TIP3    H266104   6.193   4.135  15.223  0.0502  1.2584 -2.9773
14897TIP3   OH266105   2.079   3.308   4.582 -0.5399  0.2073 -0.3933
14897TIP3    H166106   2.105   3.216   4.591  1.2278  0.6393 -0.7416
14897TIP3    H266107   1.999   3.316   4.635 -0.0892 -1.2623  0.5693
14898TIP3   OH266108   6.489   4.331   5.031 -0.3356  0.1234  0.4356
14898TIP3    H166109   6.564   4.389   5.016 -0.5330 -0.0066 -1.2574
14898TIP3    H266110   6.415   4.377   4.992 -0.5067 -1.1894 -0.8723
14899TIP3   OH266111   6.498   6.465   6.574 -0.4012 -0.4132  0.3801
14899TIP3    H166112   6.454   6.482   6.657  0.5236  0.5142  0.6966
14899TIP3    H266113   6.520   6.372   6.578  0.1488 -0.2564  1.4358
14900TIP3   OH266114   6.569   0.541   2.117 -0.0644 -0.4000 -0.4136
14900TIP3    H166115   6.511   0.557   2.191 -1.1342  1.2068 -1.5156
14900TIP3    H266116   6.568   0.446   2.105 -0.6112 -0.5969  1.0291
14901TIP3   OH266117   4.262   1.417   1.445 -0.5661  0.2031  0.3561
14901TIP3    H166118   4.250   1.500   1.401 -0.7722  0.2356  0.4703
14901TIP3    H266119   4.298   1.358   1.378  0.4205  0.6147  0.5003
14902TIP3   OH266120   1.185   6.486  15.964 -0.0532 -0.1008  0.7706
14902TIP3    H166121   1.120   6.511  15.898 -0.7058 -0.4565  1.2703
14902TIP3    H266122   1.137   6.489  16.047  0.4624 -0.7510  1.0988
14903TIP3   OH266123   0.034   2.833  14.900 -0.7835  0.4180 -0.4599
14903TIP3    H166124   0.073   2.787  14.974  1.4400 -0.1309 -1.8766
14903TIP3    H266125  -0.029   2.771  14.863 -0.3896 -0.1102 -0.2520
14904TIP3   OH266126   3.813   5.678   0.250  0.4129  0.4124  0.0725
14904TIP3    H166127   3.853   5.619   0.314  0.1249  0.6766  0.4952
14904TIP3    H266128   3.777   5.750   0.302 -1.1744 -0.1321 -0.2472
14905TIP3   OH266129   3.741   0.702  15.733  0.1320 -0.5711 -0.2433
14905TIP3    H166130   3.794   0.779  15.754 -0.1589 -0.4331 -0.0140
14905TIP3    H266131   3.804   0.639  15.699  0.6614 -0.8519  1.1667
14906TIP3   OH266132   2.237   5.855  12.990  0.8073  0.0755 -0.1504
14906TIP3    H166133   2.208   5.776  13.037 -1.2602  0.9002  0.0575
14906TIP3    H266134   2.176   5.864  12.918  1.9385  0.6897 -1.0673
14907TIP3   OH266135   1.979   0.309  13.790  0.5126  0.2144 -0.2016
14907TIP3    H166136   1.997   0.226  13.835 -1.9430 -0.3075 -0.0611
14907TIP3    H266137   1.973   0.374  13.861  0.6808  0.1937 -0.1661
14908TIP3   OH266138   4.179   4.180   0.987 -0.5038  0.2573  0.0018
14908TIP3    H166139   4.177   4.221   1.074  0.0418 -0.2149  0.2479
14908TIP3    H266140   4.225   4.097   1.001 -2.2429 -0.8137 -0.3364
14909TIP3   OH266141   5.084   6.062  15.867 -0.4778  0.1116 -0.1630
14909TIP3    H166142   5.061   6.117  15.792 -0.5072  0.0286 -0.2149
14909TIP3    H266143   5.003   6.015  15.888 -0.4742  0.1470 -0.0684
14910TIP3   OH266144   6.177   5.578  14.024 -0.2989  0.3630 -0.5927
14910TIP3    H166145   6.138   5.521  13.958  0.9899 -0.4550 -0.6714
14910TIP3    H266146   6.120   5.655  14.025 -2.1821 -0.9632 -0.3575
14911TIP3   OH266147   0.805   0.843  10.690 -0.3958 -0.3564  0.2187
14911TIP3    H166148   0.814   0.748  10.691 -1.4882 -0.4738  1.2743
14911TIP3    H266149   0.711   0.859  10.704  0.0076  0.8816  1.8416
14912TIP3   OH266150   1.885   3.834  13.479  0.0005 -0.6235 -0.0534
14912TIP3    H166151   1.934   3.773  13.425 -1.6181 -0.2218 -2.0947
14912TIP3    H266152   1.854   3.901  13.418  0.1280  1.2214  1.7900
14913TIP3   OH266153   4.691   4.454   4.145  0.5086 -0.4374 -0.0105
14913TIP3    H166154   4.690   4.361   4.123 -0.6865 -0.3982 -0.1981
14913TIP3    H266155   4.599   4.481   4.140  0.9086  0.9009 -0.6076
14914TIP3   OH266156   0.851   5.120  10.517 -0.0492 -0.0730  0.0758
14914TIP3    H166157   0.798   5.146  10.441 -0.4588 -1.6100 -0.2052
14914TIP3    H266158   0.788   5.079  10.576  0.8914 -2.8516 -0.6918
14915TIP3   OH266159   4.317   6.186   3.347 -0.3293 -0.2458  0.5188
14915TIP3    H166160   4.385   6.121   3.367  0.0317  0.0594  0.2935
14915TIP3    H266161   4.246   6.165   3.407  0.0624 -0.4179  0.9293
14916TIP3   OH266162   5.879   6.397   6.881  0.0267 -0.3916  0.2020
14916TIP3    H166163   5.836   6.317   6.850 -0.3820  0.1987 -0.7945
14916TIP3    H266164   5.811   6.464   6.876  0.3616  0.0202  1.0538
14917TIP3   OH266165   2.903   3.663   2.451  0.2481 -0.1881 -0.0702
14917TIP3    H166166   2.929   3.653   2.543  1.5916  1.2988 -0.2464
14917TIP3    H266167   2.912   3.575   2.414  2.0664 -0.3498  0.6661
14918TIP3   OH266168   6.737   6.431   0.976 -0.2346 -0.4587 -0.3363
14918TIP3    H166169   6.811   6.371   0.983  0.4746  0.5035  1.0182
14918TIP3    H266170   6.743   6.486   1.055 -2.5260 -0.4990 -0.0538
14919TIP3   OH266171   0.403   1.915  11.490  1.0307  0.0922  0.2008
14919TIP3    H166172   0.447   1.937  11.407 -1.5081  0.3757 -1.1678
14919TIP3    H266173   0.456   1.843  11.526  2.1110 -0.1846 -1.7624
14920TIP3   OH266174   2.766   3.548  11.851 -0.4048 -0.2155 -0.0248
14920TIP3    H166175   2.849   3.580  11.816  0.7261 -2.5520  0.3637
14920TIP3    H266176   2.747   3.469  11.800 -2.9877  0.7825 -0.8206
14921TIP3   OH266177   4.916   6.755   2.814  0.5207  0.3237  0.3149
14921TIP3    H166178   4.860   6.725   2.886 -0.5919 -0.3527 -0.7909
14921TIP3    H266179   5.005   6.746   2.848  0.0257  0.1522  1.6506
14922TIP3   OH266180   2.601   0.831   0.262  0.1921  0.2710  0.0620
14922TIP3    H166181   2.687   0.823   0.303  0.2119 -0.5208 -0.1207
14922TIP3    H266182   2.617   0.815   0.169 -0.2750 -0.8080  0.1472
14923TIP3   OH266183   5.769   6.433  12.946  0.5089  0.0209 -0.5141
14923TIP3    H166184   5.695   6.387  12.906  0.1288  0.1872 -0.0210
14923TIP3    H266185   5.843   6.417  12.887  0.0449 -0.0255 -1.0838
14924TIP3   OH266186   4.504   1.588  15.203 -0.2333  0.0132 -0.1979
14924TIP3    H166187   4.551   1.596  15.286 -1.8210  0.6326  0.7008
14924TIP3    H266188   4.548   1.649  15.144 -0.2171  0.9691  0.7769
14925TIP3   OH266189   2.209   2.315   3.273  0.2595 -0.2905 -0.2253
14925TIP3    H166190   2.153   2.343   3.201 -0.6538  0.0221  0.5840
14925TIP3    H266191   2.290   2.286   3.231 -0.2823 -0.1817 -1.3718
14926TIP3   OH266192   0.660   3.080  16.937 -0.6952  0.0702  0.1689
14926TIP3    H166193   0.607   3.003  16.960 -0.7136 -0.0769 -0.3539
14926TIP3    H266194   0.638   3.145  17.003 -0.3983 -0.5016  0.8535
14927TIP3   OH266195   3.029   3.766   3.443 -0.0346 -0.4496  0.1927
14927TIP3    H166196   2.999   3.709   3.514 -2.4337  0.4110 -0.0432
14927TIP3    H266197   2.953   3.775   3.385  0.6707  1.8559 -0.5084
14928TIP3   OH266198   5.794   1.999  12.580 -0.3059  0.2624  0.5633
14928TIP3    H166199   5.863   1.939  12.609  0.6286  0.4208 -1.1949
14928TIP3    H266200   5.716   1.945  12.573  0.3817 -0.6330 -0.3997
14929TIP3   OH266201   2.216   5.581   1.052  0.3783  0.5361  0.1911
14929TIP3    H166202   2.123   5.582   1.074  0.0750  2.0706 -0.9974
14929TIP3    H266203   2.219   5.574   0.956  1.4882  0.5150  0.2044
14930TIP3   OH266204   5.947   6.100   2.302 -0.0938 -0.3035  0.3316
14930TIP3    H166205   5.988   6.099   2.215 -1.4359 -1.2776 -0.3358
14930TIP3    H266206   6.015   6.069   2.361  0.7829  0.1739 -0.4014
14931TIP3   OH266207   1.494   2.803   5.938  0.1476 -0.3272  0.6138
14931TIP3    H166208   1.453   2.742   5.999  2.3023 -0.8876  1.6067
14931TIP3    H266209   1.509   2.752   5.859 -1.1916 -0.0474  0.1435
14932TIP3   OH266210   3.105   6.798   0.147  0.3594 -0.5500 -0.0503
14932TIP3    H166211   3.063   6.835   0.224  0.2640 -0.3806 -0.1820
14932TIP3    H266212   3.165   6.867   0.118  0.0715 -0.4332 -0.3838
14933TIP3   OH266213   2.055   2.685   2.943 -0.2572 -0.6075 -0.2559
14933TIP3    H166214   2.117   2.748   2.907 -0.5337 -1.3560 -2.1294
14933TIP3    H266215   1.984   2.740   2.979  0.2593  0.1773 -0.4044
14934TIP3   OH266216   6.008   5.255   1.397 -0.2478 -0.0602 -0.2133
14934TIP3    H166217   5.930   5.236   1.449 -1.2108 -0.6507 -1.8098
14934TIP3    H266218   6.023   5.349   1.409 -0.5107 -0.1640  1.0090
14935TIP3   OH266219   5.360   2.264   5.393  0.6692 -0.1360  0.5903
14935TIP3    H166220   5.365   2.356   5.366  1.2035 -0.0908  0.8370
14935TIP3    H266221   5.274   2.256   5.435  0.7992  0.3532  0.9583
14936TIP3   OH266222   3.671   2.070  14.795  0.1363 -0.1258  0.2491
14936TIP3    H166223   3.636   1.991  14.836  0.5283  0.0141  0.8765
14936TIP3    H266224   3.744   2.039  14.741 -0.9062 -0.4134 -1.0324
14937TIP3   OH266225   1.805   5.605  14.407  0.0414 -0.7365 -0.2869
14937TIP3    H166226   1.896   5.600  14.434  0.1838 -1.0544 -0.8119
14937TIP3    H266227   1.797   5.690  14.364 -0.1398 -0.3123  0.5533
14938TIP3   OH266228   0.021   3.236   5.927 -0.4796 -0.3858  0.3775
14938TIP3    H166229   0.107   3.272   5.949  0.0032 -0.2308 -1.5340
14938TIP3    H266230  -0.002   3.180   6.001 -0.8046  2.9258  3.0467
14939TIP3   OH266231   0.271   1.536   1.684  0.2276  0.3057  0.3270
14939TIP3    H166232   0.234   1.596   1.618  1.0998 -0.9814 -1.4028
14939TIP3    H266233   0.335   1.589   1.731 -1.0348  1.4966  0.7779
14940TIP3   OH266234   2.135   6.336   5.872  0.2617  0.0779 -0.2251
14940TIP3    H166235   2.205   6.283   5.835  1.1498  0.8088  0.3717
14940TIP3    H266236   2.172   6.373   5.952 -0.1216  2.0141 -0.8762
14941TIP3   OH266237   6.438   3.403  15.238 -0.4619  0.0285 -0.5463
14941TIP3    H166238   6.507   3.468  15.227 -0.3964  0.2221  0.8281
14941TIP3    H266239   6.369   3.449  15.285 -0.4413 -0.8638  0.3876
14942TIP3   OH266240   3.358   4.154   4.756 -0.1776  0.6308 -0.3313
14942TIP3    H166241   3.421   4.203   4.702 -1.9189  2.2566 -1.0363
14942TIP3    H266242   3.399   4.069   4.770  2.7952  2.0552  0.4616
14943TIP3   OH266243   3.655   5.298   0.480 -0.2338  0.1765 -0.0494
14943TIP3    H166244   3.623   5.274   0.567 -0.7603  0.8675 -0.0490
14943TIP3    H266245   3.736   5.346   0.496 -1.6746  2.6727  0.2542
14944TIP3   OH266246   3.134   4.281   3.435 -0.3735  0.1875 -0.0082
14944TIP3    H166247   3.197   4.352   3.447  0.8860 -0.6169 -1.4122
14944TIP3    H266248   3.155   4.219   3.505  1.2637 -0.6242 -1.1562
14945TIP3   OH266249   6.369   5.244  16.484 -0.1375  0.4165 -0.0760
14945TIP3    H166250   6.338   5.166  16.438  0.4670  0.3605 -0.4043
14945TIP3    H266251   6.364   5.314  16.419  1.1749  0.2403 -0.4109
14946TIP3   OH266252   2.878   6.756   3.312  0.1532 -0.8549 -0.1493
14946TIP3    H166253   2.944   6.703   3.357  0.1322 -0.6551  0.1134
14946TIP3    H266254   2.884   6.842   3.351 -0.3880 -0.8802  0.0063
14947TIP3   OH266255   3.371   5.877  13.325  0.0372  0.3096 -0.4270
14947TIP3    H166256   3.288   5.834  13.304 -0.2216  0.0269  1.0246
14947TIP3    H266257   3.353   5.924  13.407  1.2496  0.4530 -0.2286
14948TIP3   OH266258   4.085   4.667   4.072  0.1352 -0.2703  0.5306
14948TIP3    H166259   3.992   4.648   4.059 -0.1093  0.4370  1.2564
14948TIP3    H266260   4.090   4.708   4.158  1.1646 -0.5824  0.6323
14949TIP3   OH266261   4.342   2.668  17.109  0.0445  0.5363 -0.3500
14949TIP3    H166262   4.353   2.600  17.042  0.9147 -0.1030  0.4294
14949TIP3    H266263   4.325   2.748  17.059 -1.0779 -0.2504 -1.2809
14950TIP3   OH266264   0.213   4.426   0.734  0.1508  0.4886  0.0791
14950TIP3    H166265   0.188   4.447   0.824  2.1968 -0.5299  0.9527
14950TIP3    H266266   0.150   4.359   0.707 -1.2384  1.6610  0.2605
14951TIP3   OH266267   1.887   0.199  16.445 -0.2573 -0.4984 -0.0160
14951TIP3    H166268   1.920   0.181  16.357  0.4131  1.9412 -0.3563
14951TIP3    H266269   1.964   0.233  16.492 -1.3655  1.7145  0.3301
14952TIP3   OH266270   4.434   1.575   2.411  0.5075  0.3541  0.5031
14952TIP3    H166271   4.392   1.505   2.462 -0.8765  0.0792 -0.9365
14952TIP3    H266272   4.461   1.532   2.330  1.9682  0.9635  0.6269
14953TIP3   OH266273   0.342   5.467  15.214 -0.2775 -0.0155  0.0910
14953TIP3    H166274   0.393   5.473  15.133  0.4470 -0.0069  0.5355
14953TIP3    H266275   0.407   5.443  15.281 -1.0140 -0.8852  0.5121
14954TIP3   OH266276   2.902   4.764   4.726 -0.0571  0.1983 -0.3051
14954TIP3    H166277   2.881   4.742   4.635  0.9331  0.3413 -0.5822
14954TIP3    H266278   2.994   4.742   4.735 -0.3074 -0.4370  0.8708
14955TIP3   OH266279   6.369   3.789  15.075 -0.5184  0.2614 -0.0829
14955TIP3    H166280   6.422   3.757  15.002 -0.2800  0.0547  0.1762
14955TIP3    H266281   6.347   3.879  15.052 -1.0497 -0.0324 -0.7415
14956TIP3   OH266282   2.221   6.598   2.593  0.1780  0.1351  0.1862
14956TIP3    H166283   2.245   6.662   2.527  2.0540 -0.7067  0.0049
14956TIP3    H266284   2.286   6.610   2.662 -2.2570  1.6590  2.4411
14957TIP3   OH266285   6.395   5.516  14.782  0.9507 -0.3518  0.5463
14957TIP3    H166286   6.418   5.452  14.850  0.7235 -1.8722 -0.7574
14957TIP3    H266287   6.388   5.465  14.702 -1.4807  0.9420 -0.1682
14958TIP3   OH266288   0.311   5.021  16.921  0.1201  0.5132  0.0931
14958TIP3    H166289   0.336   4.932  16.942 -0.1508  0.5600  0.6190
14958TIP3    H266290   0.309   5.067  17.005 -1.3910  0.5861  0.0519
14959TIP3   OH266291   6.267   0.432  15.519 -0.2276  0.3307 -0.0104
14959TIP3    H166292   6.227   0.498  15.463  1.0316  1.7611  0.7047
14959TIP3    H266293   6.360   0.433  15.494 -0.0087 -0.4395  0.7384
14960TIP3   OH266294   1.655   1.229  14.822 -0.4012  0.1240 -0.5141
14960TIP3    H166295   1.698   1.264  14.745  0.1983 -0.9396 -0.6877
14960TIP3    H266296   1.655   1.301  14.885  0.3971  0.5586 -0.9993
14961TIP3   OH266297   0.019   1.261   2.922 -0.6549  0.1145  0.1220
14961TIP3    H166298   0.094   1.264   2.863  0.9376 -1.1095  1.9464
14961TIP3    H266299   0.047   1.314   2.998 -1.0590 -1.3961  1.3800
14962TIP3   OH266300   3.149   5.485  12.526 -0.6114 -0.7986  0.1796
14962TIP3    H166301   3.203   5.443  12.593  2.6945  1.0015 -1.1076
14962TIP3    H266302   3.121   5.413  12.469  0.7587 -1.8057  0.7183
14963TIP3   OH266303   0.602   2.118  12.867  0.4819 -0.3866  0.0587
14963TIP3    H166304   0.696   2.105  12.853  0.2669 -0.8819 -1.0362
14963TIP3    H266305   0.560   2.060  12.804 -0.5698 -0.1973  0.5589
14964TIP3   OH266306   4.816   5.771  11.203 -0.3455  0.6761 -0.1635
14964TIP3    H166307   4.871   5.694  11.218 -0.2558  0.6403 -0.6705
14964TIP3    H266308   4.753   5.743  11.136 -0.8770  0.7699  0.2823
14965TIP3   OH266309   3.601   1.445   5.062  0.6862 -0.4487 -0.0041
14965TIP3    H166310   3.631   1.421   4.975  0.7202 -1.2501  0.2192
14965TIP3    H266311   3.624   1.537   5.071  1.0740 -0.4745 -0.6754
14966TIP3   OH266312   4.700   0.719  11.361  0.5322 -0.3406 -0.1924
14966TIP3    H166313   4.780   0.690  11.404  0.3991 -0.8716 -0.2932
14966TIP3    H266314   4.704   0.679  11.274  0.4925  0.1988 -0.4472
14967TIP3   OH266315   6.178   1.842  15.048  0.4985  0.2358 -0.0426
14967TIP3    H166316   6.147   1.754  15.029  0.7532 -0.4489  2.3553
14967TIP3    H266317   6.101   1.898  15.038  0.4716 -0.1282 -2.1494
14968TIP3   OH266318   1.527   3.813   4.197 -0.2802  0.1223  0.2023
14968TIP3    H166319   1.557   3.880   4.136  1.6187 -1.6401 -0.9588
14968TIP3    H266320   1.600   3.801   4.258 -1.1810  0.1325  1.3151
14969TIP3   OH266321   4.510   1.013   0.952  0.3197  0.4110  0.2654
14969TIP3    H166322   4.439   0.955   0.981 -0.6963  1.1648 -0.6280
14969TIP3    H266323   4.473   1.101   0.958  1.4638  0.8940  0.5372
14970TIP3   OH266324   5.352   3.578  14.380  0.0959 -0.4321 -0.2231
14970TIP3    H166325   5.307   3.504  14.340 -0.2762 -1.0210  1.2235
14970TIP3    H266326   5.283   3.644  14.391 -0.2904 -1.0418  1.2740
14971TIP3   OH266327   1.645   6.406  11.744 -0.3173  0.1705  0.5896
14971TIP3    H166328   1.595   6.329  11.771 -1.6553  1.1116  0.8883
14971TIP3    H266329   1.637   6.467  11.817 -1.9129  1.7893 -0.8271
14972TIP3   OH266330   0.469   5.282   4.336  0.1865 -0.4999  0.9703
14972TIP3    H166331   0.539   5.270   4.272  0.0792  1.7695  0.3244
14972TIP3    H266332   0.395   5.235   4.300 -0.0245  1.1493 -0.9221
14973TIP3   OH266333   4.332   3.549  10.532 -0.0358 -0.4953  0.2911
14973TIP3    H166334   4.356   3.641  10.525 -0.6004 -0.4813 -3.0103
14973TIP3    H266335   4.342   3.528  10.625  2.7597  2.1230  0.7200
14974TIP3   OH266336   3.846   2.772  13.128  0.6236 -0.3857 -0.5410
14974TIP3    H166337   3.841   2.867  13.136  1.9196 -0.3893  0.7692
14974TIP3    H266338   3.755   2.743  13.124  0.2029  0.9973 -2.7430
14975TIP3   OH266339   6.009   2.345  17.142  0.2669  0.4334  0.3660
14975TIP3    H166340   6.044   2.432  17.158  1.0168  0.0536  0.8560
14975TIP3    H266341   5.914   2.358  17.132  0.7629  2.0748 -5.0930
14976TIP3   OH266342   3.229   0.796  12.452  0.1260  0.2605 -0.4269
14976TIP3    H166343   3.312   0.753  12.473  0.0035  0.9855  1.7303
14976TIP3    H266344   3.172   0.778  12.527 -1.5794  0.0918 -1.6836
14977TIP3   OH266345   5.548   3.292  13.236  0.0467 -0.1340 -0.1086
14977TIP3    H166346   5.639   3.309  13.258 -0.2876  0.5505  0.7725
14977TIP3    H266347   5.547   3.288  13.140  0.8823  0.5613 -0.1575
14978TIP3   OH266348   2.366   1.821   4.234  0.3020 -0.6189 -0.4536
14978TIP3    H166349   2.328   1.844   4.149 -0.7485 -2.7775 -0.6213
14978TIP3    H266350   2.291   1.806   4.291  0.9942  0.7015  0.8943
14979TIP3   OH266351   3.716   3.065   5.604 -0.0536 -0.6007  0.0411
14979TIP3    H166352   3.766   3.144   5.624 -0.2495 -0.0827 -1.4269
14979TIP3    H266353   3.776   2.993   5.627  0.8629 -0.0082 -0.4441
14980TIP3   OH266354   5.734   4.692   5.849 -0.3434  0.3027  0.0206
14980TIP3    H166355   5.689   4.638   5.914 -0.4041 -1.0942 -1.1537
14980TIP3    H266356   5.790   4.750   5.902 -0.5443 -0.6346  1.3219
14981TIP3   OH266357   5.523   0.086  14.954  0.1188  0.1040  0.2615
14981TIP3    H166358   5.552   0.091  15.045 -0.8276 -1.0760  0.6474
14981TIP3    H266359   5.542  -0.004  14.927  2.6647  1.0568 -1.5416
14982TIP3   OH266360   3.663   4.424   3.848 -0.7665 -0.3225 -0.3020
14982TIP3    H166361   3.751   4.458   3.834 -0.1017 -1.6813  0.3923
14982TIP3    H266362   3.641   4.450   3.937 -1.1875  0.2460 -0.5671
14983TIP3   OH266363   5.895   6.559   5.362  0.1355  0.6861 -0.3428
14983TIP3    H166364   5.882   6.650   5.338  0.0071  1.4471  2.2375
14983TIP3    H266365   5.841   6.547   5.440 -1.6903 -2.3115 -1.9214
14984TIP3   OH266366   3.938   3.209   2.082  0.3776  0.1402 -0.3783
14984TIP3    H166367   3.999   3.281   2.099 -0.0813  0.3297  0.5073
14984TIP3    H266368   3.986   3.130   2.108  0.8589  0.1081 -1.2919
14985TIP3   OH266369   4.416   3.483  16.640 -0.0923 -0.4516  0.1102
14985TIP3    H166370   4.506   3.481  16.672 -0.0350  1.9532  0.2753
14985TIP3    H266371   4.364   3.445  16.711  0.2604  2.9404  2.4014
14986TIP3   OH266372   4.570   5.479  14.826 -0.1260 -0.5638 -0.3427
14986TIP3    H166373   4.575   5.391  14.791  1.5887 -0.3434 -0.7558
14986TIP3    H266374   4.661   5.507  14.834 -0.5849  0.6831  1.0348
14987TIP3   OH266375   4.488   5.558  11.416 -0.0068 -0.2945  0.0645
14987TIP3    H166376   4.484   5.501  11.493 -2.0280 -1.8248 -1.0694
14987TIP3    H266377   4.516   5.643  11.450 -1.4036 -0.7462  2.5858
14988TIP3   OH266378   2.770   5.255   2.607  0.1282 -0.1204 -0.3099
14988TIP3    H166379   2.774   5.220   2.517  0.0249 -0.0123 -0.3567
14988TIP3    H266380   2.677   5.274   2.621  0.3696  1.6887 -0.8832
14989TIP3   OH266381   0.705   4.263  15.016  0.2182  0.2965 -0.6980
14989TIP3    H166382   0.636   4.210  14.975 -0.4760 -0.0635  0.8795
14989TIP3    H266383   0.663   4.347  15.033 -0.5482 -0.5703  2.1440
14990TIP3   OH266384   0.180   0.626   0.629 -0.2670 -0.1334 -0.4064
14990TIP3    H166385   0.088   0.643   0.646 -0.3429  0.4386 -1.2984
14990TIP3    H266386   0.222   0.712   0.639  0.0130 -0.2047 -0.8912
14991TIP3   OH266387   3.959   2.703  15.854 -0.1136 -0.7934 -0.5270
14991TIP3    H166388   3.870   2.706  15.889  0.1322 -2.4419  0.3491
14991TIP3    H266389   3.966   2.782  15.800 -1.2164  0.7920  1.4732
14992TIP3   OH266390   3.822   3.752  10.510 -0.1246 -0.3737 -0.2298
14992TIP3    H166391   3.808   3.734  10.603 -0.7504 -2.3231 -0.6336
14992TIP3    H266392   3.735   3.775  10.477 -0.0151 -0.2590 -0.4418
14993TIP3   OH266393   4.279   1.563   0.328 -0.0280  0.4039 -0.2475
14993TIP3    H166394   4.321   1.479   0.348 -1.9054 -0.0624  2.2075
14993TIP3    H266395   4.352   1.623   0.316  1.3595 -1.2250 -0.3884
14994TIP3   OH266396   2.153   5.646  16.419 -0.3174 -0.7079  0.0934
14994TIP3    H166397   2.215   5.576  16.401  2.2770  1.5326 -0.3851
14994TIP3    H266398   2.125   5.631  16.510 -0.8072 -2.9701 -0.3774
14995TIP3   OH266399   4.654   5.416   0.576  0.2443 -0.0640  0.2811
14995TIP3    H166400   4.683   5.500   0.610  0.8139  0.7532 -2.0114
14995TIP3    H266401   4.559   5.426   0.565  0.3385  0.3680 -0.1697
14996TIP3   OH266402   3.429   2.769   0.741  0.3901  0.5284  0.0565
14996TIP3    H166403   3.398   2.781   0.651  0.9780 -1.2630 -0.4240
14996TIP3    H266404   3.389   2.687   0.770  2.1486 -0.2011  0.5366
14997TIP3   OH266405   2.566   3.539   0.955 -1.0448  0.1885 -0.7340
14997TIP3    H166406   2.529   3.529   1.043  0.6568 -1.8748 -0.1584
14997TIP3    H266407   2.658   3.563   0.971 -0.7601 -0.0379 -1.9663
14998TIP3   OH266408   5.655   3.467  15.116 -0.1801 -0.2024  0.2625
14998TIP3    H166409   5.643   3.410  15.039 -0.2367 -0.1612  0.2411
14998TIP3    H266410   5.747   3.492  15.113 -0.0407 -0.6674  0.5321
14999TIP3   OH266411   4.144   1.930   4.725 -0.6753 -0.2732 -0.0480
14999TIP3    H166412   4.217   1.873   4.747  0.8134  1.1086 -1.2333
14999TIP3    H266413   4.170   2.017   4.757 -2.3152  0.0554  0.5259
15000TIP3   OH266414   6.765   1.852  13.776 -0.2875 -0.0512  0.3437
15000TIP3    H166415   6.850   1.894  13.765  0.2890 -0.7370  1.8662
15000TIP3    H266416   6.781   1.781  13.837 -2.4811  1.4988  2.9592
15001TIP3   OH266417   3.169   3.668   4.001 -0.2095  0.5764 -0.1021
15001TIP3    H166418   3.087   3.631   3.967 -0.2741  0.3160  0.3338
15001TIP3    H266419   3.232   3.654   3.931 -0.0666 -0.9547  0.2991
15002TIP3   OH266420   3.645   2.524  10.938 -0.2419 -0.2254 -0.4499
15002TIP3    H166421   3.658   2.548  10.846  0.0734 -1.5615 -0.7912
15002TIP3    H266422   3.553   2.496  10.942 -0.5478  0.8013 -0.1084
15003TIP3   OH266423   4.420   0.130   4.503 -0.1253  0.2444 -0.1754
15003TIP3    H166424   4.374   0.194   4.557  1.4911  0.5424  0.9202
15003TIP3    H266425   4.500   0.111   4.552  0.4126 -1.0523 -1.4923
15004TIP3   OH266426   1.891   4.185  14.084 -0.3647  0.0915  0.9131
15004TIP3    H166427   1.801   4.172  14.054  0.1017 -1.4336  0.0601
15004TIP3    H266428   1.945   4.145  14.016  0.8892 -0.4000  2.1435
15005TIP3   OH266429   6.672   6.418  13.105  0.5661  0.2442  0.4690
15005TIP3    H166430   6.745   6.432  13.166  1.6075  0.3254 -0.7420
15005TIP3    H266431   6.712   6.376  13.029 -0.7478 -0.1242 -0.0459
15006TIP3   OH266432   6.470   3.280  12.274  0.0493  0.4779  0.0523
15006TIP3    H166433   6.456   3.322  12.189 -0.6684  0.7520  0.3001
15006TIP3    H266434   6.548   3.225  12.261  1.0850  1.9580 -0.2417
15007TIP3   OH266435   2.615   0.464  16.341  0.1229  0.3090 -0.1737
15007TIP3    H166436   2.551   0.406  16.381  0.1973  0.3159 -0.0399
15007TIP3    H266437   2.564   0.528  16.293  0.0567 -0.1720 -0.7452
15008TIP3   OH266438   0.695   2.192   4.643 -0.0236 -0.6085 -0.1694
15008TIP3    H166439   0.765   2.243   4.684 -0.6663 -1.8060  2.6693
15008TIP3    H266440   0.740   2.114   4.610  0.2992 -0.3035 -0.4647
15009TIP3   OH266441   1.983   4.124   4.435 -0.5727  0.1575  0.5002
15009TIP3    H166442   1.964   4.164   4.520 -0.4267  0.0366  0.5900
15009TIP3    H266443   1.902   4.081   4.410 -0.0336 -1.5313  1.5246
15010TIP3   OH266444   3.498   0.793   3.188 -0.0170  0.3733 -0.2241
15010TIP3    H166445   3.451   0.837   3.258 -1.1981 -0.2251 -0.6048
15010TIP3    H266446   3.579   0.763   3.229  0.0004  1.3309  0.4830
15011TIP3   OH266447   1.435   2.703  10.487 -0.3400  0.9218  0.1252
15011TIP3    H166448   1.482   2.655  10.556 -2.9694  0.5187  1.7627
15011TIP3    H266449   1.369   2.642  10.455 -0.1461  1.6271 -1.7472
15012TIP3   OH266450   3.996   0.363   5.143 -0.0951 -0.2012  0.3970
15012TIP3    H166451   3.970   0.275   5.169 -0.1656  0.0565  1.2276
15012TIP3    H266452   4.037   0.400   5.221  1.2654 -0.0082 -0.3755
15013TIP3   OH266453   0.076   1.671   0.913  0.3312  0.4365  0.0973
15013TIP3    H166454   0.093   1.763   0.929  1.0718  0.5914 -1.4104
15013TIP3    H266455   0.123   1.625   0.982 -0.1580  1.1749  0.9393
15014TIP3   OH266456   1.382   1.649  15.794  0.0826  0.1661 -0.2772
15014TIP3    H166457   1.408   1.700  15.871 -0.0329  1.9130 -1.3405
15014TIP3    H266458   1.288   1.664  15.785  0.0744 -0.1059 -0.6973
15015TIP3   OH266459   1.708   1.703   4.049  0.3718 -0.2713 -0.7977
15015TIP3    H166460   1.643   1.742   3.991 -0.0471  0.1775 -0.0442
15015TIP3    H266461   1.783   1.762   4.044 -1.2769  2.4415  2.5665
15016TIP3   OH266462   3.530   4.669  16.060  0.0707 -0.2915 -0.3387
15016TIP3    H166463   3.594   4.686  16.128 -0.7432 -0.1777  0.4176
15016TIP3    H266464   3.468   4.607  16.100 -0.5349 -0.0662 -0.9002
15017TIP3   OH266465   2.729   1.168   3.992 -0.6846 -0.6788  0.3616
15017TIP3    H166466   2.801   1.130   4.042 -0.0418  0.2745  0.1916
15017TIP3    H266467   2.683   1.093   3.955  0.5227 -1.2995  0.0615
15018TIP3   OH266468   2.311   5.191   1.159  0.2108  0.3730  0.0479
15018TIP3    H166469   2.358   5.108   1.152 -1.6334 -0.7997  0.7295
15018TIP3    H266470   2.315   5.213   1.252  2.6662  2.3363 -0.4296
15019TIP3   OH266471   1.538   0.173   4.506 -0.6924 -0.3914 -0.0064
15019TIP3    H166472   1.623   0.191   4.547 -0.1823  1.7103 -1.7876
15019TIP3    H266473   1.557   0.102   4.444  0.5066  1.6942 -2.2203
15020TIP3   OH266474   3.702   3.177   5.303 -0.0742 -0.6025 -0.7161
15020TIP3    H166475   3.686   3.125   5.225 -1.3872 -0.4644 -0.5670
15020TIP3    H266476   3.790   3.154   5.331  0.4783 -0.5239 -2.3290
15021TIP3   OH266477   0.017   5.499   1.259  0.3262  0.1418 -0.2892
15021TIP3    H166478  -0.038   5.492   1.181 -3.0963  0.8290  1.8023
15021TIP3    H266479  -0.014   5.428   1.316  1.8560  0.3980  0.9168
15022TIP3   OH266480   0.374   3.288   4.179  0.2540 -0.0205 -0.3986
15022TIP3    H166481   0.333   3.247   4.255  0.7250 -0.0868 -0.1765
15022TIP3    H266482   0.312   3.272   4.107 -0.6145  0.8017  0.1365
15023TIP3   OH266483   2.066   4.840   2.203  0.0211 -0.1951 -0.1286
15023TIP3    H166484   2.111   4.874   2.280 -0.1344 -1.0812  0.3748
15023TIP3    H266485   1.985   4.892   2.198  0.4754  0.5072 -0.2636
15024TIP3   OH266486   5.124   3.688   4.788  0.2513  1.0106  0.1763
15024TIP3    H166487   5.119   3.654   4.877  4.2428 -1.6894 -0.3750
15024TIP3    H266488   5.178   3.767   4.795 -1.9555  2.6000  0.3787
15025TIP3   OH266489   5.612   0.017   4.208 -0.0741 -0.7272 -0.2691
15025TIP3    H166490   5.581   0.009   4.298 -0.1748  0.0196 -0.2294
15025TIP3    H266491   5.699   0.055   4.216  0.2105 -1.3294 -0.4583
15026TIP3   OH266492   5.990   5.033   2.305 -0.2629 -0.6882 -0.1717
15026TIP3    H166493   5.909   4.982   2.309 -0.9281  0.3878  3.3196
15026TIP3    H266494   5.966   5.114   2.261 -0.3585 -1.4407 -1.5537
15027TIP3   OH266495   4.426   6.301  10.343  0.1330  0.0486 -0.4707
15027TIP3    H166496   4.445   6.330  10.253 -1.9769 -0.6882 -1.2172
15027TIP3    H266497   4.468   6.367  10.398  3.1981 -0.5094 -1.8766
15028TIP3   OH266498   5.473   5.330   0.391 -0.5546  0.4520  0.3820
15028TIP3    H166499   5.387   5.346   0.429 -1.2422  2.0416 -1.6353
15028TIP3    H266500   5.474   5.385   0.312  1.7264 -0.7006 -0.4609
15029TIP3   OH266501   2.454   2.118   2.657  0.4913  0.2999  0.4558
15029TIP3    H166502   2.427   2.077   2.739  2.5430 -1.7037  0.2464
15029TIP3    H266503   2.401   2.075   2.590  0.2772  0.4366  0.5365
15030TIP3   OH266504   4.889   2.303  16.880  0.2683 -0.3315 -0.0527
15030TIP3    H166505   4.844   2.348  16.951  1.2039  0.8048 -0.1505
15030TIP3    H266506   4.904   2.371  16.814  1.8664 -0.7161 -0.1366
15031TIP3   OH266507   3.191   3.869  12.799  0.4138 -0.3310 -0.1529
15031TIP3    H166508   3.141   3.874  12.717  0.5007  0.8249 -0.1544
15031TIP3    H266509   3.127   3.885  12.868  0.4839 -0.5136 -0.0445
15032TIP3   OH266510   1.232   1.053  15.470  0.3050 -0.2950  0.5202
15032TIP3    H166511   1.321   1.045  15.504  0.4965 -0.3102  0.0271
15032TIP3    H266512   1.243   1.058  15.375 -0.2955 -1.4999  0.3737
15033TIP3   OH266513   2.881   0.938  15.327 -0.0112 -0.2734 -0.1685
15033TIP3    H166514   2.831   0.951  15.407 -0.4948 -0.4795 -0.4315
15033TIP3    H266515   2.821   0.962  15.256  0.6473  0.6118 -0.4483
15034TIP3   OH266516   6.462   6.785   1.520 -0.1192  0.1294  0.0384
15034TIP3    H166517   6.367   6.791   1.519 -0.1743 -0.2256  1.3432
15034TIP3    H266518   6.480   6.693   1.538  0.5284 -0.4387 -2.9272
15035TIP3   OH266519   2.179   1.986   6.280 -0.0456 -0.0118 -0.0817
15035TIP3    H166520   2.251   2.033   6.323 -0.1523  1.2790 -1.2312
15035TIP3    H266521   2.104   2.000   6.337  0.1931  0.2228  0.1815
15036TIP3   OH266522   3.028   3.032  15.266 -0.0607 -0.0736  0.1555
15036TIP3    H166523   3.055   3.069  15.350 -1.0797 -2.7023  1.7758
15036TIP3    H266524   2.986   2.949  15.289 -0.4142 -0.8896 -2.9766
15037TIP3   OH266525   0.733   4.893  16.920 -0.1263 -0.3593  0.0374
15037TIP3    H166526   0.688   4.813  16.949 -0.7744 -0.0157 -0.0248
15037TIP3    H266527   0.664   4.951  16.891  0.3891  0.0268 -0.4339
15038TIP3   OH266528   4.914   2.298  15.484 -0.0535 -0.5432 -0.4673
15038TIP3    H166529   4.921   2.283  15.579 -0.4177 -1.2140 -0.5416
15038TIP3    H266530   5.001   2.278  15.450 -0.0856 -0.8849 -0.3517
15039TIP3   OH266531   1.803   0.948  14.262  0.2209  0.7599  0.0954
15039TIP3    H166532   1.797   0.988  14.175 -1.2109 -3.5790 -2.0889
15039TIP3    H266533   1.717   0.963  14.301 -0.0197  0.5812 -0.3520
15040TIP3   OH266534   0.604   2.675  16.258 -0.6608  0.5021 -0.0087
15040TIP3    H166535   0.536   2.667  16.325 -0.0388  3.1802  1.0629
15040TIP3    H266536   0.559   2.651  16.177 -2.7386  1.5374  0.7536
15041TIP3   OH266537   0.952   2.337  14.098  0.3501 -0.7073 -0.1574
15041TIP3    H166538   0.891   2.292  14.157 -0.5371 -1.2314 -1.4140
15041TIP3    H266539   1.001   2.396  14.154 -1.4498 -0.1352  0.9062
15042TIP3   OH266540   5.193   5.617  13.449 -0.3343 -0.4249  0.0127
15042TIP3    H166541   5.108   5.638  13.410 -0.1378  0.4658  0.0280
15042TIP3    H266542   5.235   5.559  13.386 -0.4822  0.0798 -0.5581
15043TIP3   OH266543   1.529   1.427   1.408 -0.2841 -0.2298 -0.4625
15043TIP3    H166544   1.474   1.388   1.476  0.2030 -0.0265  0.0549
15043TIP3    H266545   1.606   1.371   1.404 -0.7022 -0.7765 -1.5047
15044TIP3   OH266546   2.801   6.788  15.666  0.1199 -0.0066  0.5851
15044TIP3    H166547   2.881   6.826  15.629  0.3945 -1.5081 -0.4719
15044TIP3    H266548   2.733   6.853  15.650  0.9379  0.8732  0.6214
15045TIP3   OH266549   5.928   0.333  12.038  0.2153  0.0113 -0.3154
15045TIP3    H166550   5.847   0.383  12.024 -1.2583 -0.5049  4.4967
15045TIP3    H266551   5.911   0.248  11.996 -1.4921  0.1769 -0.0432
15046TIP3   OH266552   4.901   5.497   2.730  0.5259  0.2169  0.2008
15046TIP3    H166553   4.963   5.561   2.695  2.3016 -1.2159  0.5478
15046TIP3    H266554   4.855   5.463   2.653  1.8422 -0.3366 -0.3704
15047TIP3   OH266555   4.479   0.693  10.520  0.7668 -0.2374 -0.2250
15047TIP3    H166556   4.396   0.671  10.478  0.8641  1.1915 -1.2412
15047TIP3    H266557   4.461   0.686  10.614 -1.1142  1.8510 -0.3237
15048TIP3   OH266558   0.823   0.668  13.477  0.2138 -0.2287 -0.0295
15048TIP3    H166559   0.838   0.574  13.462  0.2931 -0.3603  0.8523
15048TIP3    H266560   0.841   0.681  13.570 -2.6405  0.0882  0.5845
15049TIP3   OH266561   4.072   0.076   4.889  0.8283 -0.0241  0.2101
15049TIP3    H166562   4.165   0.097   4.892  0.2561  2.7454  0.5500
15049TIP3    H266563   4.031   0.152   4.850 -1.2530 -1.5306 -0.7290
15050TIP3   OH266564   2.266   5.234   2.976 -0.1551 -0.2236  0.0871
15050TIP3    H166565   2.285   5.289   3.052 -1.2362  1.7661 -1.0133
15050TIP3    H266566   2.232   5.152   3.013 -1.1138  0.8711  1.7353
15051TIP3   OH266567   4.220   2.696   3.326  0.2399 -0.3299 -0.6600
15051TIP3    H166568   4.231   2.603   3.346  1.0578 -0.2420 -0.6726
15051TIP3    H266569   4.234   2.740   3.410  1.0681 -0.1393 -0.8919
15052TIP3   OH266570   4.537   4.071  16.734 -0.5216  0.0944 -0.0256
15052TIP3    H166571   4.548   4.090  16.641 -2.4453 -1.4148 -0.6428
15052TIP3    H266572   4.621   4.093  16.774  0.3935  0.6331 -2.1362
15053TIP3   OH266573   1.276   6.266   3.341 -0.3846  0.1923 -0.5844
15053TIP3    H166574   1.308   6.329   3.406 -2.6285 -1.0808  1.9146
15053TIP3    H266575   1.216   6.317   3.286 -0.0569  0.8213 -0.3782
15054TIP3   OH266576   3.270   5.280  13.464 -0.5368  0.1293 -0.0351
15054TIP3    H166577   3.217   5.352  13.499 -0.7703  0.5658 -1.2667
15054TIP3    H266578   3.242   5.270  13.373 -0.0941 -1.1427 -0.0591
15055TIP3   OH266579   0.948   2.603   2.044  0.7053 -0.7350  0.0701
15055TIP3    H166580   0.999   2.631   1.968  0.0099  2.0511  0.5096
15055TIP3    H266581   0.886   2.539   2.010  1.2492 -0.4901 -1.4423
15056TIP3   OH266582   0.882   2.067  16.482 -0.3879 -0.3028 -0.1178
15056TIP3    H166583   0.939   2.070  16.405  1.1282  1.1909  0.9884
15056TIP3    H266584   0.794   2.085  16.448  0.1897 -0.1239 -1.5626
15057TIP3   OH266585   1.685   2.675   2.364  0.5084  0.2535  0.0874
15057TIP3    H166586   1.723   2.748   2.315 -0.6536 -1.4962 -3.8123
15057TIP3    H266587   1.759   2.617   2.381  0.9776  1.0213  0.7338
15058TIP3   OH266588   5.642   0.879  16.232  0.1376 -0.0174  0.1510
15058TIP3    H166589   5.593   0.853  16.310  0.3131 -0.1643  0.2139
15058TIP3    H266590   5.709   0.811  16.223 -0.2243 -0.3023 -0.4379
15059TIP3   OH266591   0.578   3.908  10.557  0.3353  0.3226 -0.3013
15059TIP3    H166592   0.507   3.850  10.531 -0.8309  2.4100 -2.0992
15059TIP3    H266593   0.626   3.859  10.624 -1.2936 -2.1535 -0.8189
15060TIP3   OH266594   5.113   3.381  13.872  0.7406  0.1813 -0.4212
15060TIP3    H166595   5.039   3.321  13.865  0.8105 -0.0131  0.3313
15060TIP3    H266596   5.181   3.329  13.915  0.1213  1.3487  2.1837
15061TIP3   OH266597   0.047   3.345  15.279  0.3778  0.3479 -0.5470
15061TIP3    H166598   0.115   3.348  15.346  0.3836 -1.8625 -0.3781
15061TIP3    H266599   0.053   3.257  15.242 -2.0640  0.2412 -0.8814
15062TIP3   OH266600   5.080   3.836  10.507  1.0093  0.3725 -0.2336
15062TIP3    H166601   5.006   3.784  10.539  2.1390 -0.7339  0.6806
15062TIP3    H266602   5.146   3.771  10.482  1.7962  1.3401 -0.7561
15063TIP3   OH266603   5.198   5.904   2.267 -0.9021 -0.6520  0.5581
15063TIP3    H166604   5.139   5.979   2.257  0.1786  0.0581 -0.8337
15063TIP3    H266605   5.277   5.942   2.305 -1.1406 -1.5124  1.9731
15064TIP3   OH266606   4.524   6.529   5.761  0.5236  0.7181 -0.3157
15064TIP3    H166607   4.550   6.535   5.853  0.9055 -1.3130 -0.2458
15064TIP3    H266608   4.597   6.566   5.713  0.5833  1.2351  0.1663
15065TIP3   OH266609   1.906   2.382  13.057 -0.1825  0.1398  0.0500
15065TIP3    H166610   1.849   2.312  13.025 -1.4109  1.3104 -0.3881
15065TIP3    H266611   1.893   2.383  13.152  0.1297 -0.4467  0.1070
15066TIP3   OH266612   2.965   5.195  13.759  0.2095 -0.4494 -0.3343
15066TIP3    H166613   2.965   5.152  13.845  0.2355 -1.2576 -0.7323
15066TIP3    H266614   3.019   5.139  13.704  2.2879  1.3477 -0.2600
15067TIP3   OH266615   0.137   6.637   4.713 -0.7177  0.3270  0.2690
15067TIP3    H166616   0.172   6.549   4.702 -0.6690  0.5736 -2.1189
15067TIP3    H266617   0.061   6.641   4.655 -0.7816  1.8124  0.4075
15068TIP3   OH266618   4.148   3.198   0.201 -0.0160 -0.2016 -0.1782
15068TIP3    H166619   4.209   3.148   0.256  2.1725  0.5084 -1.8246
15068TIP3    H266620   4.202   3.266   0.160 -2.2418  1.4339 -0.5843
15069TIP3   OH266621   2.117   2.163  16.545 -0.0912  0.4579 -0.0884
15069TIP3    H166622   2.044   2.159  16.607  0.1272  1.5370  0.2576
15069TIP3    H266623   2.075   2.170  16.460 -0.4016 -1.4575 -0.1431
15070TIP3   OH266624   2.363   4.549   3.394 -0.0547 -0.6552 -0.0489
15070TIP3    H166625   2.457   4.549   3.411 -0.1072 -2.9143  0.6161
15070TIP3    H266626   2.344   4.460   3.362 -1.9373 -0.1972 -0.3746
15071TIP3   OH266627   4.850   4.065  11.926  0.1170 -0.3402 -0.6848
15071TIP3    H166628   4.845   3.982  11.973  2.2455 -1.3082 -2.0303
15071TIP3    H266629   4.944   4.081  11.915 -0.2719  1.5458 -1.6404
15072TIP3   OH266630   1.660   1.029  17.042 -0.2668 -0.0635 -0.0434
15072TIP3    H166631   1.685   0.941  17.070 -1.2941  0.0091  1.2176
15072TIP3    H266632   1.585   1.051  17.097 -0.1528  1.5323 -0.4737
15073TIP3   OH266633   1.943   2.796   5.668 -0.1916  0.6238  0.2405
15073TIP3    H166634   2.022   2.842   5.696  0.3836  0.2464 -0.7020
15073TIP3    H266635   1.886   2.795   5.745 -0.2338  2.8916  0.2944
15074TIP3   OH266636   2.859   5.478   3.344  0.2953  0.0236  0.0631
15074TIP3    H166637   2.851   5.383   3.334 -0.3246  0.1934 -1.2977
15074TIP3    H266638   2.782   5.514   3.299  1.2953  1.2112 -0.7944
15075TIP3   OH266639   0.008   4.912  16.047 -0.4919  0.3928 -0.0913
15075TIP3    H166640   0.069   4.951  15.984  0.6166  0.1622  0.8050
15075TIP3    H266641  -0.021   4.985  16.101  0.9023  0.1587  1.0261
15076TIP3   OH266642   4.890   0.342  16.791 -0.3144 -0.0197  0.2886
15076TIP3    H166643   4.949   0.309  16.723  0.2074 -0.0589  0.7495
15076TIP3    H266644   4.948   0.365  16.864 -0.9268 -0.8761  1.0827
15077TIP3   OH266645   2.340   3.161  12.802  0.1847  0.8902  0.9647
15077TIP3    H166646   2.347   3.090  12.865  1.5556  0.2780  0.1736
15077TIP3    H266647   2.246   3.171  12.787 -0.0363 -1.0387  0.7912
15078TIP3   OH266648   1.423   0.060  14.567 -0.1078 -0.5430 -0.0956
15078TIP3    H166649   1.366   0.037  14.640 -0.3708  0.4379  0.0094
15078TIP3    H266650   1.499   0.003  14.578 -1.7809 -3.2042 -1.2480
15079TIP3   OH266651   5.202   1.293  13.039  0.1034 -0.0802  1.1957
15079TIP3    H166652   5.286   1.297  12.993 -1.7487 -2.7736 -3.0208
15079TIP3    H266653   5.210   1.358  13.109  4.7101  1.6980 -0.5920
15080TIP3   OH266654   5.377   4.435   3.616 -0.3522  0.1733 -0.0683
15080TIP3    H166655   5.310   4.501   3.598  0.0373  0.9984  1.2793
15080TIP3    H266656   5.333   4.370   3.670 -0.4603 -0.1035 -0.4885
15081TIP3   OH266657   0.378   3.657   4.277 -0.6177  0.3094  0.0307
15081TIP3    H166658   0.287   3.684   4.262 -1.3329 -1.5777  0.7012
15081TIP3    H266659   0.423   3.683   4.197 -1.6010  1.8137 -0.0845
15082TIP3   OH266660   4.724   6.265   4.644  0.3374 -0.3861  0.0670
15082TIP3    H166661   4.817   6.282   4.629 -0.2612  0.4351 -3.8889
15082TIP3    H266662   4.717   6.170   4.652  1.4164 -0.5812 -1.0742
15083TIP3   OH266663   2.678   0.736  14.559 -0.1589 -0.5839  0.6728
15083TIP3    H166664   2.764   0.776  14.543 -0.7357  0.4345 -0.0708
15083TIP3    H266665   2.655   0.762  14.648  0.4221 -1.1027  0.9784
15084TIP3   OH266666   3.547   1.558  12.945  0.3494 -0.1842 -0.1324
15084TIP3    H166667   3.508   1.643  12.962 -1.5197 -1.0740  0.3544
15084TIP3    H266668   3.593   1.569  12.861  0.7266  1.4411  0.2493
15085TIP3   OH266669   3.192   0.242  11.811  0.1427  0.3120  0.1184
15085TIP3    H166670   3.275   0.250  11.765  0.0185 -0.3626 -0.2423
15085TIP3    H266671   3.211   0.184  11.885  0.1172  0.6142  0.3659
15086TIP3   OH266672   5.097   3.257   2.181  0.1028  0.6323 -0.0928
15086TIP3    H166673   5.021   3.231   2.129 -0.0862  1.3673 -0.2028
15086TIP3    H266674   5.161   3.286   2.116  0.6009 -0.2735 -0.0179
15087TIP3   OH266675   0.050   0.276   0.070 -0.6208 -0.1682 -0.4432
15087TIP3    H166676   0.061   0.250   0.161 -2.1442 -0.9374 -0.4541
15087TIP3    H266677   0.052   0.372   0.072 -0.0591 -0.1883  0.3072
15088TIP3   OH266678   5.596   1.235  17.049  0.0698 -0.1889 -0.2657
15088TIP3    H166679   5.581   1.179  17.125 -0.3494 -0.9082 -0.8564
15088TIP3    H266680   5.663   1.189  16.999 -0.9087 -0.6491 -1.2069
15089TIP3   OH266681   4.307   1.468   5.865  0.4269  0.0965  0.1809
15089TIP3    H166682   4.237   1.407   5.888  0.4030  0.2094  0.4093
15089TIP3    H266683   4.337   1.503   5.949 -0.8010  1.7930 -0.0409
15090TIP3   OH266684   1.992   5.288  11.740  0.6185 -0.0639  0.0987
15090TIP3    H166685   1.917   5.344  11.763  1.5187  1.3654 -0.2847
15090TIP3    H266686   2.067   5.346  11.748  1.7898 -1.6281  1.0966
15091TIP3   OH266687   3.794   3.116   4.261 -0.0778 -0.6997  0.2478
15091TIP3    H166688   3.753   3.073   4.186  0.4470  0.0895 -0.5115
15091TIP3    H266689   3.831   3.044   4.313 -0.4703 -1.2557 -0.2306
15092TIP3   OH266690   5.047   0.430   1.533 -0.3840 -0.0662 -0.4480
15092TIP3    H166691   4.953   0.439   1.522 -0.3309  1.3807  0.1528
15092TIP3    H266692   5.084   0.464   1.451 -0.3334  1.3236  0.1284
15093TIP3   OH266693   2.771   4.456  11.829  0.5760 -0.1076  0.5091
15093TIP3    H166694   2.725   4.432  11.749  2.1970 -3.7640  0.4479
15093TIP3    H266695   2.748   4.547  11.844 -2.3597 -0.2027 -2.3162
15094TIP3   OH266696   0.722   1.413   1.524 -0.2173 -0.2475  0.3188
15094TIP3    H166697   0.817   1.402   1.517 -0.1707  0.4960 -0.3785
15094TIP3    H266698   0.690   1.397   1.435 -0.5552  1.0706  0.1754
15095TIP3   OH266699   4.292   3.961   1.223  0.4391 -0.5683  0.1778
15095TIP3    H166700   4.352   4.008   1.281  1.0376 -0.8741 -0.1833
15095TIP3    H266701   4.208   4.003   1.237  0.6336 -0.4463  1.0541
15096TIP3   OH266702   0.635   0.689   5.208  0.1346 -0.1219 -0.0459
15096TIP3    H166703   0.605   0.775   5.180 -1.2151  0.0438  1.7356
15096TIP3    H266704   0.560   0.651   5.255  1.2632 -1.5478  0.7102
15097TIP3   OH266705   3.201   3.169   5.360  0.3458 -0.2318 -0.0008
15097TIP3    H166706   3.222   3.251   5.406 -1.0570 -0.4668  1.1388
15097TIP3    H266707   3.143   3.197   5.288  2.0165  0.0550 -1.3068
15098TIP3   OH266708   3.236   0.662   0.773  0.8677 -0.3379 -0.2601
15098TIP3    H166709   3.150   0.619   0.769  1.1176 -0.9525  0.5854
15098TIP3    H266710   3.239   0.700   0.861  1.2730  0.0933 -0.4585
15099TIP3   OH266711   5.816   4.076  11.403 -0.2292 -0.3050  0.0150
15099TIP3    H166712   5.783   4.039  11.322  1.1072 -1.2469 -0.1291
15099TIP3    H266713   5.907   4.099  11.384  0.2084 -0.8322  1.3286
15100TIP3   OH266714   3.043   0.972  16.384  0.1322  0.2209 -0.1051
15100TIP3    H166715   3.133   1.004  16.392  0.6297 -1.4620  2.2630
15100TIP3    H266716   3.010   0.971  16.474 -2.5057  1.3242 -0.9752
15101TIP3   OH266717   5.431   3.042  14.481  0.2243 -0.0543 -0.4051
15101TIP3    H166718   5.493   3.105  14.519 -0.7602  0.1257  1.0137
15101TIP3    H266719   5.481   2.961  14.472  0.6359  0.0254  0.9043
15102TIP3   OH266720   2.818   3.748   5.772  0.1595 -0.6222 -0.9760
15102TIP3    H166721   2.773   3.816   5.822  2.3853 -0.3696  0.8111
15102TIP3    H266722   2.883   3.796   5.720  2.4364 -1.3401  1.0502
15103TIP3   OH266723   1.928   4.209   5.214  0.4580  0.3351 -0.4888
15103TIP3    H166724   1.931   4.294   5.257  0.8400  0.1795 -0.2015
15103TIP3    H266725   1.892   4.227   5.127 -2.4527  0.3584  0.6150
15104TIP3   OH266726   3.630   1.328   3.075  0.3346  0.3438 -0.1863
15104TIP3    H166727   3.582   1.411   3.081  2.0682  1.5715 -1.9512
15104TIP3    H266728   3.706   1.341   3.133 -0.4075 -0.8400  1.1065
15105TIP3   OH266729   5.053   3.860  16.679  0.5091 -0.0326 -0.4982
15105TIP3    H166730   5.115   3.933  16.684  1.1981 -0.6401  0.1492
15105TIP3    H266731   5.108   3.782  16.687 -0.3477 -0.5842  0.1253
15106TIP3   OH266732   4.679   1.342   4.694 -0.0233  0.7050  0.4201
15106TIP3    H166733   4.621   1.317   4.623  0.8272  0.1208 -0.0864
15106TIP3    H266734   4.650   1.289   4.768 -0.6228  0.9853  0.3932
15107TIP3   OH266735   5.718   6.516   2.602 -0.6210  0.0426 -0.4365
15107TIP3    H166736   5.683   6.456   2.668  1.0111 -0.7258 -0.2414
15107TIP3    H266737   5.735   6.461   2.526 -0.2735  0.4963 -0.6883
15108TIP3   OH266738   5.105   4.230  11.361 -0.1167  0.1485 -0.8331
15108TIP3    H166739   5.197   4.211  11.378 -0.3198  0.5492  0.8408
15108TIP3    H266740   5.061   4.145  11.363  0.0969  0.0338 -0.9520
15109TIP3   OH266741   4.767   1.963   5.237 -0.4256  0.0025  0.0176
15109TIP3    H166742   4.785   2.027   5.168 -0.0429 -0.1034  0.0205
15109TIP3    H266743   4.853   1.934   5.266 -0.5980 -0.3928  0.1318
15110TIP3   OH266744   2.510   4.226   3.571 -0.3875  0.3387 -0.7543
15110TIP3    H166745   2.433   4.169   3.564  0.7690 -1.2410 -1.2666
15110TIP3    H266746   2.555   4.216   3.487  0.9415  0.3627 -0.0669
15111TIP3   OH266747   5.301   3.441  15.083  0.4024  0.1040 -0.0844
15111TIP3    H166748   5.323   3.496  15.159  1.4384  1.7012 -1.4616
15111TIP3    H266749   5.231   3.384  15.115  0.8561  0.6413  2.0906
15112TIP3   OH266750   0.927   4.447  12.038 -1.0323 -0.0290  0.0710
15112TIP3    H166751   0.940   4.385  12.109  1.8049 -0.1694 -0.4648
15112TIP3    H266752   0.931   4.395  11.958  0.8422  0.6903 -0.3591
15113TIP3   OH266753   5.594   3.130  14.842 -0.0581 -0.0799  0.0797
15113TIP3    H166754   5.645   3.131  14.761 -0.9603  0.1098 -0.5035
15113TIP3    H266755   5.543   3.211  14.839 -0.1657 -0.1135  0.7966
15114TIP3   OH266756   5.484   1.898  13.626  0.1852 -0.4848 -0.0497
15114TIP3    H166757   5.533   1.880  13.706  0.2665 -2.4881 -0.5128
15114TIP3    H266758   5.400   1.854  13.639  0.0144 -0.4090 -0.8660
15115TIP3   OH266759   0.806   0.481   4.022  0.0949  0.4054  0.4655
15115TIP3    H166760   0.831   0.406   3.968  3.4241  1.9451 -0.4250
15115TIP3    H266761   0.799   0.446   4.110 -0.8576 -1.3457 -0.2628
15116TIP3   OH266762   5.199   0.839  15.714  0.6292  0.1038 -0.2330
15116TIP3    H166763   5.121   0.886  15.744 -0.0169 -0.5467 -0.8740
15116TIP3    H266764   5.185   0.748  15.740  1.6549  0.1480  0.5593
15117TIP3   OH266765   5.298   2.005  11.256  0.2040 -0.1195 -0.0154
15117TIP3    H166766   5.321   1.926  11.208  0.0674 -0.8643  1.0892
15117TIP3    H266767   5.380   2.033  11.297  0.2475  0.2951 -0.3859
15118TIP3   OH266768   2.781   5.815  15.458  0.4824 -0.1215  0.6208
15118TIP3    H166769   2.831   5.886  15.419 -1.6005 -0.3633 -2.8838
15118TIP3    H266770   2.847   5.748  15.478  1.9463  0.9323 -0.4615
15119TIP3   OH266771   0.966   0.139   2.346  0.0747  0.5459 -0.0144
15119TIP3    H166772   1.049   0.183   2.327  0.5668  0.0665  0.9315
15119TIP3    H266773   0.954   0.151   2.441 -0.8841  0.5204 -0.1217
15120TIP3   OH266774   5.938   0.132  13.576  0.7294  0.8249  0.1000
15120TIP3    H166775   5.901   0.048  13.605  1.3502  0.4284 -0.2330
15120TIP3    H266776   5.866   0.175  13.530 -0.0704  1.1818  1.6323
15121TIP3   OH266777   1.174   2.321   4.443  0.7636  0.3038  0.3995
15121TIP3    H166778   1.169   2.292   4.352  2.2851 -0.0627  0.3956
15121TIP3    H266779   1.108   2.390   4.450  0.2951  0.0160 -0.8461
15122TIP3   OH266780   6.542   4.843  16.867  0.6804  0.1526 -0.0872
15122TIP3    H166781   6.637   4.853  16.857  0.5839 -0.2606 -1.8253
15122TIP3    H266782   6.522   4.887  16.949  1.8346  3.8645 -1.5688
15123TIP3   OH266783   2.179   1.346  13.601  0.0217  0.0513 -0.0040
15123TIP3    H166784   2.260   1.397  13.609 -0.0164  0.2004 -0.5089
15123TIP3    H266785   2.156   1.322  13.691  0.1088  0.8229  0.2304
15124TIP3   OH266786   5.636   3.218   4.739 -0.3011  0.3491 -0.6031
15124TIP3    H166787   5.723   3.181   4.757  0.0179  1.0313 -0.6864
15124TIP3    H266788   5.577   3.143   4.739  0.3306 -0.1574 -0.8004
15125TIP3   OH266789   2.753   4.129   5.664 -0.2164  0.5981  0.4205
15125TIP3    H166790   2.794   4.071   5.728  1.8302  0.3063 -1.0393
15125TIP3    H266791   2.660   4.108   5.667  0.1908 -1.2027  1.4879
15126TIP3   OH266792   0.931   0.394  15.143  0.2737 -0.2971 -0.2212
15126TIP3    H166793   0.935   0.301  15.162  0.9088 -0.3936 -0.7874
15126TIP3    H266794   0.983   0.405  15.063  0.2426  0.5469 -0.1417
15127TIP3   OH266795   3.985   2.243   2.512  0.3701  0.1440 -0.2569
15127TIP3    H166796   4.064   2.193   2.533  1.0846  0.5566 -1.8807
15127TIP3    H266797   3.944   2.195   2.440 -0.7605  0.0650  0.4026
15128TIP3   OH266798   1.818   0.760   4.690  0.5389 -0.1792  0.3252
15128TIP3    H166799   1.828   0.838   4.636  2.3053 -2.0415 -2.2811
15128TIP3    H266800   1.898   0.756   4.741  1.7173 -1.5761 -1.5131
15129TIP3   OH266801   6.268   5.758  16.056  0.8944 -0.1180  0.2184
15129TIP3    H166802   6.309   5.754  15.970 -1.1206 -0.0330 -0.8201
15129TIP3    H266803   6.220   5.675  16.064 -2.1509  1.4209 -0.5505
15130TIP3   OH266804   2.603   4.066  14.290 -0.3707 -0.2891 -0.4108
15130TIP3    H166805   2.605   4.093  14.198 -0.3400  1.1515 -0.0248
15130TIP3    H266806   2.682   4.106  14.328 -0.7871 -0.2100  0.3936
15131TIP3   OH266807   5.553   0.887  11.988 -0.0539 -0.0723  0.1176
15131TIP3    H166808   5.510   0.972  11.980  0.3923  0.0207 -1.8162
15131TIP3    H266809   5.482   0.825  12.002 -0.7525  0.2291 -1.8341
15132TIP3   OH266810   0.853   5.046   3.248 -0.0412  0.0181  0.3994
15132TIP3    H166811   0.859   5.103   3.324 -1.1992 -0.0319  0.5367
15132TIP3    H266812   0.760   5.043   3.227  0.3137  0.5984 -1.4454
15133TIP3   OH266813   4.801   1.818  12.802 -0.9840 -0.8610  0.2548
15133TIP3    H166814   4.787   1.893  12.860  0.0446 -0.0573 -0.5077
15133TIP3    H266815   4.750   1.838  12.724  0.8759  0.0654 -0.7934
15134TIP3   OH266816   6.673   3.566  15.200 -0.3498 -0.1987 -0.0299
15134TIP3    H166817   6.725   3.635  15.241  0.5835 -2.0765  2.1144
15134TIP3    H266818   6.725   3.487  15.210 -1.9578 -1.4915 -1.2772
15135TIP3   OH266819   0.118   1.202   0.749 -0.0181  0.0422  0.1081
15135TIP3    H166820   0.156   1.282   0.712 -2.2234 -0.1481 -2.9181
15135TIP3    H266821   0.168   1.131   0.710 -1.2933 -0.1160 -1.3261
15136TIP3   OH266822   6.004   6.446  12.787 -0.1859  0.1828  0.9329
15136TIP3    H166823   6.086   6.488  12.813  1.5959 -2.3769 -0.0782
15136TIP3    H266824   5.957   6.513  12.738  1.2386  1.7806  1.6321
15137TIP3   OH266825   1.324   2.797   2.614 -0.1461 -0.1795 -0.1442
15137TIP3    H166826   1.316   2.843   2.530  0.3596 -0.5647 -0.4082
15137TIP3    H266827   1.403   2.744   2.605 -0.0204 -0.1400  0.6193
15138TIP3   OH266828   2.762   2.258  14.081  0.5198 -0.2613  0.2575
15138TIP3    H166829   2.792   2.341  14.043 -1.7685  0.6700  0.2886
15138TIP3    H266830   2.777   2.193  14.011  1.3409  0.3708 -0.1750
15139TIP3   OH266831   6.229   2.947   2.694 -0.8580  0.2097  0.5862
15139TIP3    H166832   6.281   2.963   2.615 -0.2404 -0.1212  0.9138
15139TIP3    H266833   6.283   2.982   2.765 -0.7715 -0.7302  1.0068
15140TIP3   OH266834   6.570   6.637  14.212  0.0811 -0.4278 -0.1292
15140TIP3    H166835   6.485   6.592  14.212 -0.9573  1.4273  0.0158
15140TIP3    H266836   6.557   6.713  14.155  1.2900  0.5160  0.8038
15141TIP3   OH266837   3.831   3.294   0.476 -0.5468  0.8763  0.4345
15141TIP3    H166838   3.919   3.309   0.443  0.8808 -3.0895  1.8799
15141TIP3    H266839   3.834   3.321   0.568 -0.5747 -0.0197  0.7056
15142TIP3   OH266840   4.686   0.495  16.889  0.0604  0.1141 -0.2158
15142TIP3    H166841   4.699   0.569  16.949 -0.9852  2.0968 -2.2657
15142TIP3    H266842   4.774   0.462  16.872  0.6173  1.2309  0.3528
15143TIP3   OH266843   6.358   6.640   4.922  0.6672 -0.8306 -0.5879
15143TIP3    H166844   6.342   6.633   5.016 -0.4708 -0.5212 -0.7471
15143TIP3    H266845   6.454   6.641   4.914  0.7958 -2.3526  0.4421
15144TIP3   OH266846   2.116   1.028  11.674 -0.5038  0.2010  0.2371
15144TIP3    H166847   2.115   0.989  11.587  2.9521 -2.5710  1.2325
15144TIP3    H266848   2.033   1.001  11.714 -1.9001  1.0771 -1.9029
15145TIP3   OH266849   5.230   5.321   0.172  0.4775 -0.0116  0.1432
15145TIP3    H166850   5.273   5.339   0.088  0.3716 -0.8435 -0.0955
15145TIP3    H266851   5.275   5.244   0.206  2.1201  1.6634  1.9877
15146TIP3   OH266852   6.116   3.553  12.114  0.0830 -0.2165 -0.2698
15146TIP3    H166853   6.120   3.563  12.019  0.6779 -0.4243 -0.2697
15146TIP3    H266854   6.178   3.483  12.134  1.2240  0.9415  0.4308
15147TIP3   OH266855   0.008   1.912   6.200  0.6673 -0.0816 -0.0262
15147TIP3    H166856  -0.062   1.977   6.209  0.2395 -0.2654 -1.6923
15147TIP3    H266857  -0.038   1.828   6.197  0.8938 -0.1789 -1.4946
15148TIP3   OH266858   1.705   3.757   4.600 -0.1700 -0.1162 -0.3324
15148TIP3    H166859   1.664   3.704   4.668 -0.3144 -0.4296 -0.6648
15148TIP3    H266860   1.780   3.706   4.571 -0.1800 -0.0362 -0.4991
15149TIP3   OH266861   1.711   1.717  16.825 -0.0754 -0.2284 -0.4783
15149TIP3    H166862   1.787   1.679  16.869 -0.0600  1.7807  1.3999
15149TIP3    H266863   1.636   1.671  16.863 -0.0551  1.4263  1.7734
15150TIP3   OH266864   2.768   3.521   2.008  0.5204 -0.5026  0.2686
15150TIP3    H166865   2.733   3.610   2.005  0.5494 -0.5008 -1.4248
15150TIP3    H266866   2.724   3.480   2.083 -0.2224  0.6433  0.4884
15151TIP3   OH266867   1.602   6.293   5.539 -0.3815  0.1881  0.5217
15151TIP3    H166868   1.507   6.305   5.537 -0.1050  3.4339  1.3137
15151TIP3    H266869   1.637   6.372   5.496  1.9708 -1.1141 -0.1194
15152TIP3   OH266870   4.034   1.516   6.185  0.4859  0.1778  0.2208
15152TIP3    H166871   4.094   1.523   6.260  0.0479  0.9981  0.5046
15152TIP3    H266872   3.971   1.449   6.211  0.1246  0.7129  0.7392
15153TIP3   OH266873   4.560   4.346   2.182  0.1514  0.2975 -0.1771
15153TIP3    H166874   4.612   4.389   2.251  0.9436  0.0577 -0.6124
15153TIP3    H266875   4.621   4.285   2.141 -1.3573 -2.5054  1.4746
15154TIP3   OH266876   1.718   4.760  14.263  0.2278 -0.8452  0.3815
15154TIP3    H166877   1.777   4.772  14.338  0.3059  0.4463  0.1451
15154TIP3    H266878   1.766   4.797  14.189 -0.3464 -1.0013 -0.0732
15155TIP3   OH266879   5.982   0.607   2.682 -0.4882 -0.3034 -0.0626
15155TIP3    H166880   5.909   0.634   2.626 -0.1351  1.8862  0.4677
15155TIP3    H266881   6.042   0.561   2.623  0.2642  2.6189 -1.7478
15156TIP3   OH266882   5.793   1.892  14.027  0.2838 -0.4699 -0.2402
15156TIP3    H166883   5.746   1.857  13.952 -0.8054  0.9916 -0.2775
15156TIP3    H266884   5.869   1.835  14.037 -0.5378 -1.7867 -1.3024
15157TIP3   OH266885   5.651   3.630  16.041 -0.1512  0.2372 -0.0875
15157TIP3    H166886   5.648   3.564  15.972  1.4853  0.0280 -0.0030
15157TIP3    H266887   5.743   3.630  16.070 -0.5405  1.1880  1.2375
15158TIP3   OH266888   0.309   1.878  13.232 -0.4445 -0.9067  0.4286
15158TIP3    H166889   0.248   1.827  13.179 -1.7141  0.6742  0.2897
15158TIP3    H266890   0.312   1.832  13.316 -0.4881 -1.9382 -0.1106
15159TIP3   OH266891   6.120   4.475   0.784 -0.5622 -0.8985 -0.0827
15159TIP3    H166892   6.147   4.567   0.774  0.1914 -1.0620  0.3852
15159TIP3    H266893   6.095   4.448   0.696  0.3354 -0.5921 -0.4415
15160TIP3   OH266894   4.386   6.446   3.714  0.2048 -0.1909  0.1912
15160TIP3    H166895   4.407   6.495   3.793  0.9493  0.1896 -0.2383
15160TIP3    H266896   4.440   6.367   3.719 -0.8106 -0.8865  0.7603
15161TIP3   OH266897   5.725   1.140   3.301  0.3932  0.2189  1.0002
15161TIP3    H166898   5.770   1.194   3.366 -0.7709  1.0610  1.1410
15161TIP3    H266899   5.678   1.074   3.352  0.5168  0.0845  0.9379
15162TIP3   OH266900   0.211   5.380   1.556 -0.3181  0.2213  0.1475
15162TIP3    H166901   0.170   5.336   1.631  1.0129  1.2212  1.5271
15162TIP3    H266902   0.139   5.424   1.511 -0.9772  0.7994  1.6985
15163TIP3   OH266903   1.147   3.751  13.065 -0.9202 -0.1134  0.4060
15163TIP3    H166904   1.154   3.678  13.127  1.9436 -0.2589  0.0341
15163TIP3    H266905   1.130   3.710  12.981  0.4325 -0.3843  0.2423
15164TIP3   OH266906   0.909   1.420   4.062  0.1720  0.0240  0.6985
15164TIP3    H166907   0.971   1.350   4.081 -0.8578 -1.3287 -0.5931
15164TIP3    H266908   0.871   1.442   4.147  2.7215  1.2774  1.6096
15165TIP3   OH266909   3.800   1.675   6.227  0.0862  0.8997  0.4018
15165TIP3    H166910   3.868   1.615   6.195 -0.8086 -1.7373  3.0225
15165TIP3    H266911   3.718   1.629   6.211 -0.8381  2.4308  0.5486
15166TIP3   OH266912   1.262   5.219  17.165  0.1217  0.6021  0.1945
15166TIP3    H166913   1.241   5.309  17.190  0.1493  0.3540  1.1492
15166TIP3    H266914   1.239   5.167  17.242  0.1462 -0.2061 -0.3340
15167TIP3   OH266915   2.864   2.494   0.138 -0.0203  0.3718  1.0672
15167TIP3    H166916   2.893   2.469   0.225  0.9672 -2.1376  0.1029
15167TIP3    H266917   2.933   2.463   0.079 -1.5249  0.3159 -0.7610
15168TIP3   OH266918   1.232   2.609  12.777  0.5756  0.3867 -0.7170
15168TIP3    H166919   1.302   2.563  12.823  0.7316  2.1153  0.8709
15168TIP3    H266920   1.250   2.702  12.791 -1.0592  0.9099 -1.7711
15169TIP3   OH266921   1.175   3.999  16.932  0.2016  0.3200  0.3001
15169TIP3    H166922   1.168   3.904  16.943 -0.2030  0.3849  0.6255
15169TIP3    H266923   1.210   4.029  17.016  1.6772  0.3160 -0.2737
15170TIP3   OH266924   4.288   0.143   6.583  0.1285 -0.5363 -0.5185
15170TIP3    H166925   4.243   0.115   6.662 -0.8185 -1.2106 -1.2695
15170TIP3    H266926   4.345   0.214   6.611  0.6034 -1.4491  0.9621
15171TIP3   OH266927   0.436   1.710  12.456  0.3227  0.3248 -0.1263
15171TIP3    H166928   0.529   1.687  12.456 -0.1701 -1.9093 -0.1014
15171TIP3    H266929   0.410   1.705  12.364  0.7974  3.8767 -0.5786
15172TIP3   OH266930   1.114   3.862   0.523  0.0433  0.2591 -0.2133
15172TIP3    H166931   1.033   3.866   0.574 -0.3663 -0.1114 -0.8200
15172TIP3    H266932   1.173   3.807   0.575 -0.8063 -1.1791 -0.6965
15173TIP3   OH266933   6.406   5.252  14.662  0.6376  0.4937 -1.1441
15173TIP3    H166934   6.428   5.160  14.645  0.3524  0.3124 -0.5662
15173TIP3    H266935   6.321   5.264  14.620 -1.3366 -0.6804  2.1660
15174TIP3   OH266936   1.112   3.637   4.645 -0.1890 -0.1506 -0.0320
15174TIP3    H166937   1.058   3.651   4.723 -1.3242  1.8833 -1.1019
15174TIP3    H266938   1.180   3.576   4.674 -0.3412  0.8052  2.6291
15175TIP3   OH266939   2.520   4.384  17.071  0.2111 -0.0797 -0.3051
15175TIP3    H166940   2.524   4.352  17.161 -0.3810  0.8154  0.0550
15175TIP3    H266941   2.491   4.309  17.020  0.7052 -0.6419  0.2200
15176TIP3   OH266942   1.115   1.123   5.441  0.4887  0.3426 -0.0541
15176TIP3    H166943   1.171   1.196   5.467 -0.4856  0.4005  2.0882
15176TIP3    H266944   1.102   1.073   5.521 -0.5460 -1.0423 -1.0382
15177TIP3   OH266945   0.573   3.143   5.829  0.1498  0.5076 -0.0759
15177TIP3    H166946   0.594   3.199   5.903 -0.6013  0.6413  0.0385
15177TIP3    H266947   0.630   3.067   5.840 -1.5281 -0.5488  1.9055
15178TIP3   OH266948   3.945   1.947  15.682  0.4459  0.2393 -0.3414
15178TIP3    H166949   3.985   2.015  15.735 -1.0537  0.5370  0.4520
15178TIP3    H266950   4.015   1.882  15.669  1.4514  1.2012  0.1361
15179TIP3   OH266951   6.492   3.877  12.214 -0.5985  0.2776  0.1102
15179TIP3    H166952   6.446   3.958  12.191  0.1999  1.2558  1.8030
15179TIP3    H266953   6.536   3.852  12.133 -0.4771  1.8107 -0.3384
15180TIP3   OH266954   2.077   4.581  11.920  0.3726 -0.0013 -0.0918
15180TIP3    H166955   2.081   4.618  12.008  0.2389 -0.1738 -0.0121
15180TIP3    H266956   2.116   4.648  11.864 -1.0696  0.8427 -0.1365
15181TIP3   OH266957   6.700   5.667  13.626  0.2132  0.0089 -0.2637
15181TIP3    H166958   6.623   5.629  13.584 -2.5672  1.1881  3.2075
15181TIP3    H266959   6.717   5.608  13.700  1.2009  0.9763  0.3035
15182TIP3   OH266960   5.568   4.479   4.073 -0.2677 -0.0183  0.2877
15182TIP3    H166961   5.584   4.480   4.168  0.0913 -0.1237  0.2287
15182TIP3    H266962   5.629   4.414   4.039  0.5755  0.9810 -0.1790
15183TIP3   OH266963   1.168   1.342  11.894  0.4397  0.0229 -0.1038
15183TIP3    H166964   1.261   1.350  11.913 -0.0901  2.2242  2.0249
15183TIP3    H266965   1.147   1.418  11.840 -0.3348  0.2578  0.5005
15184TIP3   OH266966   4.095   0.406   5.657  0.0627 -0.4215 -0.4476
15184TIP3    H166967   4.110   0.470   5.726 -0.2405  0.4981 -1.2152
15184TIP3    H266968   4.140   0.442   5.580 -1.2918 -0.4038 -1.2676
15185TIP3   OH266969   0.739   1.436  12.722  0.0308  0.4815 -0.4076
15185TIP3    H166970   0.712   1.399  12.638 -0.9058 -0.4356  0.2770
15185TIP3    H266971   0.661   1.481  12.755 -0.4995 -1.4800  1.2107
15186TIP3   OH266972   0.008   5.104   4.339  0.4729 -0.5487  0.4101
15186TIP3    H166973  -0.025   5.107   4.429 -1.7035  0.2450 -0.3565
15186TIP3    H266974   0.000   5.012   4.314 -3.2554 -0.1871 -0.3680
15187TIP3   OH266975   6.578   5.476  11.920  0.5342  0.3962 -0.3123
15187TIP3    H166976   6.585   5.564  11.881  0.3187  1.5750  2.1526
15187TIP3    H266977   6.484   5.459  11.922  0.4114  1.1296  1.2644
15188TIP3   OH266978   2.414   5.680  12.139 -0.2894  0.2166 -0.0914
15188TIP3    H166979   2.324   5.683  12.106  0.4086  1.7503 -2.0429
15188TIP3    H266980   2.469   5.698  12.062  1.6893 -0.2703  1.1249
15189TIP3   OH266981   0.050   2.402   4.088  0.0796 -0.2982 -0.0524
15189TIP3    H166982   0.033   2.344   4.162  1.7026  0.6159  1.0865
15189TIP3    H266983   0.103   2.473   4.124  1.4062 -0.1049 -2.2029
15190TIP3   OH266984   4.144   0.994  14.522 -0.3588  0.2034 -0.5033
15190TIP3    H166985   4.226   1.032  14.491  0.3122 -0.8764 -0.0849
15190TIP3    H266986   4.091   1.070  14.547  0.3807  0.9260 -1.0629
15191TIP3   OH266987   1.601   4.481   1.540  0.4053 -0.9324  0.2102
15191TIP3    H166988   1.612   4.576   1.536  0.6424 -0.9207  0.9712
15191TIP3    H266989   1.676   4.445   1.493  0.3761 -0.7486  0.0241
15192TIP3   OH266990   4.769   1.791  16.338  0.3035 -0.1802  0.1046
15192TIP3    H166991   4.698   1.843  16.300  0.2231 -0.4662 -0.1400
15192TIP3    H266992   4.726   1.735  16.402  0.5290  0.8051  1.1644
15193TIP3   OH266993   3.875   2.720   2.098 -0.5126 -0.7328  0.3116
15193TIP3    H166994   3.839   2.745   2.013 -2.8788 -3.7524  0.2476
15193TIP3    H266995   3.830   2.777   2.161 -0.9559 -0.4663 -0.2398
15194TIP3   OH266996   1.416   2.356   0.827 -0.6529 -0.3123 -0.1109
15194TIP3    H166997   1.432   2.362   0.921  0.6455  0.9770 -0.3891
15194TIP3    H266998   1.502   2.362   0.787 -1.1588 -1.1698 -1.3856
15195TIP3   OH266999   1.865   3.665   1.544  0.2773  0.2898  0.1048
15195TIP3    H167000   1.870   3.760   1.535  1.4176  0.3829  1.3669
15195TIP3    H267001   1.923   3.644   1.617 -0.7021 -1.2922  0.4983
15196TIP3   OH267002   5.856   6.122   1.067  0.6036 -0.1964 -0.0429
15196TIP3    H167003   5.815   6.070   1.137  0.5893 -1.1669 -0.7578
15196TIP3    H267004   5.785   6.138   1.005  0.9646 -0.6352 -0.5708
15197TIP3   OH267005   1.735   1.087   4.364  0.6750  0.9086  0.3408
15197TIP3    H167006   1.650   1.053   4.391  0.3991  0.5369 -0.9410
15197TIP3    H267007   1.799   1.025   4.400  0.2964  0.2003 -0.1945
15198TIP3   OH267008   2.197   0.499  14.699  0.3396  0.6626 -0.0529
15198TIP3    H167009   2.170   0.407  14.695 -1.0800  0.9803  1.0359
15198TIP3    H267010   2.198   0.528  14.608 -0.0729 -0.2044 -0.3437
15199TIP3   OH267011   4.300   4.018   4.808 -0.4922 -0.6026 -0.0304
15199TIP3    H167012   4.311   3.962   4.886 -0.7528 -0.3476  0.1917
15199TIP3    H267013   4.222   3.983   4.765 -0.2506 -0.8487 -0.2673
15200TIP3   OH267014   0.684   2.726  10.225 -0.1654  0.7440  0.4745
15200TIP3    H167015   0.599   2.733  10.269 -0.1094  2.6770  0.3607
15200TIP3    H267016   0.744   2.779  10.278  0.9011 -0.2869  0.3496
15201TIP3   OH267017   3.833   2.475  15.578  0.5603 -0.2386  0.5360
15201TIP3    H167018   3.870   2.498  15.663 -1.5604 -2.3005  2.1600
15201TIP3    H267019   3.772   2.546  15.558  1.7643  0.7433  0.1707
15202TIP3   OH267020   4.666   2.291   0.127 -0.3515  0.6663  0.1812
15202TIP3    H167021   4.628   2.374   0.097 -0.0380  0.6227 -0.3497
15202TIP3    H267022   4.745   2.316   0.174 -0.1237  0.6647 -0.1894
15203TIP3   OH267023   6.746   2.681   2.970  0.4497  0.1585 -0.4918
15203TIP3    H167024   6.771   2.772   2.956  2.2874 -0.1567  0.3727
15203TIP3    H267025   6.739   2.645   2.882  1.5143  0.7145 -0.8294
15204TIP3   OH267026   5.672   2.275   4.113  0.3459  0.6806 -0.1051
15204TIP3    H167027   5.749   2.219   4.121  0.0075 -0.0703 -1.6797
15204TIP3    H267028   5.611   2.242   4.179  0.7417  0.2010  0.0265
15205TIP3   OH267029   6.562   0.925  11.804 -0.0982 -0.2301 -0.2575
15205TIP3    H167030   6.637   0.889  11.758 -0.4166 -0.9392 -0.2308
15205TIP3    H267031   6.570   1.020  11.793  1.5688 -0.1897  0.9200
15206TIP3   OH267032   4.619   5.685   2.317  0.3197  0.0098 -0.0447
15206TIP3    H167033   4.596   5.646   2.232 -0.7076  1.6290 -0.5552
15206TIP3    H267034   4.578   5.628   2.381  2.6311 -2.3077 -0.4567
15207TIP3   OH267035   1.261   2.906   5.683  0.6811 -0.4216  0.1160
15207TIP3    H167036   1.312   2.987   5.691  0.2856 -0.2135  0.5686
15207TIP3    H267037   1.258   2.889   5.589 -0.2274  0.7468 -0.0920
15208TIP3   OH267038   0.264   6.289  17.006 -0.3019  0.3444  0.2041
15208TIP3    H167039   0.347   6.274  16.962 -0.2344  0.4132  0.3063
15208TIP3    H267040   0.239   6.203  17.040 -0.2649  0.3262  0.1857
15209TIP3   OH267041   2.133   5.633  11.120 -0.1794 -0.3550  0.2911
15209TIP3    H167042   2.180   5.643  11.203 -0.4990 -1.7665  0.6739
15209TIP3    H267043   2.200   5.607  11.057 -0.0075  0.3086  0.1902
15210TIP3   OH267044   1.795   1.065  10.511 -0.1973  0.3833  0.1736
15210TIP3    H167045   1.884   1.084  10.541 -0.1428  0.0605  0.2242
15210TIP3    H267046   1.749   1.149  10.514  0.0091  0.4849  0.4831
15211TIP3   OH267047   5.595   3.873   1.265 -0.0963 -0.0158 -0.0515
15211TIP3    H167048   5.528   3.941   1.261 -0.0872  0.0147  0.2419
15211TIP3    H267049   5.677   3.921   1.277 -0.1271 -0.0908  0.4799
15212TIP3   OH267050   0.263   3.483   3.948  0.4851 -0.0339 -0.5712
15212TIP3    H167051   0.256   3.575   3.973  0.9903  0.0178 -0.6186
15212TIP3    H267052   0.173   3.449   3.956  0.5802  0.0375  1.0863
15213TIP3   OH267053   1.809   3.672  11.830 -0.3488 -0.2828 -0.5629
15213TIP3    H167054   1.752   3.705  11.761  0.7059  1.6690 -0.5576
15213TIP3    H267055   1.868   3.745  11.850  1.9361 -2.0856 -0.3306
15214TIP3   OH267056   5.257   6.754  14.982 -0.1322  0.3716 -0.6766
15214TIP3    H167057   5.293   6.786  14.899  0.5947  1.5811  0.0643
15214TIP3    H267058   5.286   6.664  14.987 -0.7056  0.0838 -2.0085
15215TIP3   OH267059   5.729   5.126  15.169 -0.7169  0.8291  0.0658
15215TIP3    H167060   5.802   5.187  15.161 -1.5982  1.7815 -1.0674
15215TIP3    H267061   5.657   5.168  15.122 -1.1447 -1.3834 -1.4420
15216TIP3   OH267062   4.667   4.494   0.582  0.3244 -0.6030  0.4613
15216TIP3    H167063   4.593   4.438   0.560  0.6284 -0.9033  0.1950
15216TIP3    H267064   4.665   4.564   0.516  0.2681 -0.6023  0.4647
15217TIP3   OH267065   1.990   1.570  12.177  0.4962 -0.4425 -0.1457
15217TIP3    H167066   2.042   1.642  12.211  1.9766 -1.1915 -0.7203
15217TIP3    H267067   2.024   1.555  12.088 -1.9805  0.2377 -1.3045
15218TIP3   OH267068   4.125   6.102   1.319 -0.3723 -0.1043 -0.4434
15218TIP3    H167069   4.175   6.021   1.306 -1.0545 -0.6227  0.0445
15218TIP3    H267070   4.034   6.078   1.299 -0.7495  0.2392  0.7585
15219TIP3   OH267071   4.469   1.371   4.370  0.0624 -0.3441  0.1954
15219TIP3    H167072   4.483   1.300   4.433  1.6201 -1.2963 -1.1628
15219TIP3    H267073   4.504   1.448   4.414 -2.3166 -0.1591  1.9940
15220TIP3   OH267074   5.459   3.399  16.151  0.0085  0.4914  0.2833
15220TIP3    H167075   5.444   3.473  16.093 -1.0697  1.1775  1.3789
15220TIP3    H267076   5.552   3.381  16.144  0.1242  1.3936 -0.6696
15221TIP3   OH267077   6.697   1.776   3.393 -0.0863  0.0243 -0.1450
15221TIP3    H167078   6.792   1.773   3.389  0.1754  3.5592  0.3158
15221TIP3    H267079   6.675   1.730   3.474  1.2341 -0.6521 -0.1559
15222TIP3   OH267080   5.535   1.627   1.954  0.0874 -0.4158 -0.0342
15222TIP3    H167081   5.593   1.624   1.878 -0.1401  0.2822 -0.2417
15222TIP3    H267082   5.578   1.685   2.016  0.4974 -1.3431  0.5746
15223TIP3   OH267083   2.311   2.371   2.427  0.3401 -0.2643  0.4955
15223TIP3    H167084   2.320   2.458   2.466 -2.3050 -1.1496  3.4717
15223TIP3    H267085   2.391   2.326   2.454  0.9708  0.7254  0.3569
15224TIP3   OH267086   5.928   1.697  13.700  0.2195  0.1082  0.8354
15224TIP3    H167087   5.885   1.670  13.619  0.6473 -1.4527  1.0973
15224TIP3    H267088   5.913   1.791  13.705  2.8669  0.9303 -2.6962
15225TIP3   OH267089   0.989   6.199   1.024 -0.1156  0.2864  0.3170
15225TIP3    H167090   0.977   6.170   1.115 -1.5048 -0.0797  0.0518
15225TIP3    H267091   1.005   6.293   1.031 -0.0624  0.2397  0.9526
15226TIP3   OH267092   6.277   3.661   5.872  0.4878  0.5998  0.1410
15226TIP3    H167093   6.335   3.655   5.948  1.4873 -0.0958 -0.6460
15226TIP3    H267094   6.195   3.695   5.907  0.7349 -0.2598  1.6326
15227TIP3   OH267095   2.676   2.748  13.672 -0.3296 -0.2394 -0.0265
15227TIP3    H167096   2.678   2.758  13.767  0.4678  1.8193 -0.2110
15227TIP3    H267097   2.756   2.700  13.651  0.7002  1.3113  0.1953
15228TIP3   OH267098   0.633   0.978  17.047 -0.5114  0.4370  0.1815
15228TIP3    H167099   0.717   0.996  17.090  0.7316 -1.1047 -1.4107
15228TIP3    H267100   0.658   0.934  16.966 -2.9221 -1.1175  0.2002
15229TIP3   OH267101   1.511   6.771   3.889 -0.4955 -0.2838 -0.0377
15229TIP3    H167102   1.555   6.711   3.950 -0.5727  0.5094  0.8168
15229TIP3    H267103   1.457   6.714   3.834  0.5167 -1.1339 -0.1861
15230TIP3   OH267104   1.672   6.713   4.329 -0.0226 -0.0560 -0.2729
15230TIP3    H167105   1.713   6.779   4.273 -0.6664  1.4594  0.9880
15230TIP3    H267106   1.721   6.718   4.412 -0.2381 -0.9976 -0.0748
15231TIP3   OH267107   1.969   2.672   2.418 -0.4829  0.0172 -0.0444
15231TIP3    H167108   1.993   2.739   2.354  0.2620  0.3232  0.5401
15231TIP3    H267109   2.006   2.590   2.382 -1.4383 -0.1038 -0.7830
15232TIP3   OH267110   2.548   3.519  15.028 -0.2074  0.0471  0.0734
15232TIP3    H167111   2.624   3.528  14.972 -0.9658 -0.6115 -1.1057
15232TIP3    H267112   2.505   3.439  14.998 -0.6449 -0.3207  1.5933
15233TIP3   OH267113   5.292   1.177  16.693  0.5818  0.3634 -0.1476
15233TIP3    H167114   5.372   1.175  16.745  0.6415  1.1798 -0.1898
15233TIP3    H267115   5.272   1.270  16.684 -0.2521  0.1749 -0.3229
15234TIP3   OH267116   4.166   3.730  12.108  0.4915 -0.8192  0.1671
15234TIP3    H167117   4.083   3.684  12.125 -0.1280 -0.2490 -1.2115
15234TIP3    H267118   4.191   3.765  12.194 -0.4558 -1.3695  0.6915
15235TIP3   OH267119   2.997   1.053  11.811 -0.1958  0.6120  0.1621
15235TIP3    H167120   2.919   1.109  11.809  0.9060  2.1983  0.2143
15235TIP3    H267121   2.962   0.964  11.800 -1.9784  1.2999 -0.1515
15236TIP3   OH267122   3.886   2.059   2.321 -0.6054 -0.3423  0.0208
15236TIP3    H167123   3.883   1.966   2.300 -1.1065  0.2861 -3.1666
15236TIP3    H267124   3.880   2.103   2.236  0.5768  2.6036  1.3358
15237TIP3   OH267125   0.618   4.683   5.654  0.3439 -0.3524  0.0751
15237TIP3    H167126   0.689   4.718   5.707  0.1998 -2.1954  1.6122
15237TIP3    H267127   0.615   4.590   5.677 -1.5041 -0.6571 -1.1778
15238TIP3   OH267128   4.011   3.731  12.515 -0.0249  0.3550  0.1029
15238TIP3    H167129   3.933   3.768  12.475 -1.2189  1.2716  3.0296
15238TIP3    H267130   3.996   3.636  12.516 -0.6153  0.4452 -0.2815
15239TIP3   OH267131   4.600   1.336   6.023 -0.1208 -0.2351  0.5033
15239TIP3    H167132   4.669   1.400   6.005  1.7250 -1.3115  3.1017
15239TIP3    H267133   4.557   1.368   6.102  0.2298 -1.6753  1.3217
15240TIP3   OH267134   0.555   3.404  16.192 -0.7705  0.2859 -0.0327
15240TIP3    H167135   0.473   3.414  16.241 -0.6848  0.8398  0.0006
15240TIP3    H267136   0.537   3.440  16.105 -0.0453  2.1367  0.5296
15241TIP3   OH267137   3.214   3.824  13.225  0.5148  0.0127 -0.1965
15241TIP3    H167138   3.292   3.847  13.175  0.4540  0.4012 -0.1231
15241TIP3    H267139   3.228   3.866  13.310 -0.0330  0.5779 -0.3768
15242TIP3   OH267140   1.419   0.346   0.314 -0.3552  0.5832  0.0809
15242TIP3    H167141   1.430   0.426   0.365  0.7976 -0.1755  1.0624
15242TIP3    H267142   1.490   0.347   0.251 -0.6605  0.5861 -0.2679
15243TIP3   OH267143   0.040   4.655  11.898  0.2253  0.0139 -0.3708
15243TIP3    H167144  -0.012   4.637  11.976  1.6792  1.5596  1.0346
15243TIP3    H267145   0.120   4.604  11.910  0.8836  1.0250 -0.3229
15244TIP3   OH267146   5.935   4.725   2.759  0.4885  0.1340 -0.1168
15244TIP3    H167147   5.984   4.748   2.679  0.8421  2.9034  0.7781
15244TIP3    H267148   5.995   4.747   2.830 -0.2404 -1.2515  0.9711
15245TIP3   OH267149   6.277   5.223   0.196  0.4503  0.1230  0.1418
15245TIP3    H167150   6.331   5.265   0.128  1.0974  0.6421  0.9668
15245TIP3    H267151   6.308   5.260   0.278  0.0595 -0.9288  0.7823
15246TIP3   OH267152   5.884   0.034  15.797  0.3963 -0.4336 -0.6727
15246TIP3    H167153   5.820   0.004  15.861  0.8692 -0.9619 -0.4319
15246TIP3    H267154   5.845   0.016  15.712  0.6176 -1.6550 -0.5322
15247TIP3   OH267155   0.655   5.061  14.732  0.4874 -0.1990  0.5398
15247TIP3    H167156   0.634   5.045  14.824 -1.6549  0.7518  0.2904
15247TIP3    H267157   0.644   5.156  14.722  3.5472  0.1929 -0.0944
15248TIP3   OH267158   3.928   5.241  12.593  0.1391 -0.1980  0.0075
15248TIP3    H167159   3.865   5.305  12.626  0.5696  0.0699  0.3147
15248TIP3    H267160   3.992   5.292  12.544  1.6470 -0.0903  1.9669
15249TIP3   OH267161   3.673   6.144  13.466  0.1374 -0.0592  0.2331
15249TIP3    H167162   3.655   6.050  13.472 -1.6735  0.2602  0.3976
15249TIP3    H267163   3.622   6.182  13.538 -0.2998  1.1802 -0.7073
15250TIP3   OH267164   4.581   3.601   3.898  0.0398 -0.0267 -0.1093
15250TIP3    H167165   4.563   3.517   3.940 -0.9656  0.6625  0.9018
15250TIP3    H267166   4.500   3.623   3.852  0.9959 -0.5807 -2.1734
15251TIP3   OH267167   0.303   1.591  12.084 -0.6340 -0.8171 -0.2004
15251TIP3    H167168   0.285   1.592  12.178  1.0157 -0.6839  0.1585
15251TIP3    H267169   0.229   1.638  12.045 -0.2273  1.2254  1.2896
15252TIP3   OH267170   1.945   6.151  16.520  0.7129  0.0613 -0.1852
15252TIP3    H167171   1.943   6.188  16.432  1.8220  0.7675  0.0657
15252TIP3    H267172   2.033   6.116  16.530 -0.0387 -1.9205 -0.0880
15253TIP3   OH267173   2.359   1.215  15.582  0.5469  0.1279 -0.6671
15253TIP3    H167174   2.428   1.269  15.544  1.1028  0.2418  0.4654
15253TIP3    H267175   2.336   1.153  15.513  0.5492  1.2125 -1.6641
15254TIP3   OH267176   0.715   6.052   3.520 -0.0438 -0.0674 -0.1189
15254TIP3    H167177   0.673   6.046   3.606 -1.2847 -1.1559 -0.7699
15254TIP3    H267178   0.720   5.962   3.489 -0.9581  0.3962 -1.7895
15255TIP3   OH267179   4.986   4.397   1.242  0.2485 -0.7947 -0.1532
15255TIP3    H167180   5.026   4.406   1.156 -0.3879  0.8402 -0.3244
15255TIP3    H267181   5.059   4.380   1.301  1.0583  0.7586 -0.6569
15256TIP3   OH267182   3.918   3.347   4.294  0.2660 -0.0947  0.4171
15256TIP3    H167183   3.830   3.323   4.264  0.6727 -1.5905  0.3686
15256TIP3    H267184   3.955   3.266   4.329  1.9707  0.2813 -0.3992
15257TIP3   OH267185   0.692   4.101  10.416  0.1392 -0.7275 -0.1417
15257TIP3    H167186   0.657   4.021  10.457 -0.7587 -0.4406 -0.3181
15257TIP3    H267187   0.784   4.102  10.441  0.7033 -2.9035 -1.8073
15258TIP3   OH267188   2.525   0.466   3.207 -0.6525  0.3080 -0.1188
15258TIP3    H167189   2.607   0.476   3.159 -0.4043  1.0081  0.4453
15258TIP3    H267190   2.550   0.465   3.299 -1.2455  0.1490  0.0476
15259TIP3   OH267191   3.691   0.439  13.743 -0.3087 -0.6233 -0.0489
15259TIP3    H167192   3.773   0.391  13.727 -0.1391 -0.0689 -0.9819
15259TIP3    H267193   3.623   0.372  13.738  0.1532 -1.2857  1.8628
15260TIP3   OH267194   1.689   4.575  15.493  0.1083  0.2907 -0.2604
15260TIP3    H167195   1.658   4.573  15.584 -0.7449  0.0411 -0.5489
15260TIP3    H267196   1.776   4.615  15.498 -0.5459  1.6758  0.4924
15261TIP3   OH267197   2.735   3.782  12.364 -0.3611 -0.3794  0.2465
15261TIP3    H167198   2.644   3.810  12.357 -0.4330 -0.4329  0.9080
15261TIP3    H267199   2.784   3.863  12.376 -0.0655 -0.1257 -2.0733
15262TIP3   OH267200   1.769   6.750   4.573  0.2710  0.1068 -0.0987
15262TIP3    H167201   1.832   6.696   4.621 -0.4688  0.2749  1.1145
15262TIP3    H267202   1.773   6.836   4.616 -1.9315 -0.3180  1.1408
15263TIP3   OH267203   3.392   3.183   1.047 -0.2238  0.0364 -0.0280
15263TIP3    H167204   3.412   3.107   0.993  3.0374  0.5134  0.3171
15263TIP3    H267205   3.390   3.257   0.986  1.6833  0.3247  0.2118
15264TIP3   OH267206   0.482   4.875  13.292 -0.0426  0.5150  0.9936
15264TIP3    H167207   0.481   4.805  13.227 -1.3583  0.5903  0.9122
15264TIP3    H267208   0.556   4.854  13.348 -0.0762 -0.6265  0.6358
15265TIP3   OH267209   4.464   3.287   0.844 -0.0032  0.0952 -0.4693
15265TIP3    H167210   4.522   3.249   0.778 -1.2556 -1.0574 -0.9573
15265TIP3    H267211   4.515   3.358   0.883  2.1058 -1.4774 -0.1806
15266TIP3   OH267212   3.592   6.772  11.798  0.2905 -0.1847 -0.3476
15266TIP3    H167213   3.610   6.703  11.733 -1.6355 -0.4619 -0.6408
15266TIP3    H267214   3.542   6.728  11.866  0.4470  0.5877  0.2731
15267TIP3   OH267215   1.306   4.576  14.004 -0.2233  0.0350  0.4849
15267TIP3    H167216   1.348   4.611  14.083  0.5730  0.5788 -0.1573
15267TIP3    H267217   1.249   4.648  13.974 -1.2268 -0.5069  1.0616
15268TIP3   OH267218   3.409   4.616   5.811 -0.6099 -0.1533 -0.0514
15268TIP3    H167219   3.374   4.606   5.899 -1.3558 -1.7182 -0.5075
15268TIP3    H267220   3.494   4.573   5.814 -1.0063 -0.9619 -0.3137
15269TIP3   OH267221   6.149   0.601  14.042  0.0232 -0.1534  0.0417
15269TIP3    H167222   6.143   0.690  14.007 -0.0201 -0.1104  0.1594
15269TIP3    H267223   6.129   0.610  14.135 -1.1318 -0.4577 -0.1655
15270TIP3   OH267224   1.727   3.446   1.600  0.4676 -0.5996 -0.7551
15270TIP3    H167225   1.789   3.373   1.589  1.9157  0.3126  0.7535
15270TIP3    H267226   1.774   3.522   1.565  0.3744  0.1618  0.6826
15271TIP3   OH267227   5.127   6.051   2.791 -0.4277  0.2853 -0.1047
15271TIP3    H167228   5.204   6.075   2.843 -0.0168 -2.3854  0.6495
15271TIP3    H267229   5.151   6.075   2.701  1.9023 -1.7004 -0.1015
15272TIP3   OH267230   0.581   3.244   2.620  0.4274 -0.1767  0.2097
15272TIP3    H167231   0.491   3.262   2.649  0.4298 -0.2550  0.2664
15272TIP3    H267232   0.573   3.163   2.569  0.7350 -1.1559  1.6575
15273TIP3   OH267233   4.554   0.367  14.041 -0.1958  0.9529  0.0744
15273TIP3    H167234   4.604   0.349  14.121  0.0587 -0.1350 -0.3113
15273TIP3    H267235   4.525   0.281  14.011 -0.7061  1.3970 -0.7412
15274TIP3   OH267236   2.516   4.848   0.724 -0.0708 -0.0607 -0.1699
15274TIP3    H167237   2.514   4.889   0.810 -1.3704 -0.0740 -0.1679
15274TIP3    H267238   2.513   4.754   0.743 -0.2183 -0.0676 -0.2298
15275TIP3   OH267239   4.135   4.194  12.984  0.2826 -0.7385 -0.1057
15275TIP3    H167240   4.090   4.115  12.953 -0.9853 -0.6470  1.4156
15275TIP3    H267241   4.136   4.251  12.907 -2.2711 -0.7385 -0.2181
15276TIP3   OH267242   3.223   0.115   3.874  0.3348 -1.1416  0.1884
15276TIP3    H167243   3.280   0.094   3.948  0.0374  0.6128  0.9681
15276TIP3    H267244   3.282   0.123   3.799  1.0295 -0.1814  0.8153
15277TIP3   OH267245   4.496   4.239   4.109  0.1595 -0.6077 -0.1088
15277TIP3    H167246   4.547   4.197   4.039 -0.4294 -1.0441 -0.2824
15277TIP3    H267247   4.462   4.167   4.161  0.0240 -0.3060  0.2248
15278TIP3   OH267248   5.207   1.837   0.039  0.4233 -0.3647  0.6193
15278TIP3    H167249   5.230   1.782   0.113 -1.6131 -0.1131  1.4849
15278TIP3    H267250   5.112   1.838   0.037  0.4042  1.3540 -0.7102
15279TIP3   OH267251   0.940   0.214   3.468  0.3702 -0.6741  0.0682
15279TIP3    H167252   1.026   0.217   3.427  0.5325 -0.1553  0.4414
15279TIP3    H267253   0.930   0.299   3.511 -0.5984 -0.4747 -0.5105
15280TIP3   OH267254   0.440   0.335  14.638 -0.3372 -0.0089  0.4048
15280TIP3    H167255   0.513   0.314  14.581 -0.9428 -2.3761  0.3892
15280TIP3    H267256   0.421   0.427  14.620  1.0832  0.0027 -1.3254
15281TIP3   OH267257   5.951   0.469  11.286  0.4067  0.1763 -0.5586
15281TIP3    H167258   5.931   0.533  11.218  1.3226  1.1671  0.0790
15281TIP3    H267259   5.958   0.520  11.366  2.4492 -0.5037 -0.2354
15282TIP3   OH267260   4.839   2.899   0.334  0.6450 -0.0529  0.2241
15282TIP3    H167261   4.855   2.993   0.337  2.1176 -0.2895  0.4704
15282TIP3    H267262   4.925   2.859   0.343  0.0339 -1.4385  0.2633
15283TIP3   OH267263   3.857   4.662   3.811 -0.7140  0.5012  0.0792
15283TIP3    H167264   3.782   4.651   3.869 -0.8564  1.4949  0.1005
15283TIP3    H267265   3.824   4.715   3.738  0.2879  2.1584  0.7809
15284TIP3   OH267266   3.332   3.955  11.666 -0.1869 -0.0006 -0.2316
15284TIP3    H167267   3.280   3.958  11.586 -0.0216 -2.8845 -0.5704
15284TIP3    H267268   3.423   3.947  11.635  0.0858  0.9347  0.2919
15285TIP3   OH267269   3.805   5.485   6.152 -0.1287  0.4513  0.0418
15285TIP3    H167270   3.712   5.499   6.138  0.0356  2.3096  0.5591
15285TIP3    H267271   3.848   5.554   6.102  1.0935 -1.3763 -1.5581
15286TIP3   OH267272   5.704   1.901   3.426 -0.2920 -0.3205  0.1700
15286TIP3    H167273   5.743   1.815   3.439  0.0882 -0.2625 -0.5323
15286TIP3    H267274   5.745   1.957   3.492 -0.8473 -0.7654  0.8996
15287TIP3   OH267275   3.533   4.792   3.716  0.4815  0.1452  0.2421
15287TIP3    H167276   3.440   4.778   3.735  0.5531 -0.5929  0.0443
15287TIP3    H267277   3.553   4.731   3.645  0.8475  1.0796 -0.4805
15288TIP3   OH267278   3.743   3.509  15.815  0.3330 -0.1776 -0.1072
15288TIP3    H167279   3.776   3.551  15.735 -1.6066  0.6167 -0.5486
15288TIP3    H267280   3.813   3.522  15.879  1.2512  0.6353 -1.2198
15289TIP3   OH267281   1.742   0.229   0.999 -0.7032 -0.4813  0.0048
15289TIP3    H167282   1.775   0.318   1.014 -0.4860 -0.3165 -1.3658
15289TIP3    H267283   1.651   0.233   1.029 -0.7744  0.2760 -0.2888
15290TIP3   OH267284   2.379   3.105   3.106  0.3872 -0.1677 -0.7905
15290TIP3    H167285   2.358   3.170   3.040  0.3791 -0.0894 -0.7105
15290TIP3    H267286   2.406   3.028   3.056  1.6999  0.3277 -0.8810
15291TIP3   OH267287   0.925   2.432   2.833  0.3458  0.4387 -0.0430
15291TIP3    H167288   0.986   2.436   2.759 -1.0184 -1.9295 -1.4285
15291TIP3    H267289   0.869   2.508   2.822  0.3306  0.2643 -1.3201
15292TIP3   OH267290   6.073   1.474   5.996 -0.6902 -0.0634  0.0249
15292TIP3    H167291   6.040   1.400   5.945  1.6900 -0.3322 -1.2765
15292TIP3    H267292   5.995   1.522   6.023 -2.1548 -1.2688 -1.8611
15293TIP3   OH267293   4.002   2.109  11.935 -0.1636  0.1582  0.0001
15293TIP3    H167294   4.040   2.192  11.909  1.4845 -1.2020 -2.3810
15293TIP3    H267295   3.908   2.119  11.920 -0.0823  1.7683  0.4256
15294TIP3   OH267296   0.250   2.991   1.982  0.2283 -0.1584  0.3126
15294TIP3    H167297   0.331   3.015   1.937 -0.7626  0.6202 -1.1369
15294TIP3    H267298   0.225   2.907   1.942 -0.1182  0.0246  0.1417
15295TIP3   OH267299   1.900   2.263  16.690 -0.0745  0.4297 -0.4028
15295TIP3    H167300   1.831   2.246  16.625 -0.7045  2.3331 -0.2906
15295TIP3    H267301   1.854   2.267  16.773  0.3639  0.4877 -0.1644
15296TIP3   OH267302   0.681   1.414   0.129  0.2943 -0.0063  0.1541
15296TIP3    H167303   0.595   1.410   0.087 -0.0955  0.8185  0.8639
15296TIP3    H267304   0.743   1.413   0.056 -0.1169 -3.8321 -0.3629
15297TIP3   OH267305   3.762   6.573  11.645  0.3175 -0.7340  0.0588
15297TIP3    H167306   3.762   6.600  11.553  0.7381  0.9695  0.5068
15297TIP3    H267307   3.854   6.580  11.672  0.1158 -0.6538  0.7513
15298TIP3   OH267308   3.491   1.162   1.607 -0.0927 -0.3015  0.0741
15298TIP3    H167309   3.400   1.192   1.595 -0.0450  0.5845  1.7728
15298TIP3    H267310   3.483   1.085   1.663  0.2027 -0.4250 -0.0524
15299TIP3   OH267311   1.750   3.299   2.363 -0.9415 -0.7546 -0.3546
15299TIP3    H167312   1.829   3.352   2.372 -1.1498 -0.2279 -1.5003
15299TIP3    H267313   1.698   3.322   2.440 -1.5561  1.6755 -1.3757
15300TIP3   OH267314   0.266   4.145  16.384  0.2825 -0.3560  0.1486
15300TIP3    H167315   0.345   4.129  16.435 -0.8811 -0.3095  2.0272
15300TIP3    H267316   0.252   4.240  16.389  0.6938 -0.2034 -1.1322
15301TIP3   OH267317   2.896   0.924   1.509 -0.1165  0.3813  0.5268
15301TIP3    H167318   2.928   0.834   1.512  0.6412  0.6434  0.4982
15301TIP3    H267319   2.802   0.915   1.496 -0.1368 -0.4157  1.1631
15302TIP3   OH267320   3.963   6.630  15.685 -0.1327  0.4746  0.1181
15302TIP3    H167321   3.973   6.573  15.761 -0.5854 -0.3289 -0.4054
15302TIP3    H267322   3.967   6.719  15.720 -1.9896  0.1319  1.3109
15303TIP3   OH267323   1.990   3.798  13.725  0.2563  0.3446 -0.0144
15303TIP3    H167324   1.965   3.791  13.633  2.4278 -0.1956 -0.6270
15303TIP3    H267325   2.057   3.730  13.736  0.4379  0.7876  1.8219
15304TIP3   OH267326   6.333   1.877  17.124 -0.0310 -0.2359  0.0992
15304TIP3    H167327   6.393   1.866  17.197 -0.1468  0.2513  0.2738
15304TIP3    H267328   6.334   1.972  17.107  1.0403 -0.4825 -1.4061
15305TIP3   OH267329   6.782   1.903   0.280  0.3187  0.6430 -0.1549
15305TIP3    H167330   6.862   1.861   0.250 -1.1188 -2.0415 -0.5642
15305TIP3    H267331   6.761   1.857   0.362 -1.0661  0.9240 -0.3365
15306TIP3   OH267332   3.043   4.856   5.635  0.0975  0.1331 -0.0389
15306TIP3    H167333   3.135   4.849   5.660  0.1448 -0.4216 -0.3367
15306TIP3    H267334   3.046   4.888   5.544 -0.0802  2.6141  0.7448
15307TIP3   OH267335   3.873   0.295   0.675 -0.0925 -0.1825 -0.2215
15307TIP3    H167336   3.833   0.295   0.588 -1.6350  1.5960  0.4305
15307TIP3    H267337   3.874   0.387   0.701 -0.5829 -0.7663  2.0575
15308TIP3   OH267338   0.985   6.612  13.373  0.2794  0.4901  0.0453
15308TIP3    H167339   1.019   6.586  13.458  1.9281  3.3341  0.3688
15308TIP3    H267340   1.063   6.635  13.322 -0.5576 -2.0261 -2.6697
15309TIP3   OH267341   5.081   1.980   0.647  0.0593 -0.4052  0.1480
15309TIP3    H167342   5.023   1.911   0.679 -0.5408 -0.2280 -0.5178
15309TIP3    H267343   5.044   2.061   0.683 -1.1016 -0.1140 -1.5741
15310TIP3   OH267344   1.645   2.324   6.327 -0.2575 -0.6100  0.3254
15310TIP3    H167345   1.740   2.316   6.336 -0.3235 -1.6349  0.1928
15310TIP3    H267346   1.631   2.322   6.232 -0.3315  0.7044  0.2885
15311TIP3   OH267347   5.219   1.330  15.358 -0.6801  0.1286  0.3994
15311TIP3    H167348   5.181   1.250  15.393 -0.5256  0.5585  1.6201
15311TIP3    H267349   5.303   1.303  15.320 -0.5530 -0.2822  0.9519
15312TIP3   OH267350   1.437   1.554  16.812  0.8852  0.2950 -0.3941
15312TIP3    H167351   1.453   1.471  16.857 -5.2215 -1.4982 -0.5341
15312TIP3    H267352   1.415   1.615  16.883 -0.0329  0.0637 -0.4591
15313TIP3   OH267353   6.788   2.597  11.418 -0.0522  0.1124 -0.5196
15313TIP3    H167354   6.849   2.550  11.361  0.9893  0.0147  0.6089
15313TIP3    H267355   6.840   2.670  11.453 -0.6864  0.2211  0.2168
15314TIP3   OH267356   5.110   3.365  11.429  0.1082  0.4609 -0.7288
15314TIP3    H167357   5.158   3.437  11.389 -2.6341  2.1267 -1.2903
15314TIP3    H267358   5.080   3.312  11.354  0.7912 -0.4057 -0.4080
15315TIP3   OH267359   1.659   0.804   3.451  0.2200  0.5483  0.3055
15315TIP3    H167360   1.583   0.862   3.456 -0.7088 -0.6691  1.1503
15315TIP3    H267361   1.678   0.781   3.542 -0.5405 -1.7601 -0.0368
15316TIP3   OH267362   2.424   1.941  16.994 -0.2913 -0.2990 -0.1372
15316TIP3    H167363   2.448   2.027  16.961 -1.1943 -0.3236 -0.9003
15316TIP3    H267364   2.475   1.879  16.942  1.3502 -0.2158  1.2818
15317TIP3   OH267365   4.369   5.674   5.695  0.0064 -0.1885 -0.3141
15317TIP3    H167366   4.333   5.736   5.631  0.3119  0.8523  0.5068
15317TIP3    H267367   4.340   5.707   5.780 -0.8291 -1.8448  0.0855
15318TIP3   OH267368   1.169   0.086   4.014 -0.3897  0.0358 -0.1989
15318TIP3    H167369   1.172   0.165   4.068  0.0672 -0.1664  0.0813
15318TIP3    H267370   1.119   0.023   4.066  0.1600 -0.2004  0.0457
15319TIP3   OH267371   2.687   0.608   1.210 -0.3773  0.1663  0.3065
15319TIP3    H167372   2.657   0.519   1.195 -0.4376  0.0023  1.2940
15319TIP3    H267373   2.676   0.652   1.126 -1.6314 -0.3867  0.1537
15320TIP3   OH267374   5.616   0.555   5.727  0.8514  0.1465 -0.8599
15320TIP3    H167375   5.576   0.533   5.811 -1.2919  1.0676 -1.5849
15320TIP3    H267376   5.640   0.470   5.690 -1.2847 -0.5647 -0.7622
15321TIP3   OH267377   1.589   5.113   5.875 -0.8354  0.3694 -0.4735
15321TIP3    H167378   1.672   5.136   5.917  0.8397 -1.1593 -2.6596
15321TIP3    H267379   1.523   5.162   5.923  1.4592  2.6747  0.5720
15322TIP3   OH267380   0.943   2.901   4.613  0.5747 -0.1571 -0.0931
15322TIP3    H167381   0.849   2.921   4.610  1.0665  2.3465 -1.2633
15322TIP3    H267382   0.948   2.807   4.592 -1.6026 -0.1320 -1.0234
15323TIP3   OH267383   0.493   5.858  14.424  0.2337  0.0318  0.3030
15323TIP3    H167384   0.421   5.922  14.428 -2.1477 -2.2959 -1.4504
15323TIP3    H267385   0.472   5.803  14.348  3.8963 -0.8628 -0.2272
15324TIP3   OH267386   1.176   0.269   4.210  0.1550  0.5862  0.1587
15324TIP3    H167387   1.217   0.229   4.287  0.6621 -0.3856 -0.5950
15324TIP3    H267388   1.190   0.363   4.223  1.1111  0.3822  0.7797
15325TIP3   OH267389   3.010   6.375   2.593 -0.2231  0.0921 -0.2859
15325TIP3    H167390   2.978   6.449   2.643 -0.2830  1.2233 -1.9085
15325TIP3    H267391   2.949   6.368   2.519 -2.2711 -3.7325  1.4905
15326TIP3   OH267392   4.394   0.906   4.878 -0.0838 -0.1899 -0.3039
15326TIP3    H167393   4.407   0.918   4.971  2.1850  1.6600 -0.7916
15326TIP3    H267394   4.302   0.930   4.863 -0.4865 -0.5491  1.4018
15327TIP3   OH267395   6.469   0.782  14.010  0.1748 -0.0516 -0.4936
15327TIP3    H167396   6.416   0.745  14.080  1.4221  0.2176  0.6382
15327TIP3    H267397   6.407   0.798  13.939 -0.7999 -2.1664 -0.2018
15328TIP3   OH267398   6.151   5.992   2.535 -0.2296  0.3666 -0.4398
15328TIP3    H167399   6.239   6.029   2.521 -0.2910  1.4511  1.5739
15328TIP3    H267400   6.167   5.901   2.561  0.2530  0.3316 -0.8551
15329TIP3   OH267401   2.708   5.067   5.236 -0.0564 -0.1740  0.2819
15329TIP3    H167402   2.743   4.995   5.290 -0.2180  0.6302  1.5041
15329TIP3    H267403   2.735   5.146   5.282 -1.2857  0.5217 -0.1509
15330TIP3   OH267404   1.471   3.408   0.503 -0.2051  0.3616 -0.2409
15330TIP3    H167405   1.421   3.330   0.527 -1.6282  1.5191  0.8180
15330TIP3    H267406   1.422   3.446   0.429  0.8495 -0.0827 -1.1844
15331TIP3   OH267407   3.542   3.884   3.619 -1.0552 -0.2459 -0.1539
15331TIP3    H167408   3.554   3.939   3.697  0.5976  0.8969 -1.1548
15331TIP3    H267409   3.447   3.870   3.614 -1.8313  4.0146 -0.7830
15332TIP3   OH267410   1.354   2.786  15.338  0.4576  0.2536  0.1674
15332TIP3    H167411   1.281   2.829  15.382  0.2871 -0.5933  0.7556
15332TIP3    H267412   1.318   2.758  15.254  0.0681 -0.2314  0.4872
15333TIP3   OH267413   0.637   6.352  13.316 -0.2297 -0.1305 -0.0945
15333TIP3    H167414   0.583   6.278  13.343  0.5056 -0.3931  0.7037
15333TIP3    H267415   0.641   6.408  13.394 -0.8878  0.8357 -0.7223
15334TIP3   OH267416   3.452   0.514  16.712 -0.0906 -0.1702 -0.2443
15334TIP3    H167417   3.443   0.459  16.789  1.7798  0.5368  0.5321
15334TIP3    H267418   3.368   0.560  16.706  0.0967  0.6051  2.0627
15335TIP3   OH267419   4.511   5.306   3.003  0.1693  0.2541  1.0234
15335TIP3    H167420   4.556   5.389   2.994 -0.6710  0.8443  1.9984
15335TIP3    H267421   4.440   5.324   3.065 -1.3410 -0.6560 -0.3705
15336TIP3   OH267422   1.798   5.987   1.553 -0.2487 -0.1220  0.1393
15336TIP3    H167423   1.780   6.067   1.601 -1.1371 -1.7365  2.6847
15336TIP3    H267424   1.716   5.966   1.509 -0.0847  0.2102 -0.3366
15337TIP3   OH267425   0.695   5.240  12.261 -0.5957  0.4378  0.0213
15337TIP3    H167426   0.723   5.208  12.175  0.3485 -1.1868  0.8957
15337TIP3    H267427   0.618   5.187  12.282 -1.7385  1.8566 -0.4333
15338TIP3   OH267428   1.144   1.468  16.401  0.2441  0.0596  0.0982
15338TIP3    H167429   1.067   1.416  16.426 -0.3793  0.4503 -0.9604
15338TIP3    H267430   1.214   1.436  16.458 -0.1546 -1.8528 -0.4255
15339TIP3   OH267431   4.682   0.274   4.293 -0.5520  0.1462  0.6116
15339TIP3    H167432   4.691   0.270   4.388  0.0494 -1.1756  0.5102
15339TIP3    H267433   4.592   0.247   4.276 -0.3432 -0.6657  0.7549
15340TIP3   OH267434   0.133   4.819   5.345 -0.1311 -0.0586  0.3341
15340TIP3    H167435   0.181   4.902   5.355  0.0836  0.1405 -1.8572
15340TIP3    H267436   0.193   4.762   5.297 -1.3315 -0.4450 -0.7798
15341TIP3   OH267437   3.266   5.740   1.563 -0.7083 -0.3281  0.3345
15341TIP3    H167438   3.239   5.789   1.641 -0.0619 -1.3780  1.2514
15341TIP3    H267439   3.303   5.806   1.505 -0.7327  0.4098  1.1380
15342TIP3   OH267440   2.207   2.367   3.558 -0.1242  0.3145  0.8878
15342TIP3    H167441   2.289   2.387   3.602  0.0984 -0.2125  0.7277
15342TIP3    H267442   2.233   2.347   3.468 -0.4299  0.1553  0.8338
15343TIP3   OH267443   6.482   6.606   2.084 -0.3839 -0.5099  0.2644
15343TIP3    H167444   6.416   6.653   2.134 -1.4219 -0.0105 -1.5120
15343TIP3    H267445   6.551   6.671   2.068 -0.6604 -0.2914 -0.0545
15344TIP3   OH267446   1.838   3.500  16.506  0.4739  0.6007  0.0540
15344TIP3    H167447   1.880   3.550  16.577  1.4143  0.5565 -0.4590
15344TIP3    H267448   1.903   3.500  16.436 -0.3315  0.3805 -0.6965
15345TIP3   OH267449   1.666   5.259   4.432 -0.6465  0.4270  0.4808
15345TIP3    H167450   1.669   5.317   4.355  0.1158 -1.2787 -0.8528
15345TIP3    H267451   1.628   5.178   4.399  1.9969 -1.2471  1.2014
15346TIP3   OH267452   5.897   1.473   5.016 -0.0068 -0.7294  0.1208
15346TIP3    H167453   5.876   1.527   4.940  0.0124 -1.0621 -0.1189
15346TIP3    H267454   5.993   1.470   5.017 -0.0268 -2.1190 -0.8220
15347TIP3   OH267455   1.994   2.962  13.997  0.5457  0.2907 -0.1549
15347TIP3    H167456   1.997   2.919  13.911 -0.2731  0.0589 -0.0771
15347TIP3    H267457   2.033   2.899  14.057 -1.5590 -0.8115  0.1311
15348TIP3   OH267458   4.444   0.702  12.547 -0.1715  0.2820  0.1695
15348TIP3    H167459   4.503   0.761  12.500  1.0272 -0.6803  0.4152
15348TIP3    H267460   4.494   0.674  12.624 -2.0221  1.6961  2.0063
15349TIP3   OH267461   4.673   1.329  16.067 -0.3168 -0.0660 -0.3046
15349TIP3    H167462   4.723   1.380  16.004 -2.7010  1.7418 -0.8733
15349TIP3    H267463   4.697   1.365  16.152 -2.2690  2.4752 -0.7211
15350TIP3   OH267464   6.024   3.350   0.524  0.1601  0.4057 -0.6353
15350TIP3    H167465   5.976   3.267   0.522  0.4232  0.2511 -0.5473
15350TIP3    H267466   6.106   3.330   0.570 -0.6952  1.1916  1.3662
15351TIP3   OH267467   5.315   1.753   5.035 -0.2499 -0.0296  0.6178
15351TIP3    H167468   5.272   1.765   5.120 -0.6482  0.5913  0.3408
15351TIP3    H267469   5.305   1.838   4.992  2.7271  0.6969  1.1893
15352TIP3   OH267470   5.919   4.025   6.186  0.8065  0.3014 -0.0536
15352TIP3    H167471   5.969   4.000   6.263 -1.7714  1.5697  2.1802
15352TIP3    H267472   5.828   4.011   6.210 -0.1622  1.4933 -2.5991
15353TIP3   OH267473   4.851   1.083   5.541  0.7530 -0.3193  0.4945
15353TIP3    H167474   4.892   1.051   5.621 -1.9243 -1.7973  1.3978
15353TIP3    H267475   4.757   1.076   5.557  0.0897 -0.5873 -2.7207
15354TIP3   OH267476   2.072   0.368   4.667  0.2027 -0.0357 -0.5852
15354TIP3    H167477   1.988   0.369   4.714  2.1552 -1.6884  3.3922
15354TIP3    H267478   2.100   0.460   4.668 -0.8059  0.2898 -0.5032
15355TIP3   OH267479   4.765   3.991  13.331 -0.0830  0.1188  0.3465
15355TIP3    H167480   4.803   4.044  13.401 -0.7261 -0.7148  1.3529
15355TIP3    H267481   4.839   3.941  13.296  0.2878  0.7331  0.2256
15356TIP3   OH267482   3.217   5.043   6.091 -0.5949  0.2387  0.5334
15356TIP3    H167483   3.255   5.016   6.175 -1.4638 -1.3982  0.4514
15356TIP3    H267484   3.134   5.083   6.114 -0.2810  0.9211  0.5113
15357TIP3   OH267485   3.875   4.096   1.190 -0.2783 -0.4304  0.3371
15357TIP3    H167486   3.827   4.119   1.111  0.8561 -0.5195 -0.4007
15357TIP3    H267487   3.836   4.013   1.218  0.0692 -0.9900 -0.7855
15358TIP3   OH267488   4.953   3.871  15.474  0.5420 -0.0522 -0.2147
15358TIP3    H167489   5.046   3.879  15.453  0.7679 -0.1709  0.6840
15358TIP3    H267490   4.923   3.962  15.485  0.0457  0.1127 -2.4740
15359TIP3   OH267491   3.095   4.961  13.199 -0.9231 -0.7036  0.3253
15359TIP3    H167492   3.092   4.865  13.202 -2.8881 -0.6799  2.4058
15359TIP3    H267493   3.019   4.988  13.251  0.4806  1.9966  1.1376
15360TIP3   OH267494   6.630   6.399   2.236 -0.2606 -0.3568  0.5235
15360TIP3    H167495   6.575   6.470   2.202  1.0533  0.0612 -0.8100
15360TIP3    H267496   6.710   6.443   2.266  0.0745 -1.1534  0.8111
15361TIP3   OH267497   6.085   6.088   5.089  0.1792  0.1541  0.2754
15361TIP3    H167498   6.086   6.018   5.154  1.6935  0.2953  0.4591
15361TIP3    H267499   6.156   6.066   5.029 -1.7549 -0.4536 -1.9304
15362TIP3   OH267500   2.610   5.400  10.351 -0.2876 -1.0454  0.1634
15362TIP3    H167501   2.702   5.420  10.335 -0.6739  0.3455 -0.4944
15362TIP3    H267502   2.567   5.486  10.353 -1.6469 -1.6953 -0.1196
15363TIP3   OH267503   3.679   6.495  15.309 -0.3694  0.1967  0.2345
15363TIP3    H167504   3.702   6.562  15.245  0.5679  0.9159  1.2819
15363TIP3    H267505   3.699   6.535  15.394 -1.2654 -0.8456  0.9677
15364TIP3   OH267506   4.265   2.375   2.472  0.1116  0.1735  0.0241
15364TIP3    H167507   4.246   2.392   2.564 -0.4058  2.6569 -0.4734
15364TIP3    H267508   4.195   2.419   2.424  1.5441  0.7975 -1.6067
15365TIP3   OH267509   1.436   6.319  14.804 -0.0309  0.2262 -0.4109
15365TIP3    H167510   1.478   6.265  14.871 -0.4179  1.0970  0.5665
15365TIP3    H267511   1.366   6.265  14.768  0.1781 -0.2472 -0.1049
15366TIP3   OH267512   1.571   1.996   3.066  0.0882  0.4123  0.1603
15366TIP3    H167513   1.511   2.068   3.087 -0.4321  0.9102 -2.5911
15366TIP3    H267514   1.513   1.922   3.048  0.5075 -0.0831  0.8393
15367TIP3   OH267515   0.595   1.335   2.359  0.1875 -0.1767 -0.5223
15367TIP3    H167516   0.567   1.306   2.446  0.9584  1.3369  0.2653
15367TIP3    H267517   0.622   1.255   2.314 -0.3107 -0.9910  0.5939
15368TIP3   OH267518   0.080   2.835   3.562 -0.3842 -0.1274 -0.1159
15368TIP3    H167519   0.063   2.848   3.655 -0.2638  0.1041 -0.1278
15368TIP3    H267520   0.087   2.740   3.553 -2.9212 -0.3655 -0.3193
15369TIP3   OH267521   6.605   2.680  15.252  0.0328  0.0821  0.5106
15369TIP3    H167522   6.586   2.769  15.222 -0.2839  0.0932  0.7472
15369TIP3    H267523   6.627   2.689  15.344 -1.4342 -0.2518  0.9266
15370TIP3   OH267524   0.250   2.007  12.919  0.3171 -0.0713 -0.2816
15370TIP3    H167525   0.216   1.929  12.963 -0.5209 -0.5528 -1.7194
15370TIP3    H267526   0.224   1.997  12.828 -0.8171  2.4163 -0.3326
15371TIP3   OH267527   2.914   4.864  11.066 -0.3569 -0.1371 -0.3295
15371TIP3    H167528   2.819   4.866  11.082  0.0088 -0.4469  2.3894
15371TIP3    H267529   2.946   4.793  11.121  1.6810  1.2209  0.3756
15372TIP3   OH267530   2.216   1.967   2.795  0.4498 -0.6671 -0.0622
15372TIP3    H167531   2.153   1.901   2.766 -0.1864  0.0109 -0.2702
15372TIP3    H267532   2.181   2.050   2.762  1.5425 -0.2859 -0.3115
15373TIP3   OH267533   5.932   3.636   4.772 -0.2176  0.2410  0.4238
15373TIP3    H167534   5.965   3.685   4.846 -1.3880 -0.1345  1.2202
15373TIP3    H267535   5.840   3.662   4.764 -0.1172  0.2951 -0.9156
15374TIP3   OH267536   4.529   0.487  13.796  0.2539 -0.4052 -0.3722
15374TIP3    H167537   4.436   0.492  13.818  0.3546 -0.4585  0.0740
15374TIP3    H267538   4.566   0.428  13.862  0.7820  0.3710  0.0455
15375TIP3   OH267539   4.160   3.830   2.365 -0.3641  0.0550  0.0250
15375TIP3    H167540   4.127   3.908   2.321  0.0703  0.5620  0.5905
15375TIP3    H267541   4.110   3.825   2.447  1.6230  1.4372  1.4156
15376TIP3   OH267542   6.213   4.733   0.319  0.3383  0.1005 -0.0246
15376TIP3    H167543   6.142   4.795   0.336  0.4418  0.6851 -1.4965
15376TIP3    H267544   6.199   4.662   0.381 -1.3613  0.3483 -0.0689
15377TIP3   OH267545   2.178   2.826  11.981  0.0612  0.0152  0.2772
15377TIP3    H167546   2.254   2.835  11.924 -0.0360 -0.1777  0.1177
15377TIP3    H267547   2.174   2.733  12.001 -1.6289 -0.4136 -1.7747
15378TIP3   OH267548   0.389   0.496   0.351  0.8390 -0.0579  0.6202
15378TIP3    H167549   0.435   0.545   0.419 -1.0354  0.7456  1.4068
15378TIP3    H267550   0.367   0.413   0.392  1.1045 -0.2157  0.4421
15379TIP3   OH267551   5.449   1.658   1.156 -0.5170 -0.3412 -0.5080
15379TIP3    H167552   5.484   1.610   1.081  0.5148 -1.0993  0.4271
15379TIP3    H267553   5.515   1.725   1.174 -0.7514 -0.1755 -0.2596
15380TIP3   OH267554   2.548   6.479   1.734 -0.3611 -0.4863  0.0636
15380TIP3    H167555   2.477   6.439   1.684 -0.2765 -0.8618  0.2376
15380TIP3    H267556   2.601   6.524   1.669 -1.2547  0.5745  0.0354
15381TIP3   OH267557   2.367   5.959  12.206 -0.4488  0.1863  0.3893
15381TIP3    H167558   2.410   5.883  12.167 -1.3350 -0.3012  0.3626
15381TIP3    H267559   2.298   5.983  12.144  0.1216  1.3189  0.1525
15382TIP3   OH267560   1.938   4.362   5.457 -0.4201  0.3091 -0.6074
15382TIP3    H167561   1.849   4.377   5.488 -0.0402  0.2311  0.5670
15382TIP3    H267562   1.950   4.267   5.462 -0.1129  0.3602 -0.2794
15383TIP3   OH267563   2.897   1.770   2.732 -0.2087  0.3957  0.4220
15383TIP3    H167564   2.852   1.809   2.656 -2.0975 -1.9246  0.2148
15383TIP3    H267565   2.842   1.696   2.756  2.1517 -0.9684  1.9759
15384TIP3   OH267566   4.178   2.060  17.178 -0.0378  0.3131 -0.2427
15384TIP3    H167567   4.219   2.132  17.227 -0.5518  0.7994 -0.5256
15384TIP3    H267568   4.208   2.072  17.088 -2.1750  1.7314 -0.8277
15385TIP3   OH267569   0.946   0.582   5.559 -0.3852  0.5909 -0.1023
15385TIP3    H167570   1.007   0.568   5.631 -1.2575  0.2835  0.5880
15385TIP3    H267571   0.886   0.508   5.563 -0.0814  0.2318 -1.5445
15386TIP3   OH267572   4.851   6.043  11.138 -0.2975 -0.4460  0.4374
15386TIP3    H167573   4.849   5.956  11.179 -2.8428 -0.3044  0.7928
15386TIP3    H267574   4.873   6.026  11.046  2.3683 -1.0810  1.1184
15387TIP3   OH267575   0.440   4.403   1.319  0.2379 -0.1450  0.4092
15387TIP3    H167576   0.477   4.464   1.256 -0.4944 -0.8914 -0.7771
15387TIP3    H267577   0.398   4.335   1.266 -0.8955 -0.4954  1.6848
15388TIP3   OH267578   3.306   2.322  13.838 -0.1364  0.1419 -0.2794
15388TIP3    H167579   3.338   2.299  13.925  1.2331  0.0589 -0.7801
15388TIP3    H267580   3.366   2.391  13.808 -1.2513  0.9381 -0.7258
15389TIP3   OH267581   0.871   2.885  10.382  0.0482 -0.1969  0.5936
15389TIP3    H167582   0.899   2.977  10.384 -1.9243  0.4499  1.2619
15389TIP3    H267583   0.949   2.836  10.408  1.0828  1.2977  0.4790
15390TIP3   OH267584   1.285   3.065   3.767 -0.0837 -0.0434  0.0544
15390TIP3    H167585   1.332   3.014   3.701 -1.5845 -0.6911 -0.5637
15390TIP3    H267586   1.295   3.156   3.738 -0.5792 -0.3079 -0.9926
15391TIP3   OH267587   5.102   2.867  12.461  0.6173  0.4912  0.0052
15391TIP3    H167588   5.163   2.939  12.470 -0.3944  1.3368  0.3664
15391TIP3    H267589   5.155   2.794  12.430  2.1418  0.6839  1.9254
15392TIP3   OH267590   3.192   6.555   1.529  0.3367  0.4562  0.3708
15392TIP3    H167591   3.266   6.613   1.544  0.8942 -0.5101  1.5373
15392TIP3    H267592   3.213   6.476   1.579  1.0919 -2.0494 -3.4625
15393TIP3   OH267593   5.756   2.462  11.465  0.4972  0.1100 -0.0003
15393TIP3    H167594   5.663   2.483  11.468  0.1139 -1.4930  0.1357
15393TIP3    H267595   5.796   2.520  11.530 -0.3981  0.7870 -0.0366
15394TIP3   OH267596   3.334   6.434  17.180 -0.5759 -0.0775 -0.7674
15394TIP3    H167597   3.410   6.448  17.124 -0.4261 -0.1455 -0.5857
15394TIP3    H267598   3.339   6.503  17.246 -2.6366  2.1613 -2.7582
15395TIP3   OH267599   1.324   4.623  11.963 -0.3772 -0.1416 -0.1647
15395TIP3    H167600   1.263   4.670  11.906 -0.9653 -1.2796 -0.5064
15395TIP3    H267601   1.279   4.618  12.048  0.1945  0.9237  0.2246
15396TIP3   OH267602   0.956   1.570   1.772  0.0715 -0.3897  0.5170
15396TIP3    H167603   0.908   1.516   1.709  0.8114  0.1002 -0.5021
15396TIP3    H267604   0.895   1.581   1.845 -1.0079 -0.5853 -0.3130
15397TIP3   OH267605   2.093   0.183  14.332  0.5904 -0.2209  0.6558
15397TIP3    H167606   2.133   0.133  14.260  0.0058  0.7635 -0.3878
15397TIP3    H267607   2.007   0.143  14.344  1.0460 -0.9869  1.4663
15398TIP3   OH267608   6.316   1.753   3.789 -0.3648 -0.3556 -0.7161
15398TIP3    H167609   6.307   1.684   3.856  0.3693  2.4293  2.5452
15398TIP3    H267610   6.234   1.801   3.793 -0.0045  0.3126 -1.2428
15399TIP3   OH267611   4.425   2.473   4.275  0.4864  0.6707  0.3498
15399TIP3    H167612   4.511   2.445   4.308  0.0669  0.7510  1.5439
15399TIP3    H267613   4.436   2.474   4.180  1.1275 -1.5549  0.3567
15400TIP3   OH267614   0.841   3.888  14.584 -0.1028  0.7023  0.1993
15400TIP3    H167615   0.779   3.925  14.646 -0.5899 -1.1215  0.8689
15400TIP3    H267616   0.832   3.942  14.505 -0.9815  1.7742  1.0085
15401TIP3   OH267617   3.326   4.182   5.993  0.8995  0.4877 -0.0196
15401TIP3    H167618   3.365   4.123   5.928  0.3021 -0.0242  0.0699
15401TIP3    H267619   3.242   4.140   6.015  0.5670  1.2641  0.2117
15402TIP3   OH267620   2.330   0.707  16.998  0.5375 -0.0851 -0.5155
15402TIP3    H167621   2.395   0.767  16.960  1.4459 -0.3786  0.5458
15402TIP3    H267622   2.297   0.753  17.075  1.7323 -1.1800  0.7003
15403TIP3   OH267623   3.808   3.617   1.508 -0.6199  0.1581 -0.0782
15403TIP3    H167624   3.727   3.666   1.521  0.1681  1.2140  1.0423
15403TIP3    H267625   3.798   3.539   1.563 -0.2408  1.0948  1.3848
15404TIP3   OH267626   1.372   6.155  14.383 -0.6981  0.2146 -0.0109
15404TIP3    H167627   1.387   6.078  14.329 -2.5957 -0.8452  0.8844
15404TIP3    H267628   1.332   6.122  14.463 -0.1052  1.9831  1.0956
15405TIP3   OH267629   0.268   0.050   4.148 -0.3183  0.3886  0.0759
15405TIP3    H167630   0.257  -0.035   4.190 -0.7629  0.3329 -0.1453
15405TIP3    H267631   0.211   0.047   4.072 -0.1360  0.7891 -0.0804
15406TIP3   OH267632   0.016   5.825  12.314 -0.3384 -0.1925 -0.2003
15406TIP3    H167633   0.024   5.897  12.251 -3.2971  0.6470  0.1879
15406TIP3    H267634   0.104   5.788  12.320  0.9383  2.2992 -1.7016
15407TIP3   OH267635   4.497   6.088   0.180 -0.8387  0.0839 -0.0639
15407TIP3    H167636   4.462   6.148   0.114 -2.8484 -1.5605 -0.6056
15407TIP3    H267637   4.447   6.108   0.259  1.0766  1.5668  0.8549
15408TIP3   OH267638   3.400   0.208  16.279  0.0150  0.0696 -0.2391
15408TIP3    H167639   3.351   0.238  16.355  0.9284  0.9591  0.0165
15408TIP3    H267640   3.337   0.157  16.228 -1.2193  1.3424 -0.0256
15409TIP3   OH267641   3.946   6.108  16.019  0.1103  0.0555  0.6766
15409TIP3    H167642   4.018   6.161  16.051  0.4688 -0.2175  0.3257
15409TIP3    H267643   3.981   6.061  15.944 -0.3823 -0.2072  0.6015
15410TIP3   OH267644   0.513   1.782   0.760 -0.0447 -0.5848 -0.3707
15410TIP3    H167645   0.502   1.688   0.774 -0.0874 -0.4132  0.8010
15410TIP3    H267646   0.472   1.798   0.675 -0.5171 -1.5357 -0.3353
15411TIP3   OH267647   3.507   2.413   2.867  0.0822  0.0432  0.1418
15411TIP3    H167648   3.591   2.445   2.897 -0.2337 -0.4076  1.5828
15411TIP3    H267649   3.450   2.490   2.867  0.6804  0.5458 -1.7339
15412TIP3   OH267650   5.351   2.965  14.193  0.6204  0.0872  0.3352
15412TIP3    H167651   5.356   2.876  14.226  0.9625 -0.3957 -0.9502
15412TIP3    H267652   5.311   3.016  14.264  1.0561 -0.9461  1.3399
15413TIP3   OH267653   0.738   5.232  15.497  0.4266  0.5282 -0.4265
15413TIP3    H167654   0.701   5.245  15.584  0.9219  0.7671 -0.2495
15413TIP3    H267655   0.823   5.275  15.500  0.5892  0.2531 -0.9279
15414TIP3   OH267656   0.165   1.858  11.406 -0.0364 -0.0293 -0.1861
15414TIP3    H167657   0.177   1.771  11.368 -0.4361 -0.3245  0.3449
15414TIP3    H267658   0.250   1.881  11.443 -0.2132 -0.6897  0.6681
15415TIP3   OH267659   6.731   6.153   6.087  0.1069  0.8590 -0.9363
15415TIP3    H167660   6.672   6.208   6.139 -1.3105  1.0015 -2.5962
15415TIP3    H267661   6.804   6.210   6.066  1.4828  0.3777  2.0393
15416TIP3   OH267662   2.312   3.978  16.483  0.6228  0.1477  0.7700
15416TIP3    H167663   2.399   3.997  16.448  0.0158  2.7676  0.4397
15416TIP3    H267664   2.268   3.930  16.412  1.7901 -1.3187  0.9948
15417TIP3   OH267665   4.110   2.471   4.669  0.1620  0.1094  0.2320
15417TIP3    H167666   4.049   2.421   4.724 -0.2180 -0.8034 -0.9687
15417TIP3    H267667   4.127   2.414   4.594 -1.3907  2.2585 -1.9405
15418TIP3   OH267668   2.272   2.141   4.345  0.2190  1.0767 -0.1806
15418TIP3    H167669   2.199   2.086   4.317  1.8484 -2.7491  2.1499
15418TIP3    H267670   2.304   2.181   4.265 -0.7354 -2.0663 -2.3501
15419TIP3   OH267671   0.188   5.079   4.981 -0.3049 -0.3676  0.7236
15419TIP3    H167672   0.197   5.140   5.054  1.7641 -0.4384  0.5924
15419TIP3    H267673   0.262   5.018   4.991  1.5493  1.0523 -2.6999
15420TIP3   OH267674   4.067   4.539   3.420 -0.0924 -0.2139  0.1196
15420TIP3    H167675   4.095   4.509   3.506  1.3780 -2.6645 -1.0890
15420TIP3    H267676   3.978   4.503   3.410  0.9675 -2.9156 -0.5799
15421TIP3   OH267677   1.370   3.987  12.233  0.3456  0.0639 -0.1083
15421TIP3    H167678   1.381   3.893  12.222  1.2712  0.3583 -2.2963
15421TIP3    H267679   1.305   4.011  12.167  0.7837  1.0727 -0.1879
15422TIP3   OH267680   0.901   5.052  11.736  0.2966  0.2982 -0.1147
15422TIP3    H167681   0.911   5.040  11.830 -1.2714 -2.8491 -0.2060
15422TIP3    H267682   0.815   5.093  11.726 -0.4236 -1.1566 -0.1642
15423TIP3   OH267683   2.945   4.284   0.792  0.7471 -0.0227 -0.0466
15423TIP3    H167684   2.955   4.237   0.710  0.6045 -0.6174  0.2682
15423TIP3    H267685   2.957   4.217   0.860  0.2377  0.3386  0.4091
15424TIP3   OH267686   0.586   2.794   5.810 -0.7373  0.1848 -0.0072
15424TIP3    H167687   0.585   2.786   5.715  2.0405 -2.3933  0.0387
15424TIP3    H267688   0.650   2.863   5.827  0.5075 -0.9201 -0.0478
15425TIP3   OH267689   6.752   3.936  13.286 -0.2222 -0.4849 -0.1644
15425TIP3    H167690   6.674   3.893  13.320 -0.7853 -0.8482 -1.8097
15425TIP3    H267691   6.768   3.894  13.201  0.9961  0.4699 -0.4444
15426TIP3   OH267692   3.179   3.745   1.721 -0.2367  0.2461  0.8703
15426TIP3    H167693   3.217   3.826   1.686 -2.3424  0.3277 -1.4997
15426TIP3    H267694   3.124   3.774   1.794 -0.4482  0.8621  0.4750
15427TIP3   OH267695   0.610   4.748  11.080 -0.0293 -0.1629 -0.2368
15427TIP3    H167696   0.631   4.666  11.035 -1.0155 -0.4385 -0.2009
15427TIP3    H267697   0.584   4.808  11.010  0.3598  0.0225 -0.2270
15428TIP3   OH267698   6.513   0.185  11.311 -0.0269  0.0880  0.2906
15428TIP3    H167699   6.584   0.129  11.343 -1.5626 -1.6552  0.8486
15428TIP3    H267700   6.499   0.155  11.221  0.0782  0.5644  0.1156
15429TIP3   OH267701   0.902   1.555  13.431  0.2967  0.1477  0.4993
15429TIP3    H167702   0.850   1.617  13.379 -0.2633 -0.1336  0.7148
15429TIP3    H267703   0.920   1.601  13.513  1.5041  0.7364 -0.0740
15430TIP3   OH267704   3.071   4.674  11.308  0.5652  0.2914  0.1351
15430TIP3    H167705   3.165   4.672  11.294  0.2332  2.1997 -3.8645
15430TIP3    H267706   3.052   4.764  11.334 -0.1892 -0.0816  0.9320
15431TIP3   OH267707   6.426   0.540   3.788 -0.5503 -0.7307 -0.3336
15431TIP3    H167708   6.493   0.500   3.843  0.3668  0.4471 -0.5355
15431TIP3    H267709   6.365   0.581   3.849  1.6063  2.4155 -0.0643
15432TIP3   OH267710   5.741   3.789   2.287 -0.2490 -0.1259 -0.3473
15432TIP3    H167711   5.747   3.709   2.235  1.2472  0.5083 -1.2401
15432TIP3    H267712   5.689   3.765   2.364  0.8276 -2.1766 -0.1945
15433TIP3   OH267713   0.546   2.508   5.153  0.8610  0.0388  0.0650
15433TIP3    H167714   0.591   2.441   5.204  2.7610  0.5062 -0.8985
15433TIP3    H267715   0.550   2.586   5.207  0.4740 -0.1262  0.3310
15434TIP3   OH267716   5.469   3.707  16.895 -0.3979 -0.2968 -0.2525
15434TIP3    H167717   5.477   3.799  16.869  1.5629 -0.9642 -2.2625
15434TIP3    H267718   5.556   3.683  16.926 -0.6114 -1.7291 -0.7015
15435TIP3   OH267719   0.695   0.829  15.208 -0.4235  0.7222 -0.0870
15435TIP3    H167720   0.691   0.851  15.115 -1.4244  1.2359  0.0617
15435TIP3    H267721   0.628   0.762  15.220 -0.3854  0.7476  0.2868
15436TIP3   OH267722   1.286   6.068   1.985 -0.1987  0.0682  0.2041
15436TIP3    H167723   1.298   6.132   2.056 -0.2502 -1.1192  1.3350
15436TIP3    H267724   1.337   5.992   2.013  0.4058 -0.1689 -1.4282
15437TIP3   OH267725   5.312   4.103  14.775 -0.0287 -0.1805 -0.2491
15437TIP3    H167726   5.306   4.009  14.792 -0.0342 -0.1743 -0.2153
15437TIP3    H267727   5.245   4.142  14.831  1.6874  0.0809  1.7505
15438TIP3   OH267728   0.293   1.343  13.854 -0.7475  0.1950 -0.1057
15438TIP3    H167729   0.352   1.268  13.855 -0.8346 -0.0070 -2.8677
15438TIP3    H267730   0.212   1.310  13.895 -1.4123 -1.8826 -2.8389
15439TIP3   OH267731   5.192   3.409   1.342 -0.0710 -0.4500 -1.1593
15439TIP3    H167732   5.159   3.419   1.432  0.5657  0.5981 -1.0200
15439TIP3    H267733   5.113   3.411   1.288 -0.4538 -0.9614 -0.6335
15440TIP3   OH267734   3.161   5.529   0.526  0.2005 -0.1471  0.0761
15440TIP3    H167735   3.176   5.547   0.619 -0.1781 -0.4571  0.2033
15440TIP3    H267736   3.177   5.435   0.517  2.3209  0.2357 -0.6149
15441TIP3   OH267737   0.263   2.254  13.541  0.3056  0.0209 -0.0420
15441TIP3    H167738   0.256   2.265  13.446  2.2179 -0.7926 -0.3296
15441TIP3    H267739   0.317   2.328  13.570  1.9454 -1.1245 -0.0246
15442TIP3   OH267740   1.555   0.690   1.463 -0.5836  0.1811 -0.5501
15442TIP3    H167741   1.582   0.605   1.427 -0.3238  0.1519 -0.2858
15442TIP3    H267742   1.586   0.754   1.399 -1.2289  0.0519 -1.0128
15443TIP3   OH267743   0.444   2.472  12.099  0.5131 -0.6264 -0.7406
15443TIP3    H167744   0.367   2.416  12.108  0.1740 -0.1312 -0.5144
15443TIP3    H267745   0.478   2.453  12.011  0.8544 -1.7466 -0.3711
15444TIP3   OH267746   4.972   0.741   6.061  0.1747  0.3525 -0.5861
15444TIP3    H167747   5.014   0.678   6.003 -1.5036 -1.2748 -0.1291
15444TIP3    H267748   5.007   0.826   6.034  0.1751 -0.4263 -3.3232
15445TIP3   OH267749   1.460   0.891   3.665 -0.6352 -0.0783  0.6275
15445TIP3    H167750   1.495   0.975   3.694 -1.5209  0.2678  0.7198
15445TIP3    H267751   1.509   0.826   3.716  1.0625  0.2805 -0.4635
15446TIP3   OH267752   2.197   1.686   1.774 -0.5174  0.5438 -0.2711
15446TIP3    H167753   2.284   1.708   1.740 -0.2484 -3.0158 -2.4386
15446TIP3    H267754   2.136   1.723   1.710 -0.6682  2.6089  0.9857
15447TIP3   OH267755   3.699   5.314   6.683  0.3407  0.3709 -0.1115
15447TIP3    H167756   3.756   5.352   6.616  2.0607  2.0675  2.1714
15447TIP3    H267757   3.636   5.383   6.703  1.7155  1.0987  2.0478
15448TIP3   OH267758   2.616   0.069   1.642  0.5140  0.3469 -0.2200
15448TIP3    H167759   2.548   0.003   1.632  0.3787  0.3953  0.3662
15448TIP3    H267760   2.630   0.076   1.737  1.3701  0.2970 -0.3294
15449TIP3   OH267761   0.782   0.132  15.968 -0.5967 -0.1397  0.5383
15449TIP3    H167762   0.843   0.080  16.022 -0.4792  0.3478  0.8853
15449TIP3    H267763   0.801   0.223  15.992  0.1458  0.1620 -1.0497
15450TIP3   OH267764   4.384   5.569  12.135  0.3376  0.0259  0.1093
15450TIP3    H167765   4.478   5.572  12.149  0.2377 -1.6693  1.4620
15450TIP3    H267766   4.359   5.659  12.115  2.1292  0.6194  0.4236
15451TIP3   OH267767   4.239   3.967   2.703  0.6154  0.3170 -0.2546
15451TIP3    H167768   4.155   3.942   2.741  0.6378  2.3822  1.3448
15451TIP3    H267769   4.222   4.051   2.661  1.3116 -0.5045 -2.3200
15452TIP3   OH267770   6.236   3.804   0.611  0.3556 -0.0708  0.3989
15452TIP3    H167771   6.157   3.763   0.645  1.0336 -1.0431  0.8652
15452TIP3    H267772   6.269   3.741   0.546 -0.3699  1.2871 -1.3642
15453TIP3   OH267773   2.968   2.708  11.889 -0.2864  0.7478 -0.1978
15453TIP3    H167774   2.941   2.799  11.896 -0.1434  0.7156  0.8823
15453TIP3    H267775   2.889   2.661  11.862 -0.3796  1.1693 -0.6704
15454TIP3   OH267776   5.059   0.282  16.580 -0.3775 -0.3695  0.3277
15454TIP3    H167777   5.116   0.344  16.626  1.2291 -2.5195  1.4289
15454TIP3    H267778   5.064   0.308  16.488  0.5659  0.8709  0.6964
15455TIP3   OH267779   3.297   6.602   3.200  0.2896  0.3652 -0.1209
15455TIP3    H167780   3.278   6.529   3.260  0.9021  0.6665  0.4580
15455TIP3    H267781   3.298   6.679   3.257  0.0030  0.7860 -0.6732
15456TIP3   OH267782   6.007   2.580   5.723  0.2163  0.6332 -0.3282
15456TIP3    H167783   6.036   2.632   5.798  0.1188  0.4084 -0.1344
15456TIP3    H267784   6.063   2.502   5.725  0.0226  0.4938 -0.3215
15457TIP3   OH267785   3.253   6.229  16.399  0.1904 -0.2155  0.3086
15457TIP3    H167786   3.319   6.185  16.346  0.5305  1.3172 -0.5857
15457TIP3    H267787   3.302   6.261  16.475 -0.2273 -2.0868  1.4308
15458TIP3   OH267788   4.039   2.454   2.332  0.0028 -0.1370  0.6520
15458TIP3    H167789   4.009   2.396   2.402  0.9300 -0.2815  0.9531
15458TIP3    H267790   3.990   2.427   2.254 -0.5547 -0.4155  1.1016
15459TIP3   OH267791   5.319   6.385  17.083  0.4339 -0.1614 -0.1986
15459TIP3    H167792   5.296   6.293  17.095 -0.1347 -0.1167 -0.8757
15459TIP3    H267793   5.415   6.386  17.089  0.3909 -0.6586  0.6655
15460TIP3   OH267794   3.658   2.787  13.804 -0.0652 -0.5228 -0.0611
15460TIP3    H167795   3.727   2.852  13.790 -0.1000 -0.2647  0.9412
15460TIP3    H267796   3.609   2.819  13.879 -1.9721 -0.1269 -1.3854
15461TIP3   OH267797   2.590   2.977   0.704  0.0061  0.7122  0.1500
15461TIP3    H167798   2.666   3.032   0.722  0.5297  0.3112 -0.8132
15461TIP3    H267799   2.515   3.031   0.730  0.6550  0.2675  3.3148
15462TIP3   OH267800   3.148   4.858  14.266  0.4909  0.2438 -0.1237
15462TIP3    H167801   3.078   4.810  14.310  0.9632  0.1817  0.5809
15462TIP3    H267802   3.144   4.828  14.175  0.2487 -0.5190  0.1272
15463TIP3   OH267803   5.049   1.274  12.642  0.2510  0.0009  0.2375
15463TIP3    H167804   5.137   1.282  12.680 -0.2602  0.8899  1.2831
15463TIP3    H267805   4.992   1.320  12.703 -0.9790 -0.6851 -0.3575
15464TIP3   OH267806   4.215   5.245  17.161  0.5463 -0.3552  0.4508
15464TIP3    H167807   4.135   5.191  17.156  0.4207 -0.0345 -1.7619
15464TIP3    H267808   4.198   5.305  17.234 -1.4533 -0.0195 -0.2171
15465TIP3   OH267809   5.038   2.312  10.950  0.3616  0.4374  0.3518
15465TIP3    H167810   4.963   2.263  10.983  0.1871  0.0446 -0.6104
15465TIP3    H267811   5.001   2.369  10.883  0.7466  1.0871  0.6820
15466TIP3   OH267812   0.159   1.226  16.291  0.2465 -0.6306 -0.3472
15466TIP3    H167813   0.097   1.246  16.221  0.3160  0.1308 -0.2045
15466TIP3    H267814   0.243   1.213  16.245 -0.0668 -1.9960 -0.5732
15467TIP3   OH267815   4.965   5.736  15.641 -0.5589 -0.5350 -0.2328
15467TIP3    H167816   5.019   5.750  15.564  1.3117 -1.2256  0.8863
15467TIP3    H267817   4.972   5.819  15.690 -2.8616  0.4273 -1.3751
15468TIP3   OH267818   6.292   0.412   2.052  0.1689 -0.0391  0.4623
15468TIP3    H167819   6.317   0.470   2.124  0.8667 -1.1903  1.1609
15468TIP3    H267820   6.332   0.452   1.975  1.7711 -0.2721  1.1358
15469TIP3   OH267821   1.223   4.126   5.688 -0.0705  0.6096 -0.0918
15469TIP3    H167822   1.229   4.158   5.778 -0.5073  0.6085 -0.0636
15469TIP3    H267823   1.300   4.165   5.644  0.4619  0.1471  0.4160
15470TIP3   OH267824   5.669   3.769   0.882  0.7738  0.8742 -0.0899
15470TIP3    H167825   5.749   3.802   0.924  1.3079 -0.7133  0.2349
15470TIP3    H267826   5.600   3.787   0.946  0.5549  3.4955 -0.9355
15471TIP3   OH267827   0.777   3.491  11.933  0.0569  0.2149 -0.0966
15471TIP3    H167828   0.831   3.501  11.855  0.8873  3.5213  0.7497
15471TIP3    H267829   0.832   3.443  11.995 -0.5887 -2.3803 -1.3890
15472TIP3   OH267830   3.299   2.425   4.209  0.2062 -0.5256  0.2636
15472TIP3    H167831   3.373   2.428   4.270  0.6780  0.0004 -0.3237
15472TIP3    H267832   3.339   2.430   4.122 -0.4341 -1.6434 -0.1169
15473TIP3   OH267833   0.498   5.030   4.030  0.2677  0.3919  0.1404
15473TIP3    H167834   0.554   5.071   4.095  1.5978 -0.8367 -0.1825
15473TIP3    H267835   0.459   5.104   3.982 -0.0390  1.2916  1.7064
15474TIP3   OH267836   5.339   5.578   5.001  0.4916  0.8270 -0.2529
15474TIP3    H167837   5.388   5.656   5.028  1.0615  0.4101 -0.0557
15474TIP3    H267838   5.272   5.568   5.068  0.7981  0.8034  0.0536
15475TIP3   OH267839   3.184   1.400  16.774 -0.2229 -1.0839  0.2230
15475TIP3    H167840   3.129   1.342  16.826  0.1361  0.5235  2.5358
15475TIP3    H267841   3.268   1.402  16.820 -0.8906  2.9229  1.6795
15476TIP3   OH267842   1.508   1.053   1.023 -0.3578 -0.1250 -0.4239
15476TIP3    H167843   1.462   1.114   1.080  1.3473 -0.4593  1.4347
15476TIP3    H267844   1.598   1.088   1.019 -0.1833 -0.6630 -2.1497
15477TIP3   OH267845   6.500   1.713   0.961 -0.1898 -0.6606  0.0376
15477TIP3    H167846   6.553   1.771   1.015 -1.2580 -0.4702  0.9279
15477TIP3    H267847   6.536   1.626   0.977  1.1845 -0.3243 -1.0206
15478TIP3   OH267848   0.443   1.735   1.799  0.1001 -0.3305 -0.1194
15478TIP3    H167849   0.434   1.828   1.777  1.4733 -0.3862 -1.0024
15478TIP3    H267850   0.446   1.733   1.895  2.4965  0.8191 -0.1132
15479TIP3   OH267851   2.013   2.122   3.961 -0.8526  0.3384  0.1607
15479TIP3    H167852   2.034   2.089   3.873 -2.2973 -1.6178  0.4699
15479TIP3    H267853   2.001   2.216   3.949 -0.8490  0.1450 -1.7100
15480TIP3   OH267854   4.369   3.380  11.871  0.2038  0.1620 -0.6513
15480TIP3    H167855   4.458   3.358  11.898  0.3916  1.0208 -0.5457
15480TIP3    H267856   4.350   3.319  11.800  1.2153  0.5464 -1.2817
15481TIP3   OH267857   3.827   5.126   2.850  0.7473  0.5673 -0.0144
15481TIP3    H167858   3.769   5.141   2.775  0.2691  1.5961  0.5463
15481TIP3    H267859   3.888   5.058   2.819  0.6594  1.0684 -1.3879
15482TIP3   OH267860   1.298   0.710  11.207 -0.2495 -0.1264 -0.4801
15482TIP3    H167861   1.387   0.734  11.232  0.0324 -2.8867  1.6807
15482TIP3    H267862   1.271   0.779  11.146  2.5699  1.9379  0.3648
15483TIP3   OH267863   2.988   2.924   3.902 -0.2675 -0.1816 -0.0635
15483TIP3    H167864   2.957   3.012   3.877  0.2600  0.2082  0.6414
15483TIP3    H267865   2.937   2.902   3.980  2.0239  1.0130  1.9140
15484TIP3   OH267866   2.443   1.475  14.782  0.1427 -0.0768 -0.3320
15484TIP3    H167867   2.353   1.506  14.781  1.1764  3.6000  1.1654
15484TIP3    H267868   2.471   1.485  14.873  1.7582 -2.3077 -0.5041
15485TIP3   OH267869   2.086   0.528   1.615  0.0063 -0.5948 -0.1071
15485TIP3    H167870   1.992   0.546   1.616  0.0687 -0.2635 -0.0395
15485TIP3    H267871   2.098   0.456   1.677 -0.0679  0.0348  0.6528
15486TIP3   OH267872   4.065   1.600  12.822 -0.3646  0.3403  0.2542
15486TIP3    H167873   4.013   1.658  12.766 -1.4702 -0.6891  0.1834
15486TIP3    H267874   4.148   1.646  12.833 -0.7618  1.3618 -0.8122
15487TIP3   OH267875   6.169   5.713   5.028 -0.5199  0.5922 -0.1118
15487TIP3    H167876   6.258   5.678   5.029 -0.4761  0.6492  1.4452
15487TIP3    H267877   6.163   5.762   4.946  1.7223  2.5981  0.7926
15488TIP3   OH267878   5.951   2.265   2.750  0.6932  0.0881 -0.1415
15488TIP3    H167879   5.903   2.321   2.689 -0.0068  0.9594  1.1427
15488TIP3    H267880   5.883   2.217   2.797  1.0689  0.8488  1.2492
15489TIP3   OH267881   1.712   1.419  12.074 -0.8397 -0.3812 -0.4225
15489TIP3    H167882   1.684   1.348  12.132 -1.7217  1.4324  1.5145
15489TIP3    H267883   1.784   1.461  12.121 -0.2280 -0.0707 -1.6026
15490TIP3   OH267884   6.356   0.102   4.746  0.5827 -0.2670 -0.0319
15490TIP3    H167885   6.375   0.026   4.802  1.1015 -0.8875 -1.0211
15490TIP3    H267886   6.344   0.174   4.807 -1.5683 -1.4523  1.0468
15491TIP3   OH267887   2.843   1.709  11.008 -0.3544 -0.0002  0.4067
15491TIP3    H167888   2.833   1.690  11.101 -2.1042 -1.6393 -0.0709
15491TIP3    H267889   2.888   1.632  10.973  1.0468  0.9655 -0.0135
15492TIP3   OH267890   3.809   3.907  16.426  0.0424 -0.2156  0.4297
15492TIP3    H167891   3.753   3.899  16.349  0.0287 -1.4963  0.5437
15492TIP3    H267892   3.829   4.000  16.432  0.8099 -0.1928 -1.6511
15493TIP3   OH267893   4.540   4.746   4.287 -0.2685  0.3447  0.3056
15493TIP3    H167894   4.493   4.824   4.258  0.1528 -0.2201 -2.0958
15493TIP3    H267895   4.622   4.780   4.324 -0.4865  1.0869  0.1241
15494TIP3   OH267896   2.350   1.838  12.780 -0.1561  0.0471 -0.0008
15494TIP3    H167897   2.415   1.767  12.778  0.0686  0.2020  0.9166
15494TIP3    H267898   2.397   1.911  12.821 -0.2769  0.8487 -1.2574
15495TIP3   OH267899   4.896   0.758   4.737 -0.2756 -0.5268  0.4125
15495TIP3    H167900   4.951   0.735   4.812  0.5109 -0.8895 -0.2707
15495TIP3    H267901   4.878   0.852   4.749 -0.5239 -0.6702  1.2759
15496TIP3   OH267902   5.119   0.171   3.145 -0.2458 -0.3092  0.6927
15496TIP3    H167903   5.166   0.166   3.228  0.3978  1.3154  0.4626
15496TIP3    H267904   5.121   0.081   3.110  0.2277 -0.8241  2.0076
15497TIP3   OH267905   1.220   5.970   5.811 -0.0202 -0.1309 -0.1570
15497TIP3    H167906   1.203   5.942   5.901  2.7963  0.3736  0.6575
15497TIP3    H267907   1.170   5.909   5.757 -0.5197 -1.4969  1.7231
15498TIP3   OH267908   5.815   1.671   3.527  0.2620 -0.0947 -0.4899
15498TIP3    H167909   5.859   1.665   3.612 -0.9660  2.7990  0.5137
15498TIP3    H267910   5.752   1.599   3.527  1.3410 -1.0765  0.3439
15499TIP3   OH267911   4.552   2.764  12.740 -0.2837 -0.2726  0.3160
15499TIP3    H167912   4.577   2.705  12.811  0.1801 -1.4115 -0.7692
15499TIP3    H267913   4.618   2.751  12.673 -0.8110  0.6611 -0.4108
15500TIP3   OH267914   0.359   4.970  14.204  0.2454  0.1434 -0.3005
15500TIP3    H167915   0.266   4.994  14.208  0.0993 -0.4999  0.6648
15500TIP3    H267916   0.361   4.893  14.147 -0.1505 -1.1773  1.3932
15501TIP3   OH267917   0.985   0.940  16.125  0.1801  0.2248  0.0510
15501TIP3    H167918   1.020   1.028  16.140  1.4325 -0.6285  2.9263
15501TIP3    H267919   1.063   0.887  16.110 -0.6148 -0.3384 -2.5898
15502TIP3   OH267920   1.609   5.199  12.759 -0.0383 -0.0784 -0.1695
15502TIP3    H167921   1.676   5.266  12.773  1.8766 -1.4278 -2.1141
15502TIP3    H267922   1.655   5.129  12.713 -2.5825 -1.5591 -0.6566
15503TIP3   OH267923   5.914   4.588  16.952  0.1996  0.1138  0.2104
15503TIP3    H167924   5.916   4.492  16.949 -0.8583 -0.0251 -4.3475
15503TIP3    H267925   5.838   4.609  17.005  0.1947 -1.5641  0.9282
15504TIP3   OH267926   5.334   4.374  16.581  0.1119 -0.2078  0.1097
15504TIP3    H167927   5.356   4.448  16.638 -1.5736  0.3859  0.0450
15504TIP3    H267928   5.417   4.329  16.567  1.2195  1.7546  0.0449
15505TIP3   OH267929   4.762   1.951   2.128 -0.3694 -0.1666  0.0787
15505TIP3    H167930   4.791   1.925   2.215  1.1374  1.3025  0.0488
15505TIP3    H267931   4.786   1.878   2.072  0.6811 -0.1776  0.5355
15506TIP3   OH267932   5.101   3.255   1.841 -0.2047  0.2211  0.4736
15506TIP3    H167933   5.021   3.307   1.851  0.2844  0.9045  0.9832
15506TIP3    H267934   5.170   3.311   1.877  0.3665 -0.7238  0.8762
15507TIP3   OH267935   3.629   5.568  13.049 -0.4297 -0.2338 -0.6486
15507TIP3    H167936   3.547   5.614  13.029 -1.3140  0.2718  3.2333
15507TIP3    H267937   3.603   5.476  13.060 -0.3150 -0.2152 -0.2154
15508TIP3   OH267938   5.706   2.955  16.246  0.3594 -0.4209  0.0944
15508TIP3    H167939   5.689   2.892  16.176  0.2159 -0.3678  0.0835
15508TIP3    H267940   5.802   2.960  16.251  0.3725  0.0128 -0.4894
15509TIP3   OH267941   3.130   5.035   4.188  0.0050  0.2381  0.2684
15509TIP3    H167942   3.062   5.066   4.248  0.1239  0.0744  0.4873
15509TIP3    H267943   3.155   5.113   4.139  2.5604  1.2996  2.9735
15510TIP3   OH267944   6.339   0.943   5.268  0.0368  0.4709  0.3676
15510TIP3    H167945   6.306   1.033   5.259  0.3968  0.5817  0.1323
15510TIP3    H267946   6.432   0.954   5.288 -0.1537  0.1674  1.4567
15511TIP3   OH267947   5.335   2.668  13.998 -0.3971  0.3934 -0.7142
15511TIP3    H167948   5.261   2.612  14.022 -0.5157  0.3991 -1.0601
15511TIP3    H267949   5.297   2.735  13.941  0.1438 -0.5832 -2.2967
15512TIP3   OH267950   3.480   2.253   2.311  0.1821 -0.0839 -0.3973
15512TIP3    H167951   3.547   2.209   2.364 -0.1379 -0.9616 -0.7001
15512TIP3    H267952   3.481   2.206   2.227 -1.0653 -0.3711 -0.2779
15513TIP3   OH267953   1.861   4.448   3.355  0.0652  0.5975 -0.1741
15513TIP3    H167954   1.835   4.428   3.445 -1.2131  0.7067 -0.4955
15513TIP3    H267955   1.933   4.509   3.363  0.2624  0.2469  0.7821
15514TIP3   OH267956   6.556   5.622  12.453  0.1423  0.0003  0.0565
15514TIP3    H167957   6.617   5.687  12.488 -0.2672 -0.1696  1.1185
15514TIP3    H267958   6.564   5.630  12.358  0.9068  0.8325  0.1804
15515TIP3   OH267959   0.327   5.291  14.159 -0.2328  0.0460 -0.7470
15515TIP3    H167960   0.416   5.311  14.188 -1.3271  2.8644  1.0890
15515TIP3    H267961   0.287   5.246  14.233 -1.0610  1.1491 -0.4993
15516TIP3   OH267962   3.590   1.959   3.952 -0.4424 -0.4019  0.1142
15516TIP3    H167963   3.633   1.914   3.880 -1.8889 -0.5486 -0.6903
15516TIP3    H267964   3.582   2.050   3.923 -0.8751 -0.4257  0.1507
15517TIP3   OH267965   0.318   2.549   1.260  0.3873 -0.6849  0.4969
15517TIP3    H167966   0.333   2.565   1.353 -1.2124  1.1664  0.4978
15517TIP3    H267967   0.327   2.454   1.250  3.4288 -0.6704  1.9309
15518TIP3   OH267968   4.973   5.083  16.418 -0.0387 -0.1614  0.3532
15518TIP3    H167969   4.923   5.022  16.472 -0.2275 -0.6733 -0.3703
15518TIP3    H267970   5.042   5.029  16.379 -1.3713 -0.4034 -1.8346
15519TIP3   OH267971   3.638   3.746  14.625 -0.4534 -0.7105 -0.3525
15519TIP3    H167972   3.565   3.808  14.616  0.4899  0.4670 -0.2663
15519TIP3    H267973   3.677   3.741  14.538 -0.3711 -0.9915 -0.3012
15520TIP3   OH267974   2.289   3.538  13.241  0.2816 -0.0925 -0.5445
15520TIP3    H167975   2.368   3.569  13.196 -0.7563  1.2839 -1.4936
15520TIP3    H267976   2.307   3.550  13.334  1.7209 -1.1430 -0.6612
15521TIP3   OH267977   4.292   6.473  13.220  0.5353  0.1731 -0.2519
15521TIP3    H167978   4.374   6.475  13.269 -0.1242  1.3035  0.8525
15521TIP3    H267979   4.312   6.516  13.137  0.4569  2.9023  1.0515
15522TIP3   OH267980   4.048   3.625   0.428 -0.6413  0.0125 -0.1380
15522TIP3    H167981   4.142   3.643   0.434 -0.4092 -1.0811 -0.3929
15522TIP3    H267982   4.041   3.530   0.426 -1.7326  0.0816 -0.5242
15523TIP3   OH267983   5.594   0.650  14.428 -0.1302  0.6010  0.3642
15523TIP3    H167984   5.671   0.707  14.431  0.3235  0.0072  0.1292
15523TIP3    H267985   5.620   0.571  14.475 -0.2213 -0.0325 -0.6149
15524TIP3   OH267986   5.221   0.700  17.014 -0.3537  0.1572 -0.9709
15524TIP3    H167987   5.136   0.712  17.057  0.6923 -1.1101  1.6832
15524TIP3    H267988   5.250   0.788  16.993 -1.4722  0.7455 -0.1295
15525TIP3   OH267989   3.200   6.351   3.924  0.4429  0.2597  0.3265
15525TIP3    H167990   3.199   6.317   3.835  1.0225  0.6588  0.1620
15525TIP3    H267991   3.280   6.314   3.963 -1.5040 -2.7733  1.8316
15526TIP3   OH267992   6.483   0.165   3.408  0.1930 -0.7189  0.2962
15526TIP3    H167993   6.493   0.194   3.499 -1.0119 -1.3317  0.6598
15526TIP3    H267994   6.472   0.245   3.358  1.8324 -0.3173  0.5273
15527TIP3   OH267995   1.661   6.370  13.806  0.0497 -0.7073 -0.3054
15527TIP3    H167996   1.737   6.320  13.836 -0.2368 -1.1792 -0.3661
15527TIP3    H267997   1.595   6.304  13.783 -0.6672 -0.2889  0.4870
15528TIP3   OH267998   1.322   5.441  11.915 -0.2836 -0.3500  0.3615
15528TIP3    H167999   1.387   5.375  11.938 -0.1178 -1.4827 -2.8766
15528TIP3    H268000   1.365   5.525  11.931  2.1836 -1.0527 -1.8824
15529TIP3   OH268001   4.118   0.851   6.518  0.3159  0.6341 -0.7505
15529TIP3    H168002   4.156   0.938   6.504 -0.6033  1.0477 -0.7618
15529TIP3    H268003   4.182   0.804   6.571  0.0941  1.8662  0.6470
15530TIP3   OH268004   3.639   1.469   5.577  0.3549 -0.6403 -0.1728
15530TIP3    H168005   3.714   1.510   5.620  0.8065 -2.1174  0.5082
15530TIP3    H268006   3.590   1.428   5.648 -1.5338  0.8623 -0.4992
15531TIP3   OH268007   6.299   3.627   2.546 -0.4379  0.1292 -0.4203
15531TIP3    H168008   6.282   3.586   2.631 -0.6903  0.9908 -0.0394
15531TIP3    H268009   6.221   3.681   2.530  0.9239  2.4852  0.3277
15532TIP3   OH268010   4.351   2.790  15.024 -0.2833  0.3190 -0.5652
15532TIP3    H168011   4.368   2.835  14.941 -0.4987  1.3564 -0.0598
15532TIP3    H268012   4.332   2.699  14.998  2.5836 -0.1252 -1.4228
15533TIP3   OH268013   4.654   0.687  15.641  0.0722 -0.1064  0.4389
15533TIP3    H168014   4.649   0.737  15.723 -0.1730 -0.5581  0.7058
15533TIP3    H268015   4.663   0.596  15.670 -0.9258 -0.3630 -0.0406
15534TIP3   OH268016   4.292   2.228   5.917  0.5462  0.1816  0.0451
15534TIP3    H168017   4.384   2.211   5.895  0.5898  2.1905 -1.5884
15534TIP3    H268018   4.274   2.315   5.881 -2.0224 -0.1796  0.2687
15535TIP3   OH268019   3.513   4.867  10.932  0.4385 -1.0320 -0.0198
15535TIP3    H168020   3.572   4.820  10.991  2.9258  0.0816 -1.4878
15535TIP3    H268021   3.491   4.804  10.864 -0.4595 -1.5649  0.7317
15536TIP3   OH268022   1.088   0.581  16.327  0.7407 -0.0154 -0.3349
15536TIP3    H168023   1.137   0.608  16.250  2.2938 -0.3657  0.4999
15536TIP3    H268024   1.080   0.486  16.319 -0.9807  0.1525 -1.1110
15537TIP3   OH268025   3.357   0.230   1.665  0.3411 -0.6573  0.0338
15537TIP3    H168026   3.323   0.319   1.675 -0.3977 -1.0876  1.5125
15537TIP3    H268027   3.451   0.242   1.649  0.2810  0.3706  0.4009
15538TIP3   OH268028   4.588   2.029   1.860 -0.2571  1.3279  0.0992
15538TIP3    H168029   4.613   2.014   1.952  1.4581 -0.6248 -0.5898
15538TIP3    H268030   4.568   2.123   1.856  0.5850  1.6766  2.2534
15539TIP3   OH268031   4.396   5.021  15.841  0.0239 -0.4305 -0.2744
15539TIP3    H168032   4.304   5.009  15.865  0.0505  0.4395  0.3025
15539TIP3    H268033   4.415   5.113  15.862  1.2499 -0.8127  0.3998
15540TIP3   OH268034   2.844   2.532   2.190  0.0692  0.1208  0.2537
15540TIP3    H168035   2.815   2.593   2.122  0.2172  0.0308  0.1093
15540TIP3    H268036   2.775   2.465   2.193  0.3925 -0.2460 -0.2860
15541TIP3   OH268037   5.149   1.825   1.934 -0.0404  0.7132 -0.0841
15541TIP3    H168038   5.113   1.855   1.851 -1.1080 -0.0165  0.0995
15541TIP3    H268039   5.158   1.905   1.986  0.9633  1.2232 -0.9979
15542TIP3   OH268040   5.537   2.363   2.098  0.5322  0.0646 -0.2310
15542TIP3    H168041   5.443   2.361   2.115  0.6013 -1.6799  0.0730
15542TIP3    H268042   5.546   2.416   2.018 -0.7590 -0.2549 -0.6078
15543TIP3   OH268043   6.491   4.517   1.819 -0.4329  0.4766 -0.1140
15543TIP3    H168044   6.407   4.486   1.784 -0.7361  0.9115  0.2160
15543TIP3    H268045   6.507   4.600   1.775 -1.4740  1.7033  1.6748
15544TIP3   OH268046   0.482   0.049  13.712 -0.3775 -0.1922  0.1423
15544TIP3    H168047   0.397   0.010  13.692  0.7047 -2.4500 -0.5220
15544TIP3    H268048   0.545  -0.016  13.680  1.5913  1.2112  0.9813
15545TIP3   OH268049   4.764   5.185  15.301  0.1558  0.4097  0.3492
15545TIP3    H168050   4.727   5.136  15.227 -1.8998  3.0161 -0.5142
15545TIP3    H268051   4.687   5.209  15.354  1.4578 -0.3159  2.7108
15546TIP3   OH268052   6.746   5.152   4.883  0.3093 -0.4843  0.1402
15546TIP3    H168053   6.820   5.115   4.930 -0.1697 -1.4191  0.1844
15546TIP3    H268054   6.722   5.085   4.819  1.8898  1.2930 -2.5637
15547TIP3   OH268055   0.238   6.796  14.431  0.0873  0.0901  0.4420
15547TIP3    H168056   0.251   6.809  14.525 -0.4982  1.9605  0.2944
15547TIP3    H268057   0.323   6.816  14.392 -0.2564  1.6129  0.4072
15548TIP3   OH268058   2.123   6.474   1.741  0.3584  0.1941 -0.2535
15548TIP3    H168059   2.029   6.459   1.755  0.1334  1.3641 -0.3949
15548TIP3    H268060   2.127   6.533   1.667  1.2335 -0.0501 -0.4101
15549TIP3   OH268061   4.085   6.555  16.236  0.6645 -0.7084 -0.1695
15549TIP3    H168062   4.069   6.607  16.315  3.7773  0.1232  0.0255
15549TIP3    H268063   4.040   6.602  16.166  0.7159  0.4172  0.5416
15550TIP3   OH268064   0.749   3.497  16.878 -1.0178 -0.3144  0.2271
15550TIP3    H168065   0.690   3.483  16.952  0.0387 -0.1787  1.1218
15550TIP3    H268066   0.836   3.484  16.915 -0.4736 -0.2948 -1.0161
15551TIP3   OH268067   3.676   5.581  15.004  0.3390  0.5038 -0.3223
15551TIP3    H168068   3.752   5.531  14.975  1.0314  2.3645 -1.9407
15551TIP3    H268069   3.660   5.551  15.093  0.8801 -2.3043 -1.0799
15552TIP3   OH268070   1.768   2.186  16.082  0.2382 -0.0948  0.4811
15552TIP3    H168071   1.720   2.110  16.115  1.6959 -0.5780  1.5864
15552TIP3    H268072   1.709   2.260  16.099 -1.0179 -0.8945 -0.2210
15553TIP3   OH268073   3.822   2.454   2.144  0.6753 -0.2622  0.5151
15553TIP3    H168074   3.734   2.464   2.179  0.6001  1.9225 -0.1676
15553TIP3    H268075   3.849   2.542   2.119  2.0488 -1.2296 -1.7621
15554TIP3   OH268076   3.778   6.179   0.871 -0.2902 -0.1626 -0.7483
15554TIP3    H168077   3.732   6.214   0.947  0.4129  0.9678 -0.8230
15554TIP3    H268078   3.838   6.248   0.845  0.9005 -1.3025 -1.1349
15555TIP3   OH268079   5.089   0.137  13.568 -0.1039  0.2003  0.1830
15555TIP3    H168080   5.060   0.213  13.516 -1.0362  0.6588  1.3276
15555TIP3    H268081   5.178   0.160  13.596  0.6337 -0.2890 -1.6043
15556TIP3   OH268082   0.766   1.937   4.533  0.6147 -0.1767 -0.4507
15556TIP3    H168083   0.856   1.907   4.520  0.1365 -2.2122  0.5024
15556TIP3    H268084   0.717   1.895   4.462  0.1746 -0.3841 -0.0283
15557TIP3   OH268085   0.331   1.290  11.409 -0.3415  0.2703  0.1860
15557TIP3    H168086   0.290   1.204  11.397 -0.7003  0.5125 -0.3485
15557TIP3    H268087   0.331   1.304  11.503 -0.0094 -0.4479  0.3014
15558TIP3   OH268088   6.422   0.239   2.355  0.2038  0.3951  0.3035
15558TIP3    H168089   6.488   0.300   2.389 -0.0253  0.2462  1.0204
15558TIP3    H268090   6.420   0.257   2.261  0.5139  1.1281  0.4287
15559TIP3   OH268091   4.078   3.900   4.683  0.0759 -0.0331  0.8571
15559TIP3    H168092   3.994   3.910   4.637  0.9713  3.6912 -0.3403
15559TIP3    H268093   4.104   3.809   4.666 -3.1794 -1.0106  0.4354
15560TIP3   OH268094   6.316   3.319   1.797 -0.7931  0.3795 -0.4444
15560TIP3    H168095   6.224   3.297   1.780 -0.2334 -1.4929 -1.3614
15560TIP3    H268096   6.313   3.402   1.844 -2.9066  1.0248 -1.5823
15561TIP3   OH268097   4.821   0.593  12.120  0.2419 -0.6495  0.3584
15561TIP3    H168098   4.837   0.560  12.031  0.1254 -0.2205  0.1738
15561TIP3    H268099   4.872   0.535  12.177 -0.2099 -1.3388  0.0729
15562TIP3   OH268100   6.589   4.615   0.850  0.7293 -0.0424 -0.3083
15562TIP3    H168101   6.591   4.576   0.763  1.5499 -2.0328  0.5411
15562TIP3    H268102   6.523   4.684   0.844 -0.7791 -1.5296 -1.9361
15563TIP3   OH268103   2.837   1.560   0.289 -0.1276  0.5599 -0.2695
15563TIP3    H168104   2.882   1.617   0.227 -1.1547  0.5250 -1.0707
15563TIP3    H268105   2.907   1.525   0.344  0.6048  1.9830 -0.2486
15564TIP3   OH268106   4.779   4.680   1.779  0.2423  0.6316 -0.4172
15564TIP3    H168107   4.872   4.693   1.795  0.1144 -0.7587  1.7663
15564TIP3    H268108   4.739   4.765   1.797  0.7074  0.3442  2.2966
15565TIP3   OH268109   5.009   4.773  10.523 -0.3284 -0.1565 -0.4578
15565TIP3    H168110   4.949   4.844  10.548  0.7063 -0.3176  3.1216
15565TIP3    H268111   5.082   4.782  10.584  1.5377 -2.2268 -2.2326
15566TIP3   OH268112   4.910   6.081   1.852  0.2045 -0.4566 -0.0711
15566TIP3    H168113   4.925   6.133   1.932 -0.7982 -0.2428 -0.0138
15566TIP3    H268114   4.994   6.085   1.806  0.9336 -0.9153  1.1512
15567TIP3   OH268115   3.294   6.314  13.464  0.5735 -0.0671  0.0871
15567TIP3    H168116   3.256   6.346  13.545 -0.9189 -0.3085 -0.4853
15567TIP3    H268117   3.372   6.265  13.491  2.1075  2.7037  1.0903
15568TIP3   OH268118   6.196   0.016   1.561 -0.1060  0.2758 -0.3853
15568TIP3    H168119   6.196   0.094   1.617  1.6646 -1.0596  1.6381
15568TIP3    H268120   6.116  -0.030   1.584 -0.6977  1.0089 -0.9203
15569TIP3   OH268121   3.280   2.678  16.935  0.2011  0.2379 -0.4056
15569TIP3    H168122   3.193   2.677  16.894 -0.7552 -0.5972  1.5163
15569TIP3    H268123   3.269   2.734  17.012  1.7851  1.3186 -0.9283
15570TIP3   OH268124   1.370   6.023  15.329 -0.7794 -0.0586 -0.3727
15570TIP3    H168125   1.458   6.006  15.296 -0.3700 -0.1301  0.7306
15570TIP3    H268126   1.312   5.983  15.264 -0.0609  1.1688 -1.8142
15571TIP3   OH268127   1.981   6.575   4.409  0.4166  0.1405  0.1936
15571TIP3    H168128   2.051   6.632   4.378  2.5850 -1.7870  1.2301
15571TIP3    H268129   1.994   6.571   4.504 -0.6484 -0.8616  0.3219
15572TIP3   OH268130   3.761   3.113   3.348 -0.3988  0.1899 -0.0745
15572TIP3    H168131   3.738   3.020   3.343 -0.0978  0.1551 -0.9108
15572TIP3    H268132   3.679   3.159   3.331 -0.0937  0.0654 -2.1119
15573TIP3   OH268133   3.996   6.463   4.577 -0.3235 -0.0066  0.0207
15573TIP3    H168134   4.052   6.494   4.506 -2.0675 -0.2588 -1.5178
15573TIP3    H268135   3.980   6.371   4.557 -3.1721  0.6009 -0.9373
15574TIP3   OH268136   2.002   5.178   0.189 -0.2493 -0.5719  0.1128
15574TIP3    H168137   2.083   5.143   0.152  0.0069  2.0656 -2.1648
15574TIP3    H268138   1.934   5.150   0.129 -0.6453 -0.6637  0.6021
15575TIP3   OH268139   4.782   1.036   2.235 -0.2516  0.3242  0.1712
15575TIP3    H168140   4.850   1.103   2.246  1.0663 -0.9643  0.1842
15575TIP3    H268141   4.776   0.994   2.320 -0.5233 -0.0681 -0.0403
15576TIP3   OH268142   6.149   3.074   0.369 -0.3820 -0.5059 -0.2134
15576TIP3    H168143   6.132   2.995   0.422 -0.8165 -0.8675 -0.8757
15576TIP3    H268144   6.076   3.077   0.307 -0.9323  0.9924  0.4608
15577TIP3   OH268145   4.222   4.121  11.467 -0.2281 -0.2748 -0.1425
15577TIP3    H168146   4.307   4.125  11.511 -0.1535  1.3227 -0.3632
15577TIP3    H268147   4.232   4.051  11.403  0.4965 -0.9469  0.6800
15578TIP3   OH268148   1.053   1.053   1.025 -0.0264  0.0131 -0.2383
15578TIP3    H168149   1.046   1.009   0.941 -0.4869 -0.1553 -0.1135
15578TIP3    H268150   1.080   0.984   1.086 -1.8856 -0.3816  0.1882
15579TIP3   OH268151   4.868   1.717   1.997 -0.2446  0.6270 -0.0671
15579TIP3    H168152   4.840   1.634   1.960 -1.2667  1.5964 -1.5423
15579TIP3    H268153   4.955   1.732   1.959 -0.2202  0.4223 -0.0935
15580TIP3   OH268154   3.178   4.735   4.718  0.1525  0.1951  0.0396
15580TIP3    H168155   3.261   4.692   4.698 -0.5772 -0.2506 -2.4167
15580TIP3    H268156   3.170   4.804   4.651 -2.0121 -0.6204 -0.6439
15581TIP3   OH268157   5.935   2.263   4.690 -0.2917  0.1879  0.1173
15581TIP3    H168158   5.946   2.260   4.785  0.9202 -0.5318 -0.0300
15581TIP3    H268159   5.864   2.202   4.672  0.2676 -0.5700  0.4622
15582TIP3   OH268160   5.818   5.172   0.113  0.2933 -0.8256 -0.1420
15582TIP3    H168161   5.859   5.257   0.096 -0.5115 -0.5078 -0.5029
15582TIP3    H268162   5.849   5.148   0.201  0.2560 -0.0083  0.0983
15583TIP3   OH268163   4.329   0.165  16.050 -0.8390  0.5467  0.3933
15583TIP3    H168164   4.254   0.203  16.002  0.8922  2.0404 -1.3002
15583TIP3    H268165   4.340   0.222  16.126 -1.4804  0.2525  0.7121
15584TIP3   OH268166   2.784   0.663  15.487  0.3262  0.1785  0.5135
15584TIP3    H168167   2.810   0.714  15.411 -0.5747 -1.9545 -1.3387
15584TIP3    H268168   2.864   0.653  15.538  1.0105  1.4338 -0.2503
15585TIP3   OH268169   0.351   4.333  17.121 -0.5949  0.4986 -0.6205
15585TIP3    H168170   0.267   4.376  17.105 -0.3464  0.8830 -0.9020
15585TIP3    H268171   0.359   4.269  17.049 -0.8748  0.1060 -0.3106
15586TIP3   OH268172   5.483   0.588  16.944  0.1562 -0.5683 -0.5416
15586TIP3    H168173   5.404   0.632  16.912 -0.3450 -0.6337  0.5400
15586TIP3    H268174   5.461   0.563  17.034  1.9065  0.7026  0.3197
15587TIP3   OH268175   3.392   0.334  15.962 -0.2153 -1.0287  0.5212
15587TIP3    H168176   3.343   0.412  15.933 -1.3279 -1.3482  1.4503
15587TIP3    H268177   3.327   0.283  16.011  0.4922 -2.5710 -0.1102
15588TIP3   OH268178   3.239   2.601  15.023  0.3541  0.2447 -0.4435
15588TIP3    H168179   3.250   2.591  14.928  1.2561 -1.7411 -0.1745
15588TIP3    H268180   3.210   2.692  15.034  0.4123  0.5805 -2.5940
15589TIP3   OH268181   1.874   5.062  13.524 -0.5906  0.4611  0.0784
15589TIP3    H168182   1.874   5.098  13.435  2.9160  0.8807  0.1148
15589TIP3    H268183   1.918   4.978  13.516  0.1498  0.6893  1.4674
15590TIP3   OH268184   2.812   1.098  15.766 -0.3144  0.0269 -0.7185
15590TIP3    H168185   2.882   1.162  15.781 -2.3681  2.0867  0.7883
15590TIP3    H268186   2.799   1.057  15.852 -0.6511 -0.7092 -1.1121
15591TIP3   OH268187   2.959   4.712   5.857 -0.1418 -0.1603  0.6053
15591TIP3    H168188   3.047   4.678   5.876  0.7078  1.3917 -0.2610
15591TIP3    H268189   2.973   4.775   5.786 -2.2292 -1.1151 -0.7393
15592TIP3   OH268190   4.839   6.207   4.986 -0.2852  0.2816 -0.1006
15592TIP3    H168191   4.877   6.140   4.930  1.0492  0.9061  0.0064
15592TIP3    H268192   4.825   6.164   5.070 -0.6433 -0.2011 -0.4086
15593TIP3   OH268193   3.437   6.422  12.212  0.7356  0.0153  0.2365
15593TIP3    H168194   3.369   6.407  12.145  1.1296 -0.0943 -0.1442
15593TIP3    H268195   3.434   6.516  12.228  0.0487 -0.0742  0.7025
15594TIP3   OH268196   6.631   6.224  14.574 -0.1877  0.6770  0.3755
15594TIP3    H168197   6.554   6.274  14.602  0.0463  1.1180  0.2453
15594TIP3    H268198   6.679   6.284  14.517  0.8454  0.8333  1.3732
15595TIP3   OH268199   4.503   4.089  16.265  0.4830 -0.1251  0.1832
15595TIP3    H168200   4.531   4.082  16.174  5.1671 -2.0801  1.4665
15595TIP3    H268201   4.449   4.012  16.280 -0.4852  0.3170 -0.9405
15596TIP3   OH268202   3.488   5.124  16.950 -0.3037 -0.0200  0.6181
15596TIP3    H168203   3.501   5.215  16.974  0.6618 -0.3710  1.5223
15596TIP3    H268204   3.428   5.090  17.016  0.6321 -0.4410  1.2658
15597TIP3   OH268205   5.840   1.690  12.438  0.2070 -0.5237  0.7202
15597TIP3    H168206   5.813   1.600  12.458  1.7996 -1.0774  0.5278
15597TIP3    H268207   5.869   1.726  12.522  1.9237 -1.0737  0.4124
15598TIP3   OH268208   0.212   5.667   3.832 -0.1470  0.2034 -0.2081
15598TIP3    H168209   0.199   5.601   3.763  0.2277 -0.2277  0.1271
15598TIP3    H268210   0.147   5.646   3.898  0.4070 -0.2549  0.2055
15599TIP3   OH268211   5.737   1.966   0.182 -0.0184 -0.3979  0.1101
15599TIP3    H168212   5.723   2.016   0.263  0.5070 -1.0973  0.6402
15599TIP3    H268213   5.666   1.994   0.124 -1.0385 -0.6783  1.1909
15600TIP3   OH268214   3.373   1.359  13.030 -0.1762 -0.3434 -0.1925
15600TIP3    H168215   3.451   1.409  13.007  1.2290 -1.8289  1.0474
15600TIP3    H268216   3.301   1.421  13.020  1.2728  1.4142 -0.3364
15601TIP3   OH268217   5.412   4.782   4.283  0.4087  0.0460  0.1506
15601TIP3    H168218   5.492   4.742   4.316  0.8583  0.5366 -0.3156
15601TIP3    H268219   5.423   4.876   4.300 -0.9694 -0.0648  1.9512
15602TIP3   OH268220   3.066   5.329  14.770 -0.0964  0.5213  0.0478
15602TIP3    H168221   3.007   5.355  14.840  0.0477  0.2756  0.2653
15602TIP3    H268222   3.075   5.234  14.781  0.4687  0.5768  0.1240
15603TIP3   OH268223   1.015   3.331   5.031 -0.6821 -0.0913  0.0517
15603TIP3    H168224   1.067   3.274   4.974 -0.0944  1.1065 -0.6503
15603TIP3    H268225   0.935   3.349   4.981 -0.3447  0.6359 -0.2373
15604TIP3   OH268226   3.592   0.770   1.325  0.3077 -0.1532 -0.3040
15604TIP3    H168227   3.559   0.709   1.259 -0.0787 -0.1969 -0.0730
15604TIP3    H268228   3.637   0.838   1.274  2.2610 -1.5045 -0.4879
15605TIP3   OH268229   6.579   2.228  16.812 -0.2030 -0.7152 -0.0931
15605TIP3    H168230   6.639   2.155  16.795 -0.7484 -0.9673 -1.0066
15605TIP3    H268231   6.497   2.187  16.840 -0.1384 -0.3936  0.5997
15606TIP3   OH268232   4.202   1.512  15.112 -0.1963 -0.2810  0.4153
15606TIP3    H168233   4.208   1.560  15.029 -0.6645 -0.8672  0.0297
15606TIP3    H268234   4.166   1.575  15.174 -0.0952  0.0874  0.1036
15607TIP3   OH268235   6.468   1.846   0.182 -0.6458 -0.0693  0.1548
15607TIP3    H168236   6.553   1.884   0.160  0.7729 -1.2633  2.9887
15607TIP3    H268237   6.444   1.887   0.265  0.7195 -4.4776  3.1225
15608TIP3   OH268238   1.734   4.942  12.352 -0.0095  0.3299 -0.2355
15608TIP3    H168239   1.685   4.862  12.371 -0.1953 -0.1452 -2.4470
15608TIP3    H268240   1.667   5.011  12.351 -0.8427 -0.3465 -3.4663
15609TIP3   OH268241   6.411   3.093  17.045 -0.2184 -0.2856  0.4246
15609TIP3    H168242   6.362   3.012  17.027 -0.9017  0.2453 -0.1508
15609TIP3    H268243   6.348   3.150  17.087  0.2981 -0.0817  0.9339
15610TIP3   OH268244   0.946   3.931   3.836 -0.0409 -0.0755  0.1139
15610TIP3    H168245   0.872   3.886   3.795 -0.6610  2.1623 -1.4666
15610TIP3    H268246   1.021   3.875   3.820 -0.6204 -0.2288 -2.4932
15611TIP3   OH268247   2.797   5.862  16.660  0.1555  0.5755  0.1506
15611TIP3    H168248   2.881   5.872  16.615  0.6927 -1.7063  0.5525
15611TIP3    H268249   2.740   5.819  16.596 -0.2467  0.7576  0.3827
15612TIP3   OH268250   0.164   4.783   2.397 -0.6348 -0.1212  0.2394
15612TIP3    H168251   0.126   4.720   2.458 -0.2802  1.6684  2.4592
15612TIP3    H268252   0.253   4.798   2.430 -0.3088  0.6553 -0.9236
15613TIP3   OH268253   1.658   5.727  13.414  0.6300  0.5244  0.1473
15613TIP3    H168254   1.711   5.793  13.371  1.9241  0.2580  1.2682
15613TIP3    H268255   1.569   5.744  13.384  1.1839  1.6757 -0.9180
15614TIP3   OH268256   1.609   6.752  17.081 -0.5150  0.7922  0.6477
15614TIP3    H168257   1.696   6.789  17.095 -0.5105  0.6770  0.9393
15614TIP3    H268258   1.554   6.795  17.146 -0.8490  1.4558 -0.0675
15615TIP3   OH268259   0.043   6.307   1.574 -0.3368 -0.2646 -0.2006
15615TIP3    H168260  -0.025   6.291   1.639 -0.0259 -0.6398  0.0365
15615TIP3    H268261  -0.002   6.299   1.490 -0.4511 -1.1656 -0.0618
15616TIP3   OH268262   0.511   6.219  15.272  0.3631 -0.3962 -0.2542
15616TIP3    H168263   0.579   6.212  15.205 -1.3209  3.0062 -2.6037
15616TIP3    H268264   0.454   6.290  15.241 -2.0780 -0.4480  3.5056
15617TIP3   OH268265   5.640   1.546   3.243  0.3640 -0.5096  0.0526
15617TIP3    H168266   5.616   1.506   3.326 -1.8327  0.4858 -0.0465
15617TIP3    H268267   5.587   1.626   3.238  1.3036  0.0557 -1.7816
15618TIP3   OH268268   0.269   3.581  13.467 -0.2792  0.0275  0.4588
15618TIP3    H168269   0.355   3.564  13.428 -1.3435 -2.3832 -1.1393
15618TIP3    H268270   0.237   3.657  13.420 -0.3354 -1.1001 -1.4556
15619TIP3   OH268271   3.975   3.668   5.569 -0.1989 -0.0501 -0.0702
15619TIP3    H168272   4.068   3.670   5.593 -0.0957  1.8137 -0.4628
15619TIP3    H268273   3.972   3.612   5.491  0.6966  0.2836 -0.3601
15620TIP3   OH268274   2.553   6.382  16.501 -0.3512  0.1935  0.1758
15620TIP3    H168275   2.625   6.434  16.463  0.7668 -1.2726  0.1943
15620TIP3    H268276   2.571   6.383  16.595  0.8047 -1.7451  0.0318
15621TIP3   OH268277   0.917   2.918  12.577  0.0037 -0.2110 -0.1375
15621TIP3    H168278   0.859   2.893  12.650 -0.0802  0.9336  0.2174
15621TIP3    H268279   0.990   2.857  12.582 -0.8391 -1.2420 -0.1595
15622TIP3   OH268280   3.309   0.075   3.307 -0.0593 -0.7877  0.4471
15622TIP3    H168281   3.249   0.085   3.381 -1.6531 -3.3854 -0.3604
15622TIP3    H268282   3.263   0.116   3.234 -0.4270 -1.9138  0.0346
15623TIP3   OH268283   3.568   4.801   2.691  0.2362 -0.3955  0.2401
15623TIP3    H168284   3.587   4.868   2.624 -1.0428 -1.0191 -0.7870
15623TIP3    H268285   3.613   4.833   2.769 -0.0274  1.4939 -0.3120
15624TIP3   OH268286   4.046   0.835  16.002 -0.3052 -0.2875 -0.2057
15624TIP3    H168287   3.960   0.876  15.998  0.1506  0.7923  0.5952
15624TIP3    H268288   4.028   0.744  16.026 -1.1842  0.1949  1.0899
15625TIP3   OH268289   2.578   4.322  16.053  0.1138  0.1165  0.1741
15625TIP3    H168290   2.664   4.284  16.069  0.4379  1.0875  0.8515
15625TIP3    H268291   2.595   4.414  16.035 -0.7811  0.3389  0.3779
15626TIP3   OH268292   1.459   0.708  14.175 -0.4884 -0.0440  0.0304
15626TIP3    H168293   1.478   0.639  14.239 -1.8882  0.2998  0.8441
15626TIP3    H268294   1.371   0.687  14.143 -0.4317  0.6827 -0.6285
15627TIP3   OH268295   1.252   4.036  15.404 -0.1665  0.6188  0.2705
15627TIP3    H168296   1.273   4.061  15.314 -1.8388  0.8888 -0.0755
15627TIP3    H268297   1.266   3.942  15.408 -0.1952  0.5917 -0.3000
15628TIP3   OH268298   6.759   5.769   1.381 -0.2722 -0.7294  0.2959
15628TIP3    H168299   6.817   5.740   1.451  1.3552  1.6684  0.0468
15628TIP3    H268300   6.761   5.698   1.316  1.3210 -1.2784  0.9124
15629TIP3   OH268301   1.368   5.624  13.692  0.1681  0.2924  0.0852
15629TIP3    H168302   1.306   5.647  13.761 -2.8611 -3.3683 -1.0786
15629TIP3    H268303   1.319   5.634  13.610  1.6006 -1.1805 -1.0388
15630TIP3   OH268304   3.086   0.898   3.309  0.4482 -0.1596  0.0312
15630TIP3    H168305   3.146   0.863   3.243 -1.4507 -3.1835 -0.3161
15630TIP3    H268306   3.094   0.993   3.302  5.4221 -0.2815  0.3238
15631TIP3   OH268307   3.775   2.158   6.048 -0.0294 -0.2280  0.6407
15631TIP3    H168308   3.805   2.153   5.957  1.7879  1.2598  1.0986
15631TIP3    H268309   3.752   2.068   6.070 -0.2554 -0.6572 -1.2043
15632TIP3   OH268310   3.500   4.304  16.208 -0.1870  0.1905  0.4443
15632TIP3    H168311   3.499   4.226  16.264 -0.6388  0.9994  1.6050
15632TIP3    H268312   3.539   4.274  16.126 -3.6067 -2.1855 -0.5316
15633TIP3   OH268313   5.947   5.880   2.019  0.0979 -0.1587 -0.2491
15633TIP3    H168314   5.992   5.820   2.078  1.3096  1.0802  0.1393
15633TIP3    H268315   5.854   5.860   2.031  0.4235 -1.2756  0.5832
15634TIP3   OH268316   2.914   3.988   3.912 -0.3597 -0.6155 -0.2853
15634TIP3    H168317   3.003   4.012   3.937 -0.5286 -0.5853  0.2971
15634TIP3    H268318   2.922   3.959   3.821  0.4061 -1.5086  0.0495
15635TIP3   OH268319   0.644   5.799   1.247  0.2157  0.4550 -0.3024
15635TIP3    H168320   0.563   5.751   1.266  1.0255 -1.3992 -1.2381
15635TIP3    H268321   0.622   5.854   1.172 -0.8813  2.0799  1.1145
15636TIP3   OH268322   1.918   4.382  16.686  0.0552 -0.1827 -0.4609
15636TIP3    H168323   1.896   4.303  16.736  0.4217  1.1406  1.9395
15636TIP3    H268324   1.861   4.379  16.610  0.5518 -3.1022 -0.8492
15637TIP3   OH268325   6.708   6.770  13.567 -0.0983  0.0330 -0.0214
15637TIP3    H168326   6.695   6.861  13.594 -0.3423 -0.1101  0.3557
15637TIP3    H268327   6.653   6.759  13.490 -1.6676 -0.3561  1.1121
15638TIP3   OH268328   2.749   0.855  13.209 -0.6331  0.3015  0.4787
15638TIP3    H168329   2.800   0.932  13.234 -0.6900 -0.2285  2.3209
15638TIP3    H268330   2.796   0.781  13.247 -2.3014 -0.2718  1.5231
15639TIP3   OH268331   3.097   5.129  15.317 -0.4927 -0.2742  0.3540
15639TIP3    H168332   3.051   5.212  15.311 -0.5327 -0.2902  0.4307
15639TIP3    H268333   3.148   5.135  15.398 -0.7645 -0.4565  0.5431
15640TIP3   OH268334   3.937   2.317   4.807  0.2450  0.2874 -0.1777
15640TIP3    H168335   3.927   2.222   4.805 -1.9535  0.4712 -1.7215
15640TIP3    H268336   3.873   2.346   4.873 -0.5008  0.7749 -1.0910
15641TIP3   OH268337   1.655   0.856  15.118 -0.1009  0.1260  1.0612
15641TIP3    H168338   1.572   0.825  15.154 -0.6100  1.0129  0.6949
15641TIP3    H268339   1.709   0.778  15.110 -1.8517 -0.9528 -1.3068
15642TIP3   OH268340   3.073   6.231   5.103  0.3516 -0.0762 -0.2610
15642TIP3    H168341   3.142   6.165   5.095 -0.1324 -0.7437  0.8038
15642TIP3    H268342   3.119   6.315   5.099  1.7088 -0.4828  3.3272
15643TIP3   OH268343   0.899   6.001   2.260 -0.0367 -0.3739  0.4340
15643TIP3    H168344   0.939   6.002   2.347  0.9339  0.8613  0.0077
15643TIP3    H268345   0.967   5.967   2.202 -0.8256 -1.6141  0.1987
15644TIP3   OH268346   1.084   6.200   0.463 -0.0249 -0.2040  0.4331
15644TIP3    H168347   1.050   6.113   0.482 -0.7218  0.0644  0.4330
15644TIP3    H268348   1.105   6.198   0.370 -0.9487 -0.0755  0.2148
15645TIP3   OH268349   1.544   6.542   2.970  0.4288 -0.3606  0.3190
15645TIP3    H168350   1.553   6.544   3.066  1.3076  0.7067  0.2365
15645TIP3    H268351   1.451   6.524   2.955  0.1260  0.2088  1.3929
15646TIP3   OH268352   2.940   1.165  11.545 -0.1326 -0.0476  0.1140
15646TIP3    H168353   2.889   1.086  11.561  1.1972 -1.6128 -2.6103
15646TIP3    H268354   3.031   1.134  11.538  0.4480  1.7275 -0.8671
15647TIP3   OH268355   3.901   3.294  16.432 -0.2116 -0.2295 -0.4733
15647TIP3    H168356   3.935   3.379  16.404 -1.2564  0.1844 -0.5108
15647TIP3    H268357   3.891   3.245  16.351  0.8305 -0.5777 -0.4131
15648TIP3   OH268358   2.944   2.724   1.508 -0.3273 -0.1847  0.0852
15648TIP3    H168359   2.915   2.682   1.427 -1.1143  0.7111 -0.1230
15648TIP3    H268360   3.039   2.710   1.510 -0.5236 -1.7822 -0.0560
15649TIP3   OH268361   6.422   0.114  13.170 -0.0184 -0.0945 -0.0292
15649TIP3    H168362   6.498   0.139  13.118 -0.8480  1.7033 -0.4924
15649TIP3    H268363   6.440   0.147  13.258 -1.0532  2.2462 -0.6086
15650TIP3   OH268364   2.759   3.254   4.272 -0.6973 -0.4818  0.6464
15650TIP3    H168365   2.722   3.166   4.272 -1.2691 -0.2881  2.5951
15650TIP3    H268366   2.811   3.259   4.352  3.6093 -0.6593 -1.8195
15651TIP3   OH268367   2.093   1.613  16.705 -0.6101  0.2663  0.3289
15651TIP3    H168368   2.050   1.693  16.676 -2.8692 -0.8777  0.2750
15651TIP3    H268369   2.021   1.555  16.731  1.0041 -1.1625  1.9298
15652TIP3   OH268370   2.175   5.632  12.002 -0.3235 -0.0868 -0.2792
15652TIP3    H168371   2.081   5.640  12.019 -0.3857 -0.0501 -0.6486
15652TIP3    H268372   2.184   5.551  11.951  0.0823 -1.3565  1.6593
15653TIP3   OH268373   2.870   6.726  13.069  0.5731 -0.0474  0.4622
15653TIP3    H168374   2.961   6.743  13.045  0.4508  0.3038  0.2270
15653TIP3    H268375   2.873   6.644  13.118  0.9588 -0.2812  0.0624
15654TIP3   OH268376   6.449   1.931  16.661 -0.0716  0.4278 -0.1698
15654TIP3    H168377   6.355   1.916  16.675 -0.2236  1.1361 -0.3991
15654TIP3    H268378   6.489   1.912  16.745 -0.5605  1.2390  0.2587
15655TIP3   OH268379   1.222   3.919   5.512 -0.1978  0.0206  0.1989
15655TIP3    H168380   1.199   4.000   5.558 -2.2920  0.0211 -0.7238
15655TIP3    H268381   1.152   3.909   5.447  0.7252 -1.8680 -0.5482
15656TIP3   OH268382   4.411   6.172   2.468 -0.0961  0.8083 -0.3586
15656TIP3    H168383   4.496   6.188   2.427 -0.2675  1.3758 -0.5178
15656TIP3    H268384   4.402   6.077   2.470  1.6776  0.5959  2.0543
15657TIP3   OH268385   3.293   2.997   1.217 -0.1058 -0.0869 -0.3715
15657TIP3    H168386   3.271   2.926   1.157 -1.1557  0.4248 -0.6290
15657TIP3    H268387   3.319   3.069   1.160  1.0981 -0.2834 -0.1065
15658TIP3   OH268388   4.181   1.420   0.557  0.0561 -0.1171  0.5874
15658TIP3    H168389   4.207   1.510   0.540 -0.7694  0.1236  0.5281
15658TIP3    H268390   4.157   1.385   0.471 -1.9998  0.4084  0.8940
15659TIP3   OH268391   0.573   5.587  15.912 -0.2052  0.3948 -0.0453
15659TIP3    H168392   0.507   5.524  15.884  1.0482 -0.1457 -1.9749
15659TIP3    H268393   0.531   5.673  15.901 -0.8488  0.0266 -0.4943
15660TIP3   OH268394   1.658   2.232  14.070  0.7776  0.3320 -0.3026
15660TIP3    H168395   1.655   2.298  14.001 -1.5603  1.5796  0.8679
15660TIP3    H268396   1.653   2.148  14.023 -0.0862  1.1262 -1.7016
15661TIP3   OH268397   4.772   3.417   0.228  0.0193 -0.6539 -0.2470
15661TIP3    H168398   4.752   3.429   0.135  1.0145 -0.8288 -0.4853
15661TIP3    H268399   4.827   3.492   0.251  1.7555 -1.8356 -0.4009
15662TIP3   OH268400   1.786   2.520  12.748 -0.0306  0.2107  0.5580
15662TIP3    H168401   1.844   2.504  12.673  0.3839 -0.9343  1.0977
15662TIP3    H268402   1.779   2.434  12.791 -2.4478  0.2137  0.2941
15663TIP3   OH268403   3.921   0.233   4.377  0.4741  0.1049  0.2642
15663TIP3    H168404   3.873   0.315   4.395  0.6332  0.5727 -1.3114
15663TIP3    H268405   4.009   0.262   4.354  0.6932 -0.5639  0.2492
15664TIP3   OH268406   5.722   3.846   1.578 -0.1171 -0.0460 -0.0814
15664TIP3    H168407   5.751   3.771   1.527 -0.6111  1.4117 -2.6893
15664TIP3    H268408   5.647   3.814   1.628  1.1949 -1.8689  0.8325
15665TIP3   OH268409   6.198   6.381  11.184 -0.1985 -0.8623 -0.5163
15665TIP3    H168410   6.181   6.454  11.242  1.6874 -0.6775 -0.1369
15665TIP3    H268411   6.231   6.421  11.103  2.2652 -1.2466  0.1972
15666TIP3   OH268412   6.690   2.492  13.524  0.1321 -0.0936 -0.7374
15666TIP3    H168413   6.724   2.411  13.486  0.2724 -0.7731  0.7789
15666TIP3    H268414   6.746   2.508  13.601 -1.2612  0.2536  0.2407
15667TIP3   OH268415   6.438   3.599   0.880 -0.0387  0.3301  0.1715
15667TIP3    H168416   6.394   3.682   0.901 -1.5688 -0.3617 -0.1481
15667TIP3    H268417   6.443   3.598   0.784  2.0280  1.0308  0.2175
15668TIP3   OH268418   4.206   3.325   5.447  0.0853 -0.0232 -0.4862
15668TIP3    H168419   4.300   3.309   5.452  0.1059  0.2519  0.1212
15668TIP3    H268420   4.195   3.388   5.376  0.5559  1.3040  0.5673
15669TIP3   OH268421   1.678   5.207   1.320  0.6105  0.0641  0.6341
15669TIP3    H168422   1.680   5.219   1.415  0.3000  1.1947  0.5119
15669TIP3    H268423   1.661   5.295   1.285 -0.6569 -0.5700 -0.4094
15670TIP3   OH268424   1.598   1.332   1.084  0.0449 -0.2336 -0.3275
15670TIP3    H168425   1.676   1.277   1.078  0.5541  0.3440  0.6848
15670TIP3    H268426   1.537   1.281   1.138 -0.2045 -0.6052 -0.9614
15671TIP3   OH268427   1.238   1.931   1.209  0.2349 -0.2222 -0.5370
15671TIP3    H168428   1.216   1.875   1.135 -0.3074  0.6653 -1.0685
15671TIP3    H268429   1.169   1.997   1.210 -0.8807 -1.3230  1.9538
15672TIP3   OH268430   2.664   4.060  11.895 -0.1657  0.0983 -0.7129
15672TIP3    H168431   2.616   4.071  11.813 -0.0451  0.6293 -0.7119
15672TIP3    H268432   2.660   3.966  11.912  0.7320 -0.1764 -1.8971
15673TIP3   OH268433   6.332   1.207   4.458 -0.3864 -0.3905  0.0865
15673TIP3    H168434   6.390   1.133   4.441 -0.6080 -0.7642  0.9028
15673TIP3    H268435   6.311   1.200   4.551 -1.2681  0.0772 -0.0662
15674TIP3   OH268436   2.159   6.554   3.182 -0.3102 -0.3143 -0.2902
15674TIP3    H168437   2.095   6.491   3.147  1.0425 -1.3821 -0.9161
15674TIP3    H268438   2.223   6.500   3.228  1.3889  0.4810 -1.6338
15675TIP3   OH268439   2.176   0.046  16.348  0.2759 -0.2001  0.0353
15675TIP3    H168440   2.113  -0.020  16.375 -1.3431  0.4501 -1.8972
15675TIP3    H268441   2.259   0.016  16.385 -0.6638 -2.4882  0.4809
15676TIP3   OH268442   0.265   1.102   0.098  0.0540  0.3600  0.1975
15676TIP3    H168443   0.180   1.135   0.126 -0.4587  0.6251 -1.5878
15676TIP3    H268444   0.245   1.034   0.034  1.1612  1.0227 -0.9002
15677TIP3   OH268445   1.626   2.341  17.041  0.2933 -0.2091 -0.9355
15677TIP3    H168446   1.603   2.340  16.949 -1.8653 -3.0466 -0.5205
15677TIP3    H268447   1.542   2.342  17.087  1.2386 -0.8191  0.9276
15678TIP3   OH268448   3.418   0.265   4.460  0.1387  0.0999 -0.1007
15678TIP3    H168449   3.445   0.188   4.410 -3.5072 -1.7003  0.3163
15678TIP3    H268450   3.385   0.326   4.394  0.1696 -0.0364 -0.2428
15679TIP3   OH268451   4.688   3.019  15.879  0.6273  0.1917 -0.1284
15679TIP3    H168452   4.687   2.924  15.888 -0.0987  0.3615  2.3378
15679TIP3    H268453   4.779   3.044  15.894  0.4627 -0.0061  1.3390
15680TIP3   OH268454   2.555   5.212  15.333  0.5781  0.4791  0.0961
15680TIP3    H168455   2.631   5.180  15.284 -0.8961  0.1675 -2.1012
15680TIP3    H268456   2.485   5.151  15.312 -0.6548  1.5333  0.9728
15681TIP3   OH268457   0.664   1.671  16.444  0.0572  0.6243 -0.1860
15681TIP3    H168458   0.756   1.689  16.463 -0.0195  0.5185  0.2985
15681TIP3    H268459   0.641   1.735  16.377  0.2688  1.1961  0.2699
15682TIP3   OH268460   0.826   1.941   2.516  0.2427  0.3054  0.2621
15682TIP3    H168461   0.776   2.002   2.463 -1.8820 -2.0665 -0.6512
15682TIP3    H268462   0.766   1.912   2.584  0.0862 -2.9039 -1.0760
15683TIP3   OH268463   1.722   2.861   3.107  0.0657 -0.5845  0.1348
15683TIP3    H168464   1.814   2.874   3.082 -0.2679 -0.2891 -0.9771
15683TIP3    H268465   1.727   2.808   3.187  1.2027 -0.5484  0.1081
15684TIP3   OH268466   0.925   0.075  10.778 -0.0709  0.4082 -0.3130
15684TIP3    H168467   1.008   0.110  10.809 -0.2602  0.2380  0.4083
15684TIP3    H268468   0.949  -0.005  10.732  0.3322  1.3092 -1.7165
15685TIP3   OH268469   3.567   5.436  13.810  0.2716  0.0558  0.0357
15685TIP3    H168470   3.536   5.420  13.899  2.0160 -0.2755  0.6419
15685TIP3    H268471   3.597   5.351  13.780 -1.1403 -0.0204 -1.2552
15686TIP3   OH268472   4.759   4.756   5.948 -0.2847 -0.1428 -0.1389
15686TIP3    H168473   4.841   4.723   5.984  0.1273  2.1228  1.2031
15686TIP3    H268474   4.695   4.689   5.969  0.7010 -0.6447  1.4318
15687TIP3   OH268475   6.188   3.836  12.933 -0.2947  0.1902 -0.1600
15687TIP3    H168476   6.207   3.924  12.965  2.0310 -0.8337  1.4790
15687TIP3    H268477   6.273   3.798  12.914 -1.2493 -1.7897 -0.7236
15688TIP3   OH268478   5.658   2.335   3.851 -0.3291  0.2206 -0.0938
15688TIP3    H168479   5.727   2.394   3.820  0.8786 -0.8867  0.4226
15688TIP3    H268480   5.675   2.324   3.944  0.5124 -2.2394 -0.4684
15689TIP3   OH268481   1.535   3.330  13.525 -0.0035  0.6583  0.0528
15689TIP3    H168482   1.557   3.287  13.442 -0.9635  1.0477 -0.4058
15689TIP3    H268483   1.441   3.343  13.521 -0.3609 -0.8670  1.9424
15690TIP3   OH268484   5.274   3.467   3.211  0.6791  0.1182 -0.3772
15690TIP3    H168485   5.280   3.404   3.283  0.1009  1.1858  0.6212
15690TIP3    H268486   5.271   3.552   3.253  5.0057  1.1836 -1.7673
15691TIP3   OH268487   1.229   1.274  13.234 -0.3268 -0.5696  0.1251
15691TIP3    H168488   1.244   1.183  13.261 -0.7963 -0.2236  1.6334
15691TIP3    H268489   1.206   1.268  13.142 -0.7578 -2.0324  0.3004
15692TIP3   OH268490   3.897   4.125   4.023  0.1684 -0.5484 -0.5749
15692TIP3    H168491   3.924   4.210   3.989 -1.0599 -0.8344 -2.4633
15692TIP3    H268492   3.965   4.065   3.993  0.4069 -0.4197 -0.2964
15693TIP3   OH268493   0.354   2.464   4.635 -0.0481 -0.1239  0.0015
15693TIP3    H168494   0.439   2.445   4.674 -0.3687 -1.6643  0.0485
15693TIP3    H268495   0.355   2.417   4.551 -0.7123  0.1324 -0.1585
15694TIP3   OH268496   0.256   4.573   1.093 -0.3934  0.4143  0.5411
15694TIP3    H168497   0.189   4.511   1.064 -0.0098  1.3406 -2.8359
15694TIP3    H268498   0.338   4.533   1.066  0.1057  0.9841  1.1927
15695TIP3   OH268499   0.183   5.206  10.160  0.8148 -0.1324  0.7636
15695TIP3    H168500   0.191   5.294  10.197 -0.7969  0.7278 -0.7926
15695TIP3    H268501   0.184   5.148  10.236  0.8575  1.3034  1.9044
15696TIP3   OH268502   5.288   2.242   4.620 -0.1875  0.2807  0.1523
15696TIP3    H168503   5.368   2.192   4.641  1.0507  1.5341 -1.3765
15696TIP3    H268504   5.227   2.176   4.587 -0.4196 -0.9501  2.7387
15697TIP3   OH268505   3.309   4.999   0.852 -0.7956  0.4338  0.1206
15697TIP3    H168506   3.305   5.095   0.851 -1.8132  0.4000  0.1876
15697TIP3    H268507   3.264   4.972   0.772 -1.1797 -0.0028  0.4800
15698TIP3   OH268508   2.320   0.718   3.495  0.0209 -0.3391 -0.1402
15698TIP3    H168509   2.272   0.728   3.413  0.9673 -0.4664 -0.7362
15698TIP3    H268510   2.281   0.782   3.555  0.8241  1.4314 -1.4225
15699TIP3   OH268511   0.622   4.166   2.667  0.0283 -0.0414 -0.6155
15699TIP3    H168512   0.578   4.108   2.729 -0.2409  0.4036 -0.3852
15699TIP3    H268513   0.639   4.111   2.591 -0.6234 -0.3016 -0.5748
15700TIP3   OH268514   5.044   4.623   5.985  1.1849 -0.4258 -0.3404
15700TIP3    H168515   5.091   4.666   5.913 -0.1424 -0.0732 -1.0361
15700TIP3    H268516   5.009   4.543   5.947  2.6988 -1.6134  0.6589
15701TIP3   OH268517   0.571   1.880  15.188  0.7310  0.0024 -0.1678
15701TIP3    H168518   0.567   1.975  15.202  0.8507 -0.2889  2.1923
15701TIP3    H268519   0.504   1.863  15.121 -0.3577  1.5909  0.4471
15702TIP3   OH268520   5.401   1.406   3.792 -0.3929 -0.0922  0.3539
15702TIP3    H168521   5.308   1.412   3.813 -0.2056  3.0086  0.7679
15702TIP3    H268522   5.409   1.327   3.738 -2.8245 -1.7597  2.2111
15703TIP3   OH268523   4.458   5.438   1.439 -0.1987 -0.7084 -0.7308
15703TIP3    H168524   4.505   5.375   1.386 -0.1658  0.0224 -1.5931
15703TIP3    H268525   4.502   5.522   1.422 -0.0413 -0.4930  0.6242
15704TIP3   OH268526   1.488   0.282   5.977  0.2115  0.6930  0.0735
15704TIP3    H168527   1.437   0.314   6.051  1.5378  2.0123  0.4624
15704TIP3    H268528   1.503   0.359   5.922 -0.9229 -0.2949 -1.7128
15705TIP3   OH268529   2.288   0.704  12.679  0.2599  0.5962 -0.0138
15705TIP3    H168530   2.323   0.619  12.706  0.9874  1.0181  0.4076
15705TIP3    H268531   2.309   0.710  12.586 -1.1764 -0.3375 -0.4429
15706TIP3   OH268532   4.080   4.932  15.109  0.2122 -0.0573  0.2918
15706TIP3    H168533   4.068   5.008  15.165  1.8265  1.1257 -0.8881
15706TIP3    H268534   4.054   4.962  15.022  0.4171 -0.9916 -0.1029
15707TIP3   OH268535   3.297   6.407  14.237  0.3062 -0.5536  0.1913
15707TIP3    H168536   3.351   6.468  14.286  1.0524 -0.9168 -0.1670
15707TIP3    H268537   3.250   6.462  14.174  0.0376 -0.2012  0.6974
15708TIP3   OH268538   0.455   5.977  11.844  0.0248  0.0955  0.0576
15708TIP3    H168539   0.509   5.997  11.768 -0.4169 -0.4260 -0.3985
15708TIP3    H268540   0.443   5.882  11.841  3.7080 -0.7619  3.2118
15709TIP3   OH268541   0.882   2.809  11.952  0.3127 -0.2473 -0.1308
15709TIP3    H168542   0.818   2.768  11.894  0.2982 -1.1033  0.4787
15709TIP3    H268543   0.910   2.739  12.011 -0.2929  0.8000  1.4542
15710TIP3   OH268544   2.419   4.631   5.166 -0.3375 -0.2211 -0.1913
15710TIP3    H168545   2.346   4.689   5.187 -0.6937 -0.8058  0.2110
15710TIP3    H268546   2.457   4.668   5.086 -1.3775 -0.1843 -0.6860
15711TIP3   OH268547   4.406   4.985  14.914  0.5623 -0.3677  0.2331
15711TIP3    H168548   4.335   5.039  14.949  0.8708 -2.1351  4.0060
15711TIP3    H268549   4.362   4.922  14.856 -0.1036  2.0174 -2.0443
15712TIP3   OH268550   2.069   1.199   2.469  0.1444  0.1617 -0.2798
15712TIP3    H168551   2.022   1.246   2.538  0.1748  0.7286 -0.6456
15712TIP3    H268552   2.001   1.175   2.406 -0.0739 -1.3538  0.4781
15713TIP3   OH268553   4.771   2.222   2.040  0.9314  0.5314 -1.1258
15713TIP3    H168554   4.775   2.248   1.948  0.0883  0.3313 -1.2208
15713TIP3    H268555   4.780   2.127   2.038 -0.5143  0.3858 -1.1105
15714TIP3   OH268556   0.825   0.714  16.081  0.0691 -0.7297 -0.6081
15714TIP3    H168557   0.897   0.759  16.125  2.2365 -2.0702 -2.5552
15714TIP3    H268558   0.857   0.698  15.992 -3.3962  0.3106 -2.2287
15715TIP3   OH268559   4.557   1.189   4.868  0.3946  0.3015 -0.1288
15715TIP3    H168560   4.556   1.098   4.900 -0.0543  0.3810  0.0944
15715TIP3    H268561   4.513   1.239   4.937  1.8297  0.9215  0.3835
15716TIP3   OH268562   3.671   5.283  15.856  0.1043 -0.0482 -0.4367
15716TIP3    H168563   3.655   5.261  15.948 -1.7197 -0.3289 -0.7844
15716TIP3    H268564   3.686   5.378  15.856 -1.5757  0.2412 -0.0161
15717TIP3   OH268565   3.426   2.508   1.665 -0.2670 -0.5263  0.2988
15717TIP3    H168566   3.485   2.507   1.741 -1.4152  2.2013  1.3722
15717TIP3    H268567   3.338   2.498   1.703 -0.7255 -1.6092 -0.9712
15718TIP3   OH268568   6.315   4.346   0.934  0.3197  0.5463 -0.0842
15718TIP3    H168569   6.250   4.386   0.876 -1.5199 -0.6813  1.0214
15718TIP3    H268570   6.267   4.278   0.980  1.7706  1.2079  2.6207
15719TIP3   OH268571   5.365   6.132  11.291  0.1382  0.6646  0.1171
15719TIP3    H168572   5.274   6.127  11.262 -0.1555 -0.2677  1.1395
15719TIP3    H268573   5.360   6.150  11.384  0.9230 -1.4746  0.6318
15720TIP3   OH268574   2.555   1.404   0.676 -0.1292 -0.2381 -0.3248
15720TIP3    H168575   2.499   1.417   0.600  1.5984  0.5452 -1.5390
15720TIP3    H268576   2.586   1.492   0.698  1.0317 -0.6995 -0.0532
15721TIP3   OH268577   4.704   4.058   0.588  0.3142 -0.1194 -0.0109
15721TIP3    H168578   4.699   4.117   0.664  1.4809 -0.7327  0.5641
15721TIP3    H268579   4.733   3.975   0.625  3.2119  0.1532 -1.4103
15722TIP3   OH268580   4.091   0.382   2.929 -0.2446 -0.0300 -0.8109
15722TIP3    H168581   4.076   0.462   2.979  0.8782 -1.1388  1.4365
15722TIP3    H268582   4.017   0.377   2.869 -0.4252  2.5966 -0.9357
15723TIP3   OH268583   6.740   3.189   2.819  0.1033  0.2617 -0.7293
15723TIP3    H168584   6.649   3.218   2.815  0.2363  0.7932 -0.0955
15723TIP3    H268585   6.770   3.218   2.906  0.8910  0.1469 -0.9611
15724TIP3   OH268586   5.687   2.238  11.231 -0.1909 -0.1031  0.1177
15724TIP3    H168587   5.773   2.235  11.188 -0.0055  0.4838  0.4358
15724TIP3    H268588   5.625   2.216  11.162  0.0049  1.9081 -0.7717
15725TIP3   OH268589   2.399   2.365   2.057 -0.5194 -0.3437 -0.2621
15725TIP3    H168590   2.457   2.326   2.123  0.1119  1.2304  0.1596
15725TIP3    H268591   2.458   2.399   1.990 -1.0415 -0.0952 -0.5984
15726TIP3   OH268592   3.717   2.075   4.338 -0.4701  0.2700 -0.6296
15726TIP3    H168593   3.789   2.094   4.399 -1.6002  2.3492  0.1582
15726TIP3    H268594   3.703   2.157   4.292 -1.2373 -0.5992 -1.9958
15727TIP3   OH268595   2.753   3.416   5.557  0.8557  0.3328 -0.4639
15727TIP3    H168596   2.841   3.389   5.533  1.2101  1.4181 -0.4236
15727TIP3    H268597   2.765   3.489   5.618 -0.0651  0.0962  0.0270
15728TIP3   OH268598   2.025   6.128  10.370 -0.9009 -0.4576  0.1246
15728TIP3    H168599   2.061   6.202  10.418 -1.7049 -0.0116  0.0670
15728TIP3    H268600   1.942   6.110  10.413 -1.5443 -0.1833 -0.9468
15729TIP3   OH268601   2.039   0.272   4.279  0.5349  0.1584 -0.3784
15729TIP3    H168602   2.081   0.350   4.313  2.5615 -1.7236  1.8360
15729TIP3    H268603   2.036   0.285   4.184  3.7221  1.5971 -0.3823
15730TIP3   OH268604   2.030   2.068   0.139 -0.0716 -0.2481 -0.2847
15730TIP3    H168605   2.061   2.029   0.221  0.4961  0.1338 -0.3137
15730TIP3    H268606   2.070   2.155   0.137  0.5785 -0.5522 -1.3515
15731TIP3   OH268607   0.780   0.942  14.593  0.3256  0.5179  0.5235
15731TIP3    H168608   0.751   0.890  14.668  1.6402  0.4487  1.0133
15731TIP3    H268609   0.823   1.018  14.631  0.6333  0.6959 -0.1586
15732TIP3   OH268610   5.243   0.252  13.194  0.0123 -0.1262  0.0339
15732TIP3    H168611   5.247   0.289  13.106  0.6189  1.5549  0.7261
15732TIP3    H268612   5.158   0.209  13.198 -0.9578  1.6123 -0.6843
15733TIP3   OH268613   4.426   0.925  15.652 -0.0520 -0.2449  0.3263
15733TIP3    H168614   4.460   0.916  15.562 -0.0579 -0.5317  0.3506
15733TIP3    H268615   4.368   1.001  15.648 -0.2336 -0.3951  0.0314
15734TIP3   OH268616   4.444   5.935   4.512  0.1461 -0.5208 -0.3441
15734TIP3    H168617   4.440   5.898   4.424  1.0886 -0.5515 -0.3902
15734TIP3    H268618   4.365   5.988   4.520  0.4863  0.2134 -1.5434
15735TIP3   OH268619   3.716   0.904   3.848  0.0218  0.2628 -0.2451
15735TIP3    H168620   3.717   1.000   3.852  0.4088  0.3004 -1.0905
15735TIP3    H268621   3.707   0.876   3.939  2.9319  1.0510  0.3665
15736TIP3   OH268622   0.374   2.331   0.915  0.2009  0.5906  0.1346
15736TIP3    H168623   0.298   2.303   0.863  0.4149 -1.8395  0.9778
15736TIP3    H268624   0.348   2.313   1.005  1.3451  0.8712  0.5243
15737TIP3   OH268625   1.916   2.854  12.067 -0.1782  0.5342  0.3336
15737TIP3    H168626   2.011   2.840  12.064 -0.2248  0.1920  0.3767
15737TIP3    H268627   1.880   2.768  12.089 -0.5559  0.4482 -0.5890
15738TIP3   OH268628   2.037   0.575   0.913 -0.6369 -0.1675  0.4454
15738TIP3    H168629   2.005   0.664   0.929  0.0704  0.1234  0.3002
15738TIP3    H268630   2.020   0.528   0.995  2.1881  1.0721  1.9055
15739TIP3   OH268631   1.573   3.148   5.471 -0.2115  0.3024 -0.0841
15739TIP3    H168632   1.535   3.118   5.553 -1.4017  2.3668  0.1915
15739TIP3    H268633   1.501   3.192   5.425  0.6864  0.1217 -1.7554
15740TIP3   OH268634   6.268   1.866  14.028  0.0533  0.9459  0.3553
15740TIP3    H168635   6.282   1.946  14.078 -0.6282  0.3111  1.6030
15740TIP3    H268636   6.222   1.807  14.088 -0.1435 -0.1123 -0.7809
15741TIP3   OH268637   3.673   1.555  15.547  0.4649  0.4564 -0.5399
15741TIP3    H168638   3.650   1.641  15.510  1.5632  0.7275 -0.6348
15741TIP3    H268639   3.659   1.494  15.474  0.4091  0.6632 -0.7062
15742TIP3   OH268640   4.740   6.584   5.126 -0.0943  0.2359 -0.4614
15742TIP3    H168641   4.814   6.540   5.170  0.3085  1.0967 -0.2438
15742TIP3    H268642   4.679   6.514   5.106 -0.1233 -0.2441  1.1724
15743TIP3   OH268643   5.106   0.811   0.367 -0.1226 -0.1898 -0.4618
15743TIP3    H168644   5.185   0.770   0.332  0.0456  0.2042 -0.5535
15743TIP3    H268645   5.135   0.854   0.447 -0.4359 -0.7973 -0.0198
15744TIP3   OH268646   2.651   5.334   4.996 -0.3063 -0.6064  0.0362
15744TIP3    H168647   2.569   5.286   4.991 -0.5077 -0.2325 -0.3811
15744TIP3    H268648   2.648   5.393   4.920  0.8652 -1.4136 -0.6720
15745TIP3   OH268649   5.188   5.391  14.330  0.7594  0.1184 -0.7565
15745TIP3    H168650   5.251   5.356  14.267 -0.7688 -1.6344 -1.4243
15745TIP3    H268651   5.105   5.391  14.282 -0.0899  0.5766  0.6730
15746TIP3   OH268652   2.551   0.245   2.665  0.2603  0.6671  0.4155
15746TIP3    H168653   2.505   0.175   2.711 -0.2185 -0.2015 -1.3005
15746TIP3    H268654   2.635   0.206   2.640 -0.4338  0.2557 -1.4986
15747TIP3   OH268655   0.468   5.490   1.640  0.3285 -0.0624 -0.2522
15747TIP3    H168656   0.470   5.437   1.720 -0.5713  2.6601  1.7023
15747TIP3    H268657   0.376   5.491   1.614  0.5076 -0.3192 -0.9347
15748TIP3   OH268658   4.774   5.805  11.462 -0.3583  0.2520  0.4018
15748TIP3    H168659   4.785   5.812  11.367  0.7049 -1.6977  0.3491
15748TIP3    H268660   4.833   5.735  11.489 -1.0292  0.3989  2.4467
15749TIP3   OH268661   5.207   0.557   2.286  0.1665 -0.1796  0.0011
15749TIP3    H168662   5.230   0.554   2.378  0.1651 -0.4296 -0.0064
15749TIP3    H268663   5.256   0.485   2.246  0.7121  0.3617 -0.3184
15750TIP3   OH268664   2.046   0.059   0.898  0.1876  0.0615 -0.3100
15750TIP3    H168665   2.106   0.129   0.927 -0.3338  0.2262  0.3929
15750TIP3    H268666   2.104  -0.009   0.864  0.9317 -0.5392  1.9650
15751TIP3   OH268667   6.135   5.370   4.026  0.3787  0.5845  0.1184
15751TIP3    H168668   6.098   5.374   4.114  0.7718 -1.6977  0.4424
15751TIP3    H268669   6.229   5.363   4.039  0.3067 -2.5834 -0.2559
15752TIP3   OH268670   5.640   5.456   4.620 -0.7810 -0.2505 -0.7542
15752TIP3    H168671   5.663   5.411   4.701 -2.7256 -2.8390 -1.5306
15752TIP3    H268672   5.596   5.537   4.650  0.3833 -0.1189  0.7108
15753TIP3   OH268673   1.598   0.307   0.104  0.1679 -0.3914 -0.7130
15753TIP3    H168674   1.622   0.363   0.030  0.9653 -0.1114 -0.2512
15753TIP3    H268675   1.663   0.327   0.172 -0.0784 -1.2164 -0.2190
15754TIP3   OH268676   0.467   4.068  11.994 -0.2924 -0.2954  0.2621
15754TIP3    H168677   0.441   4.004  12.060  1.2234  0.1927  1.3990
15754TIP3    H268678   0.525   4.128  12.041  0.9833 -0.0315 -1.5503
15755TIP3   OH268679   0.209   3.810  13.325 -0.0811  0.4307  0.2724
15755TIP3    H168680   0.236   3.856  13.246  0.7462  0.5496  0.6224
15755TIP3    H268681   0.119   3.841  13.340 -0.4520  0.0038 -0.9050
15756TIP3   OH268682   2.728   0.841   5.768 -0.1126  0.1142 -0.3743
15756TIP3    H168683   2.782   0.890   5.830 -0.8085  3.0016 -1.9087
15756TIP3    H268684   2.791   0.804   5.706  0.3520  0.1899  0.0449
15757TIP3   OH268685   1.001   1.205   2.913 -0.3699 -0.3280  0.2289
15757TIP3    H168686   1.088   1.164   2.913  0.5259  1.2876 -2.5614
15757TIP3    H268687   1.019   1.299   2.920 -2.0936 -0.0525  1.8103
15758TIP3   OH268688   3.360   6.651   3.474  0.1040 -1.1550  0.0646
15758TIP3    H168689   3.403   6.648   3.559  1.4622  0.0388 -0.5282
15758TIP3    H268690   3.373   6.740   3.443 -1.2910 -1.2638 -0.9464
15759TIP3   OH268691   6.494   6.348   5.233 -0.2341 -0.0792  0.1949
15759TIP3    H168692   6.517   6.365   5.142  1.6844  0.7897  0.7837
15759TIP3    H268693   6.495   6.252   5.241 -0.5444 -0.1615 -0.7151
15760TIP3   OH268694   3.402   1.043  15.737 -0.2109  0.6755  0.2448
15760TIP3    H168695   3.409   1.079  15.648  1.7079  0.9798  0.4630
15760TIP3    H268696   3.423   0.950  15.727 -2.2463  0.1902  0.0992
15761TIP3   OH268697   4.775   2.284   1.550 -0.1122 -0.1704  0.2977
15761TIP3    H168698   4.686   2.290   1.515 -0.3713 -2.0938  0.5336
15761TIP3    H268699   4.831   2.292   1.473 -0.5905 -1.1820 -0.1808
15762TIP3   OH268700   1.445   0.743  16.395  0.0398  0.5497 -0.5813
15762TIP3    H168701   1.467   0.650  16.406  0.3645  0.4087 -2.2864
15762TIP3    H268702   1.502   0.788  16.458  0.4689 -0.3261 -0.3231
15763TIP3   OH268703   5.354   0.693   1.303 -0.3790 -0.0139  0.6524
15763TIP3    H168704   5.402   0.667   1.382 -0.9204  0.1360  1.0431
15763TIP3    H268705   5.421   0.704   1.236 -0.0746 -2.1867  0.5094
15764TIP3   OH268706   0.047   3.967  16.400  0.5073 -0.4424 -0.3125
15764TIP3    H168707  -0.001   3.990  16.321 -0.1572  1.2947  0.5350
15764TIP3    H268708   0.131   4.014  16.391  1.5697 -2.3986 -1.1777
15765TIP3   OH268709   4.666   2.657   2.497 -0.2047 -0.6726  0.1163
15765TIP3    H168710   4.688   2.691   2.411  0.7207 -1.5376 -0.0054
15765TIP3    H268711   4.740   2.684   2.553 -0.7955 -0.1136  0.6551
15766TIP3   OH268712   3.439   5.417  16.915  0.1092 -0.5679 -0.1307
15766TIP3    H168713   3.429   5.499  16.963 -0.8951  0.8785 -2.6178
15766TIP3    H268714   3.533   5.410  16.899  0.2021  0.1224  0.0623
15767TIP3   OH268715   1.783   5.238   6.071  0.1609  0.1316 -0.1367
15767TIP3    H168716   1.821   5.265   5.987  1.0544  1.7985  0.7544
15767TIP3    H268717   1.843   5.273   6.137 -1.2218  0.0029  1.2363
15768TIP3   OH268718   5.068   4.166   0.804 -0.2608  0.8846 -0.4305
15768TIP3    H168719   5.159   4.194   0.818 -0.5951  1.9325 -0.2869
15768TIP3    H268720   5.021   4.246   0.782 -1.4440  0.5906  0.8732
15769TIP3   OH268721   4.293   4.901   5.903  0.5261  0.1414  0.1043
15769TIP3    H168722   4.306   4.904   5.808 -0.7885  1.6125 -0.0693
15769TIP3    H268723   4.352   4.967   5.937  0.6506 -0.0549  0.2718
15770TIP3   OH268724   2.684   1.749   5.681  0.1030 -0.1684  0.1768
15770TIP3    H168725   2.675   1.844   5.669  2.8319  0.4572  2.0096
15770TIP3    H268726   2.600   1.721   5.717 -0.4852  1.7267  0.3859
15771TIP3   OH268727   1.275   4.737  15.900 -0.6957 -0.3431  0.4287
15771TIP3    H168728   1.276   4.642  15.896 -3.2212 -0.4629  1.0544
15771TIP3    H268729   1.204   4.764  15.842  0.6233  1.2704 -0.5470
15772TIP3   OH268730   4.875   2.474  15.234 -0.4779  0.8145  0.2475
15772TIP3    H168731   4.838   2.472  15.322  0.0228  1.1594  0.4675
15772TIP3    H268732   4.803   2.447  15.177 -1.1008  1.5632  0.6656
15773TIP3   OH268733   2.372   5.722  16.635  0.6290  0.1998 -0.4003
15773TIP3    H168734   2.327   5.691  16.556  1.7374 -0.5893 -0.7379
15773TIP3    H268735   2.462   5.736  16.608  1.1102 -0.4231  0.7995
15774TIP3   OH268736   6.585   2.941  16.363 -0.5155 -0.2046  0.3225
15774TIP3    H168737   6.593   2.892  16.444  1.2332 -0.7711 -0.1583
15774TIP3    H268738   6.599   2.876  16.294  1.5793  0.8503 -0.3353
15775TIP3   OH268739   1.675   2.518   0.123 -0.6733 -0.7823 -0.5863
15775TIP3    H168740   1.723   2.437   0.108 -0.9669 -1.7498  2.8799
15775TIP3    H268741   1.592   2.506   0.078  0.5104 -0.9208 -2.9049
15776TIP3   OH268742   0.428   2.868  13.690 -1.3131  0.2861 -0.3101
15776TIP3    H168743   0.406   2.933  13.757  0.2850 -0.2641  0.8015
15776TIP3    H268744   0.439   2.786  13.738 -1.9700 -0.5457 -1.5205
15777TIP3   OH268745   6.472   1.862  16.372  0.1025  0.5644 -0.3099
15777TIP3    H168746   6.498   1.876  16.462 -1.1979 -1.2554  0.4240
15777TIP3    H268747   6.382   1.894  16.367  0.4044  1.3392 -1.1872
15778TIP3   OH268748   1.195   6.075   1.739  0.0531  0.0528 -0.2263
15778TIP3    H168749   1.190   6.168   1.718 -0.1860 -0.2433 -1.6140
15778TIP3    H268750   1.222   6.072   1.830 -2.9645  1.5275  0.8282
15779TIP3   OH268751   4.126   3.983   3.879 -0.5736 -0.1526  0.3757
15779TIP3    H168752   4.167   3.906   3.919 -1.7985 -2.4648 -2.4461
15779TIP3    H268753   4.039   3.953   3.853 -0.6681  1.8020 -1.9177
15780TIP3   OH268754   0.011   5.573   3.995  0.4855  0.1120  0.0592
15780TIP3    H168755  -0.040   5.511   3.942  2.3657 -1.0738 -0.4772
15780TIP3    H268756  -0.035   5.577   4.078 -0.9280 -0.2576 -0.6691
15781TIP3   OH268757   1.545   2.817   4.582 -0.0601  0.2651 -0.5004
15781TIP3    H168758   1.576   2.816   4.491  1.6835 -0.5979  0.0502
15781TIP3    H268759   1.574   2.902   4.616  1.4970 -0.4072 -0.0808
15782TIP3   OH268760   0.458   3.092  10.611  0.0029 -0.4879  0.0135
15782TIP3    H168761   0.533   3.034  10.623 -0.0033 -0.5903 -0.4220
15782TIP3    H268762   0.390   3.036  10.576 -0.0901 -0.2714 -0.1535
15783TIP3   OH268763   1.214   6.016  12.472 -0.2380 -0.2029  0.0923
15783TIP3    H168764   1.152   5.957  12.429 -1.2082 -0.1681  1.3888
15783TIP3    H268765   1.166   6.051  12.546  0.9560  0.7730  0.4355
15784TIP3   OH268766   5.709   2.965  15.647  0.0608 -0.4851 -0.5027
15784TIP3    H168767   5.753   3.043  15.614  1.6074 -0.1326  2.1320
15784TIP3    H268768   5.616   2.988  15.647  0.5788  2.1127  1.7957
15785TIP3   OH268769   0.117   3.441  11.495  0.6955 -0.1279 -0.4662
15785TIP3    H168770   0.110   3.536  11.491  1.9137 -0.0041  0.1283
15785TIP3    H268771   0.088   3.412  11.408  2.1352  0.9158 -1.3480
15786TIP3   OH268772   4.776   1.821  14.690 -0.5325 -0.2913 -0.7749
15786TIP3    H168773   4.790   1.842  14.598 -0.5852  0.1757 -0.6813
15786TIP3    H268774   4.686   1.790  14.694 -0.3767 -0.7661 -0.9556
15787TIP3   OH268775   0.687   3.444   0.476  0.4009 -0.1732 -0.0747
15787TIP3    H168776   0.743   3.522   0.477  1.0299 -0.6279  0.6910
15787TIP3    H268777   0.612   3.468   0.530  1.5155 -0.7374  1.8190
15788TIP3   OH268778   0.045   2.225   4.819 -0.2643 -0.4226  0.6444
15788TIP3    H168779  -0.006   2.207   4.740 -0.9603 -0.2869  1.0534
15788TIP3    H268780  -0.012   2.281   4.872  0.7900  0.7360  0.5914
15789TIP3   OH268781   2.880   2.556  12.480  0.6824  0.0408  0.5251
15789TIP3    H168782   2.926   2.635  12.509  0.8663  0.4237 -0.7587
15789TIP3    H268783   2.842   2.520  12.560 -0.9229  2.4024  0.9362
15790TIP3   OH268784   1.443   0.677  12.177 -0.0385 -0.0668 -0.0837
15790TIP3    H168785   1.377   0.611  12.200 -0.4830 -0.6741 -2.7531
15790TIP3    H268786   1.483   0.643  12.097  0.6241  2.3071 -0.8268
15791TIP3   OH268787   5.921   5.767   3.451  0.0070 -0.2687  0.1942
15791TIP3    H168788   5.859   5.840   3.449  1.4801  1.0238 -0.1913
15791TIP3    H268789   5.955   5.768   3.541  0.7307  0.1702 -0.0712
15792TIP3   OH268790   3.128   3.364   1.057 -0.1653 -0.3365 -0.2134
15792TIP3    H168791   3.160   3.418   0.985  0.9330 -0.5772  0.0791
15792TIP3    H268792   3.111   3.279   1.018 -1.4072  0.0469 -0.5669
15793TIP3   OH268793   2.469   4.916  12.588 -0.5048  0.2836  0.3239
15793TIP3    H168794   2.402   4.929  12.655 -0.3020  3.1116  0.1199
15793TIP3    H268795   2.551   4.944  12.630 -0.1052  0.5205 -0.5834
15794TIP3   OH268796   5.639   6.047  16.690  0.2185  0.0993  0.4280
15794TIP3    H168797   5.660   6.039  16.783 -0.0499 -2.2881  0.3460
15794TIP3    H268798   5.562   6.103  16.687  1.3423  1.7774  1.4475
15795TIP3   OH268799   1.474   2.823   3.710  0.0196  0.1881  0.2305
15795TIP3    H168800   1.521   2.807   3.628  0.0826  2.4480 -0.2364
15795TIP3    H268801   1.516   2.764   3.773  1.0850 -0.4128 -0.9817
15796TIP3   OH268802   1.184   4.574  12.203  0.1648 -0.5289 -0.0746
15796TIP3    H168803   1.132   4.496  12.217  0.5971 -0.3145  3.6783
15796TIP3    H268804   1.261   4.562  12.258  1.8942  1.1533 -1.9413
15797TIP3   OH268805   0.577   2.463   3.062  0.2924  0.1659  0.0491
15797TIP3    H168806   0.600   2.381   3.106  0.3883  1.4316  2.5460
15797TIP3    H268807   0.661   2.508   3.049  0.1646  0.2437 -0.5541
15798TIP3   OH268808   3.976   1.462   6.499 -0.2945  0.7439  0.1614
15798TIP3    H168809   3.884   1.472   6.527 -0.1654 -0.3485  1.1024
15798TIP3    H268810   4.020   1.538   6.535 -0.1163 -0.6652  3.2716
15799TIP3   OH268811   2.251   4.397   0.893  0.3487 -0.2116 -0.4036
15799TIP3    H168812   2.194   4.452   0.840  0.2841 -0.5203 -0.6552
15799TIP3    H268813   2.249   4.438   0.980 -2.1434 -1.5348  0.2469
15800TIP3   OH268814   0.422   4.848  14.697  0.0503  0.4238  0.0876
15800TIP3    H168815   0.464   4.935  14.694  0.3401  0.2631 -0.9372
15800TIP3    H268816   0.328   4.867  14.691  0.1352  0.6505 -0.6197
15801TIP3   OH268817   4.092   1.142   2.944  0.1702  0.0006 -0.0537
15801TIP3    H168818   4.020   1.086   2.917  1.4824 -2.5065  1.3243
15801TIP3    H268819   4.149   1.146   2.867 -0.1618 -0.1639 -0.3119
15802TIP3   OH268820   4.907   6.743   0.492 -0.7787 -0.2316  0.4996
15802TIP3    H168821   4.930   6.792   0.413 -1.9568 -0.0452  0.2501
15802TIP3    H268822   4.921   6.805   0.563 -2.5039  0.6194  0.1665
15803TIP3   OH268823   6.276   0.873  16.712 -0.5280  0.3882 -0.0313
15803TIP3    H168824   6.331   0.943  16.678 -1.5031  1.8754  1.3086
15803TIP3    H268825   6.306   0.860  16.802 -2.0110  0.9165  0.5760
15804TIP3   OH268826   1.654   1.484  13.819 -0.1048 -0.7762 -0.1839
15804TIP3    H168827   1.651   1.502  13.725  0.9910 -1.8282 -0.4454
15804TIP3    H268828   1.737   1.521  13.848  1.4974 -3.8157 -0.4533
15805TIP3   OH268829   2.902   6.502   0.921 -0.6465 -0.8516  0.5409
15805TIP3    H168830   2.955   6.506   0.841 -3.2685 -0.1627 -1.3028
15805TIP3    H268831   2.964   6.519   0.991  1.4308  0.9481 -1.5395
15806TIP3   OH268832   1.839   0.006   2.213  0.0224  0.2857  0.0922
15806TIP3    H168833   1.878   0.087   2.247 -0.6341  1.2364 -1.3048
15806TIP3    H268834   1.755   0.034   2.175 -0.9369 -1.3048  0.8957
15807TIP3   OH268835   5.969   5.913   6.387 -0.0099 -0.4458  0.6192
15807TIP3    H168836   6.022   5.934   6.310 -2.8275  0.6916 -1.1899
15807TIP3    H268837   5.989   5.821   6.405  0.9677 -0.6621 -1.2912
15808TIP3   OH268838   0.309   1.941  12.155  0.1019 -0.0138  0.0429
15808TIP3    H168839   0.362   1.952  12.234  0.6011 -0.7275 -0.1787
15808TIP3    H268840   0.369   1.961  12.083 -0.0264 -0.4606 -0.1938
15809TIP3   OH268841   0.574   6.102   2.439 -0.0459 -0.0523  0.3354
15809TIP3    H168842   0.531   6.137   2.518  0.2431 -0.8017  0.8343
15809TIP3    H268843   0.646   6.049   2.473  1.2463  1.1217 -0.4916
15810TIP3   OH268844   1.538   4.219  15.286 -0.3305 -0.1441  0.3140
15810TIP3    H168845   1.535   4.141  15.341 -1.4378  0.1747  0.7203
15810TIP3    H268846   1.550   4.185  15.197  1.7797 -0.6499  0.7422
15811TIP3   OH268847   0.359   4.939  12.977  0.0439 -0.2630 -0.3147
15811TIP3    H168848   0.442   4.987  12.983 -1.6510  2.9555 -0.1606
15811TIP3    H268849   0.312   4.982  12.906 -1.3911 -2.2602 -0.6461
15812TIP3   OH268850   0.580   3.153   1.934 -0.2344 -0.4990 -0.6012
15812TIP3    H168851   0.590   3.058   1.935  1.7180 -0.3190 -0.4234
15812TIP3    H268852   0.578   3.177   2.027  0.0030 -0.2931 -0.6506
15813TIP3   OH268853   1.793   1.981   4.469 -0.4165 -0.5677  0.2815
15813TIP3    H168854   1.710   1.933   4.466 -0.3646 -0.9783  3.0596
15813TIP3    H268855   1.859   1.914   4.486  0.0122  0.1218  1.4729
15814TIP3   OH268856   5.748   0.380   1.099 -0.6640  0.0123 -0.2420
15814TIP3    H168857   5.672   0.410   1.051 -1.5337 -0.3480  0.8620
15814TIP3    H268858   5.820   0.435   1.069 -1.1664 -0.2101 -1.9306
15815TIP3   OH268859   5.890   2.650   4.024  0.5088  0.2102 -0.2852
15815TIP3    H168860   5.870   2.600   3.945  2.7592  1.0486 -1.4968
15815TIP3    H268861   5.813   2.639   4.080 -1.0972 -0.5752 -2.4949
15816TIP3   OH268862   1.688   6.227  11.334 -0.1781 -0.5145  0.3325
15816TIP3    H168863   1.718   6.190  11.251 -0.2844  0.0474  0.0340
15816TIP3    H268864   1.768   6.238  11.386  0.1105  0.5912 -0.2991
15817TIP3   OH268865   1.100   0.840   5.284 -0.5089  0.1925  0.3165
15817TIP3    H168866   1.027   0.780   5.265 -0.8637  1.1469 -1.5973
15817TIP3    H268867   1.060   0.912   5.331 -0.6262  0.2468  0.1364
15818TIP3   OH268868   3.796   2.578   0.716 -0.4075  0.4229 -0.0076
15818TIP3    H168869   3.753   2.499   0.686  0.9460 -0.4931  0.3482
15818TIP3    H268870   3.869   2.591   0.655 -0.7240  1.5226 -0.1858
15819TIP3   OH268871   0.671   4.417   5.763  0.0866  0.0770  0.4846
15819TIP3    H168872   0.731   4.355   5.724  0.5317  0.2740  0.8523
15819TIP3    H268873   0.707   4.436   5.849 -0.5574  0.1173  0.7572
15820TIP3   OH268874   5.985   1.896  11.488 -0.1836 -0.3333  0.1709
15820TIP3    H168875   6.009   1.979  11.447  0.5836 -0.0610  1.1077
15820TIP3    H268876   5.980   1.916  11.582 -0.7451 -1.1770  0.3346
15821TIP3   OH268877   3.843   5.748   4.957  0.6679 -0.2611  0.8973
15821TIP3    H168878   3.796   5.816   4.909 -2.0633 -2.4171  0.2404
15821TIP3    H268879   3.929   5.745   4.915  0.0691  1.2356 -0.5701
15822TIP3   OH268880   3.050   3.770  15.035  0.2097 -0.1373 -0.1522
15822TIP3    H168881   3.107   3.693  15.040  1.5026  0.8309  0.9264
15822TIP3    H268882   3.017   3.781  15.125  0.5521  0.9102 -0.1404
15823TIP3   OH268883   2.407   1.179  12.008  0.6756  0.2813 -0.6874
15823TIP3    H168884   2.387   1.253  12.065  2.0309 -0.3157  0.6429
15823TIP3    H268885   2.346   1.110  12.036  1.3051  0.0053  0.0378
15824TIP3   OH268886   5.789   6.011  14.207  0.7541 -0.0949 -0.2164
15824TIP3    H168887   5.884   6.011  14.197  0.6728  1.0308 -1.1557
15824TIP3    H268888   5.774   6.043  14.296  1.2432 -0.0100 -0.1641
15825TIP3   OH268889   2.685   6.516   3.669 -0.0656  0.0184 -0.0601
15825TIP3    H168890   2.614   6.541   3.728 -0.8615  0.2023 -1.0815
15825TIP3    H268891   2.650   6.529   3.581  1.8134  1.8286 -0.6251
15826TIP3   OH268892   0.428   6.761  10.778  0.4655 -0.6637 -0.1991
15826TIP3    H168893   0.396   6.851  10.773  0.8170 -0.5598 -0.6963
15826TIP3    H268894   0.518   6.769  10.810  0.5867 -0.8163 -0.4941
15827TIP3   OH268895   0.334   4.017  14.090  0.0376  0.4366  0.0786
15827TIP3    H168896   0.394   4.092  14.094 -0.3298  0.6786  1.7200
15827TIP3    H268897   0.256   4.047  14.136  0.0150 -1.0704  1.0562
15828TIP3   OH268898   2.650   6.387  13.494 -0.1998 -0.3315 -0.0772
15828TIP3    H168899   2.573   6.368  13.442 -0.8156 -0.9063  1.0062
15828TIP3    H268900   2.666   6.480  13.480 -2.0066  0.1576  0.8369
15829TIP3   OH268901   5.375   4.497  11.591 -0.3472 -0.0661  0.3710
15829TIP3    H168902   5.411   4.427  11.646  0.4271 -0.5283 -0.6769
15829TIP3    H268903   5.280   4.485  11.595 -0.3702  0.4961  2.3327
15830TIP3   OH268904   3.760   6.780   5.743 -0.2206  0.6453  0.9841
15830TIP3    H168905   3.721   6.834   5.675 -1.4296  1.3005  2.1574
15830TIP3    H268906   3.807   6.842   5.799 -0.1639  0.2623  1.3663
15831TIP3   OH268907   0.101   5.157   3.115 -0.5323 -0.0205  0.2411
15831TIP3    H168908   0.040   5.221   3.080 -1.1309 -0.1855  0.9730
15831TIP3    H268909   0.179   5.208   3.137 -0.6706  0.3080 -0.0156
15832TIP3   OH268910   0.746   2.430   1.079 -0.1239 -0.3995 -0.1909
15832TIP3    H168911   0.784   2.504   1.033  0.5581  0.4960  1.7237
15832TIP3    H268912   0.818   2.393   1.129 -1.1207 -0.4526  1.2671
15833TIP3   OH268913   4.826   6.499  13.372  0.1037  0.9292  0.5002
15833TIP3    H168914   4.878   6.543  13.440  1.5857  0.4592 -0.2848
15833TIP3    H268915   4.809   6.412  13.408  0.9398  0.6591  0.2573
15834TIP3   OH268916   1.956   1.177  16.680  0.0139  0.1884  0.4429
15834TIP3    H168917   1.891   1.243  16.656  0.7232  0.6907 -0.1544
15834TIP3    H268918   1.987   1.204  16.766  1.2864  1.4666 -0.3607
15835TIP3   OH268919   2.121   3.443  14.403  0.1284 -0.3852  0.0856
15835TIP3    H168920   2.038   3.464  14.445  0.0520 -0.6722  0.0812
15835TIP3    H268921   2.098   3.428  14.311  0.4758  1.5053 -0.3509
15836TIP3   OH268922   5.547   6.339  11.539 -0.0560  0.5102 -0.1707
15836TIP3    H168923   5.488   6.279  11.493  0.4663  2.3569 -3.5429
15836TIP3    H268924   5.494   6.376  11.609 -2.0291  0.0146 -1.3284
15837TIP3   OH268925   5.280   6.639  13.661  0.1822  0.1030 -0.0701
15837TIP3    H168926   5.239   6.564  13.618  0.3484  1.4257 -2.7931
15837TIP3    H268927   5.332   6.681  13.592  0.0217  2.7727  1.2735
15838TIP3   OH268928   6.269   3.167  13.978  0.1121  0.8658  0.0736
15838TIP3    H168929   6.304   3.078  13.969  1.0334  1.1638  0.5939
15838TIP3    H268930   6.183   3.154  14.019  0.4753  0.2487  0.6645
15839TIP3   OH268931   5.059   5.649   5.555  0.5584  0.0389  0.3701
15839TIP3    H168932   5.007   5.669   5.632  0.2721  0.3732  0.0957
15839TIP3    H268933   5.135   5.707   5.562 -0.0451  0.9218 -0.1892
15840TIP3   OH268934   0.079   0.386   0.745 -0.5349 -0.1682 -0.3375
15840TIP3    H168935   0.146   0.444   0.710  0.2733 -1.3682 -0.8361
15840TIP3    H268936   0.043   0.433   0.820  0.3205  0.8235 -0.5321
15841TIP3   OH268937   2.191   5.410  16.928 -0.3375 -0.4969  1.0248
15841TIP3    H168938   2.219   5.397  16.838 -1.4950 -2.4753  0.8972
15841TIP3    H268939   2.271   5.401  16.980  0.0445 -1.2603  0.3208
15842TIP3   OH268940   1.288   0.532  13.662 -0.7777 -0.1056 -0.3763
15842TIP3    H168941   1.255   0.560  13.577 -0.7493 -0.2209 -0.4246
15842TIP3    H268942   1.236   0.454  13.683 -0.2323 -0.5474 -0.6514
15843TIP3   OH268943   4.032   4.189   4.687  0.2416 -0.3174 -0.6561
15843TIP3    H168944   4.116   4.143   4.693  0.3616  0.0521  1.2714
15843TIP3    H268945   4.055   4.281   4.698 -0.4078 -0.2259  0.0101
15844TIP3   OH268946   3.291   4.311   3.992  0.2930 -0.3173 -0.1935
15844TIP3    H168947   3.296   4.247   3.921  0.2384  0.9488 -1.3956
15844TIP3    H268948   3.363   4.372   3.974 -1.7119  1.9117 -1.1483
15845TIP3   OH268949   1.691   1.929  16.244  0.4189 -0.0116  0.6140
15845TIP3    H168950   1.657   1.843  16.269 -0.8108  0.2802  0.0240
15845TIP3    H268951   1.767   1.909  16.189 -0.1437 -0.7562  0.0759
15846TIP3   OH268952   5.596   0.100  16.899 -0.3932  0.6920  0.7856
15846TIP3    H168953   5.593   0.186  16.941 -0.0765  0.1170  2.0267
15846TIP3    H268954   5.521   0.053  16.935 -0.4421  0.3689  0.2732
15847TIP3   OH268955   2.718   1.445   5.561  0.1931 -0.5774 -0.3902
15847TIP3    H168956   2.641   1.407   5.520 -0.8597  1.2279 -0.2065
15847TIP3    H268957   2.709   1.539   5.546  1.6873 -0.1976  0.7905
15848TIP3   OH268958   2.106   2.563   4.246 -0.3679  0.1882  0.1512
15848TIP3    H168959   2.178   2.592   4.190  2.0186 -1.5898  2.0808
15848TIP3    H268960   2.146   2.500   4.306 -3.4958 -0.6316  1.5889
15849TIP3   OH268961   1.393   3.245   2.875  1.1130  0.1633 -0.1654
15849TIP3    H168962   1.431   3.164   2.911 -1.4228 -0.5430  1.2140
15849TIP3    H268963   1.332   3.274   2.943  1.6018  3.0177 -0.8500
15850TIP3   OH268964   4.705   0.187  17.045 -0.9501  0.5145 -0.7796
15850TIP3    H168965   4.643   0.198  16.973 -0.3886 -1.4174 -1.6205
15850TIP3    H268966   4.762   0.115  17.018  2.0321  2.4930 -0.2839
15851TIP3   OH268967   1.684   2.817  12.855  0.1974  0.2770  0.3859
15851TIP3    H168968   1.763   2.870  12.859  1.1724 -1.1242  0.2091
15851TIP3    H268969   1.711   2.735  12.814 -1.4476 -0.0589 -0.1051
15852TIP3   OH268970   3.421   3.252   6.271 -0.2555  0.1376 -0.0986
15852TIP3    H168971   3.348   3.193   6.288 -0.3318 -0.0650 -1.0949
15852TIP3    H268972   3.486   3.230   6.337 -0.6748 -0.3850  0.1441
15853TIP3   OH268973   0.875   1.039  14.199  0.1390  0.2352  0.2628
15853TIP3    H168974   0.862   0.950  14.229  1.9338  0.3592  1.5672
15853TIP3    H268975   0.787   1.077  14.194 -0.4421 -0.6193  2.8524
15854TIP3   OH268976   2.383   3.224  15.745  0.0194  0.1555 -0.7175
15854TIP3    H168977   2.396   3.271  15.662 -0.7032 -0.3483 -1.1260
15854TIP3    H268978   2.438   3.146  15.737 -0.4567 -0.1594 -0.9472
15855TIP3   OH268979   1.907   2.113  12.254  0.3733  0.2964  0.4921
15855TIP3    H168980   1.974   2.167  12.211  1.4731  0.3346  2.1718
15855TIP3    H268981   1.889   2.043  12.191  2.9811 -0.4703  0.4855
15856TIP3   OH268982   3.551   2.452   1.914  0.3255  0.2607 -0.1252
15856TIP3    H168983   3.510   2.371   1.944 -0.6475  1.4627  2.0228
15856TIP3    H268984   3.645   2.433   1.917  0.2356 -0.2409  2.3964
15857TIP3   OH268985   3.120   3.149  14.861  0.3759  0.6160 -0.3667
15857TIP3    H168986   3.170   3.129  14.782  3.6867  2.6222  0.9868
15857TIP3    H268987   3.071   3.228  14.840 -0.2942  0.0529 -0.9609
15858TIP3   OH268988   0.778   2.875  16.330 -0.0008  0.2206 -0.2773
15858TIP3    H168989   0.737   2.946  16.379  0.0657  1.1395 -1.5067
15858TIP3    H268990   0.711   2.807  16.325 -0.2651  0.4251  0.4119
15859TIP3   OH268991   3.503   5.708  10.878  0.9535  0.3930 -0.4071
15859TIP3    H168992   3.568   5.719  10.947  0.6194 -3.3205  0.7134
15859TIP3    H268993   3.419   5.719  10.921  0.7763 -0.7849 -0.4018
15860TIP3   OH268994   3.261   5.623  13.668  0.1706  0.8125 -0.0331
15860TIP3    H168995   3.218   5.539  13.680  0.2070  0.6008 -1.2819
15860TIP3    H268996   3.331   5.606  13.606  0.0240  1.8118 -0.4934
15861TIP3   OH268997   5.678   3.574   1.501  0.0159 -0.1977  0.1644
15861TIP3    H168998   5.695   3.520   1.424 -0.3480 -2.4339  1.5699
15861TIP3    H268999   5.583   3.589   1.500  0.3039  2.0284 -1.1611
15862TIP3   OH269000   5.625   1.458   3.929 -0.2885  0.3357  0.3041
15862TIP3    H169001   5.616   1.484   4.021  0.6441  1.0435  0.2150
15862TIP3    H269002   5.536   1.438   3.901 -0.4268 -1.4074  1.7792
15863TIP3   OH269003   3.165   1.350   3.012  0.1008 -0.6775 -0.1058
15863TIP3    H169004   3.235   1.378   2.952 -0.4038 -1.3945 -1.0598
15863TIP3    H269005   3.158   1.421   3.075  1.4487 -0.4314 -0.2067
15864TIP3   OH269006   5.052   5.050   3.218 -0.4066 -1.1172 -0.6710
15864TIP3    H169007   5.072   4.987   3.287 -1.1665  0.8695  1.5249
15864TIP3    H269008   5.137   5.089   3.196 -0.2570 -1.1648 -0.1964
15865TIP3   OH269009   6.171   3.058   5.349 -0.9428 -0.3083  0.2152
15865TIP3    H169010   6.107   2.987   5.349 -0.3649 -0.8666  1.8673
15865TIP3    H269011   6.256   3.014   5.360 -0.4259  0.5396 -0.2549
15866TIP3   OH269012   0.633   1.092   2.139  0.0539 -0.1131 -0.2600
15866TIP3    H169013   0.632   1.029   2.067 -0.1328 -1.2772  0.7296
15866TIP3    H269014   0.660   1.041   2.215  3.5751  1.7284 -0.0498
15867TIP3   OH269015   1.000   6.488   0.982 -0.3756  0.4861  0.3210
15867TIP3    H169016   1.024   6.579   0.968 -2.2449  0.9627 -0.0359
15867TIP3    H269017   0.980   6.482   1.075  0.0577  0.3466  0.4087
15868TIP3   OH269018   2.292   1.864   0.345 -0.5061  0.0706  0.1282
15868TIP3    H169019   2.379   1.882   0.308 -1.3806  3.4045 -0.6449
15868TIP3    H269020   2.254   1.799   0.285  1.1047 -0.8563  0.0460
15869TIP3   OH269021   1.304   4.647   1.391 -0.0033 -0.5979  0.2679
15869TIP3    H169022   1.380   4.692   1.427 -0.3415 -0.8262  1.3140
15869TIP3    H269023   1.326   4.632   1.299  0.8275  0.1437  0.3334
15870TIP3   OH269024   0.939   4.118  17.191 -0.1443  0.0526 -0.4687
15870TIP3    H169025   0.898   4.156  17.269 -0.1221  0.7612 -0.7936
15870TIP3    H269026   0.879   4.050  17.163 -0.0970 -0.2874  0.2339
15871TIP3   OH269027   5.504   0.544  16.632 -0.7852 -0.1692 -0.6049
15871TIP3    H169028   5.417   0.504  16.641 -0.4500 -1.6058 -2.9029
15871TIP3    H269029   5.558   0.498  16.696 -1.6670  0.7256  0.8357
15872TIP3   OH269030   2.244   6.603  14.837 -0.6889  0.0225  0.1557
15872TIP3    H169031   2.237   6.695  14.861  2.6023 -0.0327  1.8570
15872TIP3    H269032   2.177   6.559  14.889 -0.1804  1.1154  1.8034
15873TIP3   OH269033   2.404   2.908  13.380  0.5832  0.0975  0.5148
15873TIP3    H169034   2.458   2.915  13.458  1.3012  0.2800  0.0066
15873TIP3    H269035   2.465   2.885  13.310  0.3029  2.0442 -0.4210
15874TIP3   OH269036   2.715   3.659  17.206 -0.2262 -0.0873 -0.3160
15874TIP3    H169037   2.664   3.578  17.216 -1.3076  0.5064 -0.8103
15874TIP3    H269038   2.658   3.716  17.155  1.0541  0.5306 -1.0785
15875TIP3   OH269039   0.053   3.575   2.325 -0.5925 -0.2459  0.0839
15875TIP3    H169040   0.092   3.662   2.319 -0.3286 -0.3128  0.8210
15875TIP3    H269041   0.061   3.539   2.236 -0.6248  0.4409 -0.2051
15876TIP3   OH269042   0.344   0.424  14.143  0.2969  0.4767  0.1588
15876TIP3    H169043   0.390   0.503  14.172 -1.7310  1.5222  0.6902
15876TIP3    H269044   0.282   0.405  14.213 -0.4214 -0.6002 -0.7356
15877TIP3   OH269045   3.067   3.529   1.982  0.0876  0.2808  0.3398
15877TIP3    H169046   2.988   3.494   2.022  1.1982 -1.1166  1.4180
15877TIP3    H269047   3.122   3.556   2.056  0.6807  1.1077 -0.3755
15878TIP3   OH269048   2.435   0.560   1.576  0.0067  0.3798 -0.4377
15878TIP3    H169049   2.488   0.588   1.650 -0.5366  0.5197 -0.0900
15878TIP3    H269050   2.345   0.568   1.607 -0.1947 -0.8570 -0.6420
15879TIP3   OH269051   4.373   1.744   5.299  0.2942 -0.4485  0.1498
15879TIP3    H169052   4.321   1.664   5.291  0.5743 -0.6528  0.3631
15879TIP3    H269053   4.439   1.723   5.365  0.8989 -0.3257 -0.4112
15880TIP3   OH269054   4.885   4.877  11.614  0.7777 -0.2235  0.4980
15880TIP3    H169055   4.837   4.933  11.552  2.2446  0.3795 -0.1410
15880TIP3    H269056   4.834   4.796  11.618 -1.4654  1.1450  1.5125
15881TIP3   OH269057   1.367   4.870  14.104  0.3958 -0.0312 -0.0821
15881TIP3    H169058   1.377   4.905  14.192  0.0923  0.4474 -0.2344
15881TIP3    H269059   1.450   4.888  14.061  0.9160 -1.1642  0.4091
15882TIP3   OH269060   5.124   1.842   4.332 -0.5977 -0.2766  0.5370
15882TIP3    H169061   5.109   1.909   4.265 -1.2958 -0.8603  0.0992
15882TIP3    H269062   5.036   1.819   4.363 -0.4060 -1.3847  0.2927
15883TIP3   OH269063   4.822   1.734  15.723  0.4158  0.2152 -0.1629
15883TIP3    H169064   4.804   1.711  15.632  1.6863  2.2253 -1.0013
15883TIP3    H269065   4.741   1.711  15.770 -0.6970  0.1685 -1.9920
15884TIP3   OH269066   0.357   3.407   2.392  0.3361 -0.5904  0.1421
15884TIP3    H169067   0.365   3.405   2.297 -2.8548  3.0573 -0.3983
15884TIP3    H269068   0.276   3.360   2.411  0.0444  0.1764  0.8688
15885TIP3   OH269069   2.523   3.385  12.347 -0.2684  0.7242 -0.0065
15885TIP3    H169070   2.480   3.336  12.418 -0.3634 -0.4756 -0.8445
15885TIP3    H269071   2.451   3.433  12.305 -0.4944  0.2126 -0.2266
15886TIP3   OH269072   0.286   3.420   2.713  0.5117  0.5438 -0.4227
15886TIP3    H169073   0.209   3.431   2.656  0.5979  1.0242 -0.4463
15886TIP3    H269074   0.314   3.330   2.696 -0.6067  0.0325  0.2882
15887TIP3   OH269075   2.418   2.641   5.217 -0.4712 -0.0886  0.0860
15887TIP3    H169076   2.329   2.664   5.190 -1.5734 -3.6030  0.2247
15887TIP3    H269077   2.422   2.664   5.310 -2.0567 -1.7333  0.6324
15888TIP3   OH269078   4.148   1.283  14.067  0.1120 -0.1150  0.3044
15888TIP3    H169079   4.242   1.284  14.048  0.4006  0.8966  1.6203
15888TIP3    H269080   4.112   1.216  14.009  1.4260  0.4416 -1.2350
15889TIP3   OH269081   1.805   2.823  12.410  0.0419  0.2651  0.1679
15889TIP3    H169082   1.753   2.751  12.443  1.0575 -0.6514 -0.1699
15889TIP3    H269083   1.883   2.823  12.466  0.4435  0.5444 -0.3854
15890TIP3   OH269084   6.295   5.003   6.182 -0.2782 -0.2239  0.2541
15890TIP3    H169085   6.373   4.962   6.220 -0.4353 -0.2066  0.5946
15890TIP3    H269086   6.329   5.072   6.126 -0.0831  0.6440  1.4075
15891TIP3   OH269087   2.931   2.757  13.383 -0.4606  0.0949 -0.6956
15891TIP3    H169088   3.003   2.772  13.322 -0.1165 -1.7376 -0.8005
15891TIP3    H269089   2.969   2.773  13.470 -0.0855 -0.2545 -0.7917
15892TIP3   OH269090   5.702   4.621   2.358  0.0757 -0.2512  0.1157
15892TIP3    H169091   5.640   4.573   2.412 -0.5947 -0.9206 -1.2061
15892TIP3    H269092   5.780   4.565   2.357 -0.3962 -0.9199 -0.7051
15893TIP3   OH269093   1.932   3.009   4.793  0.6310 -0.2028 -0.3248
15893TIP3    H169094   2.020   3.012   4.754  0.1800  0.4881 -1.3241
15893TIP3    H269095   1.897   3.097   4.780  0.0748 -0.2421  0.7773
15894TIP3   OH269096   5.426   2.849   3.379 -0.2004  0.2729  0.2548
15894TIP3    H169097   5.399   2.770   3.426  0.6180 -0.0670  0.1664
15894TIP3    H269098   5.383   2.842   3.294  1.6409 -1.2539 -0.6321
15895TIP3   OH269099   2.421   4.162   1.853  0.0647  0.0381 -0.0595
15895TIP3    H169100   2.342   4.215   1.841 -0.3965 -0.7974 -0.7755
15895TIP3    H269101   2.400   4.103   1.925  0.0292 -0.2048 -0.2689
15896TIP3   OH269102   5.816   3.270  14.067 -0.8059  0.1595  0.0793
15896TIP3    H169103   5.725   3.301  14.069 -0.6696  0.6445  3.1373
15896TIP3    H269104   5.869   3.350  14.067 -0.4120 -0.0923  0.4195
15897TIP3   OH269105   1.884   6.555   2.319 -0.3435  0.0935 -0.4730
15897TIP3    H169106   1.869   6.643   2.284  0.1405  1.1207  1.7207
15897TIP3    H269107   1.872   6.565   2.414 -0.0233 -2.1681 -0.1452
15898TIP3   OH269108   3.785   4.752  11.930  0.2674  1.2202 -0.1512
15898TIP3    H169109   3.751   4.812  11.996  0.0680 -1.1511  2.0966
15898TIP3    H269110   3.707   4.723  11.882  0.0247  1.0289  0.3450
15899TIP3   OH269111   6.645   0.419   2.452  0.0725  0.7158  0.5699
15899TIP3    H169112   6.736   0.430   2.423  0.3796 -0.8075  0.9003
15899TIP3    H269113   6.629   0.495   2.509  0.9288  1.3266  0.0229
15900TIP3   OH269114   3.644   0.159  14.250  0.5049  0.2901 -0.3879
15900TIP3    H169115   3.553   0.144  14.275  0.4593 -1.5409 -1.4836
15900TIP3    H269116   3.655   0.254  14.255 -0.3638  0.3204  3.3331
15901TIP3   OH269117   1.607   0.485  13.088  0.1215  0.0603 -0.3737
15901TIP3    H169118   1.612   0.568  13.041  0.8877  1.7277  2.4079
15901TIP3    H269119   1.628   0.508  13.178 -0.8848 -2.9929  0.7459
15902TIP3   OH269120   5.064   5.616   4.009 -0.3477  0.1828 -0.1768
15902TIP3    H169121   5.086   5.600   3.917 -1.7359  0.5529 -0.5904
15902TIP3    H269122   5.060   5.711   4.017 -0.5105  0.1479  0.1966
15903TIP3   OH269123   2.846   0.203   3.444  0.7161 -0.2315 -0.2909
15903TIP3    H169124   2.750   0.200   3.441  0.7428 -1.0184 -0.8032
15903TIP3    H269125   2.866   0.255   3.521 -0.1267  0.2017 -0.3477
15904TIP3   OH269126   1.104   2.038  15.388  0.2812  0.7410 -0.2013
15904TIP3    H169127   1.168   2.086  15.335 -1.4559  2.1580 -1.1252
15904TIP3    H269128   1.149   2.022  15.471  1.6619  2.1323 -0.6273
15905TIP3   OH269129   0.989   3.119  14.920 -0.0168 -0.6734 -0.2981
15905TIP3    H169130   0.984   3.023  14.917 -0.9919 -0.6438  0.0316
15905TIP3    H269131   0.909   3.146  14.966  0.2882  0.2955 -0.3143
15906TIP3   OH269132   2.694   1.202  13.300  0.3279 -0.0073  0.3083
15906TIP3    H169133   2.689   1.116  13.342  0.0810 -1.0104 -1.6617
15906TIP3    H269134   2.603   1.234  13.299  0.4090  0.2469  0.9746
15907TIP3   OH269135   5.040   2.758  17.109 -0.7174  0.4171 -0.4165
15907TIP3    H169136   4.983   2.822  17.066 -2.1309  0.2870  1.1623
15907TIP3    H269137   5.047   2.789  17.199  0.7993 -0.2156 -0.2827
15908TIP3   OH269138   4.105   2.955  14.850  0.0393  0.0404  0.4357
15908TIP3    H169139   4.051   3.006  14.789 -1.7788 -0.8534  1.1992
15908TIP3    H269140   4.162   3.020  14.892 -0.6920  1.0969 -0.1509
15909TIP3   OH269141   6.053   1.032  14.984  0.2199  0.3330 -0.0276
15909TIP3    H169142   6.144   1.062  14.985  1.3086 -2.4043 -2.4129
15909TIP3    H269143   6.021   1.056  14.897 -0.2638 -1.4239 -0.3730
15910TIP3   OH269144   0.206   6.604   5.476  0.3344  0.1530  0.5321
15910TIP3    H169145   0.183   6.647   5.394  0.2888 -1.1441 -0.1604
15910TIP3    H269146   0.187   6.512   5.461 -0.5705  0.0136  2.3338
15911TIP3   OH269147   6.042   3.742   2.457 -0.1474 -0.4578 -0.4232
15911TIP3    H169148   6.075   3.826   2.490 -0.3643 -0.8651  0.8717
15911TIP3    H269149   6.047   3.751   2.362  2.2336  0.0770 -0.3173
15912TIP3   OH269150   3.469   2.181   4.395 -0.1415  0.0625  0.1382
15912TIP3    H169151   3.376   2.187   4.376 -0.1472  0.3889  0.2648
15912TIP3    H269152   3.512   2.227   4.322  0.0205 -1.5192 -0.8104
15913TIP3   OH269153   2.079   0.496   3.847  0.0571 -0.4167  0.3824
15913TIP3    H169154   2.047   0.493   3.757 -1.2458  0.7015  0.7602
15913TIP3    H269155   2.159   0.549   3.843 -1.3092  1.7804  0.1690
15914TIP3   OH269156   2.548   1.902   0.266  0.0038 -0.2063  0.4700
15914TIP3    H169157   2.623   1.935   0.316  1.5107 -1.0906 -1.0810
15914TIP3    H269158   2.548   1.954   0.186  0.8057 -2.1050 -0.8331
15915TIP3   OH269159   2.554   6.098   0.410  0.5201  0.2963 -0.0805
15915TIP3    H169160   2.505   6.022   0.379  0.4915 -0.0613  0.8156
15915TIP3    H269161   2.489   6.169   0.413  0.3473  0.1400 -0.0891
15916TIP3   OH269162   5.528   2.769   0.325  0.2369  0.0875 -0.0809
15916TIP3    H169163   5.619   2.796   0.336  0.6732 -0.7970 -1.2918
15916TIP3    H269164   5.527   2.724   0.240 -1.0782 -0.9347  0.4488
15917TIP3   OH269165   4.882   1.347   0.539 -0.7459  0.9143 -0.6803
15917TIP3    H169166   4.792   1.317   0.524 -0.1664 -1.4766  0.1901
15917TIP3    H269167   4.934   1.303   0.471  0.1733 -0.4327  0.8050
15918TIP3   OH269168   6.457   1.422  13.512  0.3492  0.0736 -0.1031
15918TIP3    H169169   6.516   1.348  13.522  0.4235  0.0709 -0.5311
15918TIP3    H269170   6.457   1.441  13.418 -0.1477  0.2218 -0.0797
15919TIP3   OH269171   2.273   1.069   4.028 -0.4264 -0.4860  1.0289
15919TIP3    H169172   2.264   0.974   4.017  0.2290 -0.5582  1.0825
15919TIP3    H269173   2.351   1.080   4.084  0.2737  0.1234 -0.0313
15920TIP3   OH269174   3.756   2.874  14.510  0.8188  0.2289  0.5230
15920TIP3    H169175   3.790   2.942  14.452  1.3607  0.0548  0.6320
15920TIP3    H269176   3.678   2.841  14.465  1.2374  0.0898 -0.1087
15921TIP3   OH269177   2.766   1.354   0.012 -0.2668 -0.1885  0.2190
15921TIP3    H169178   2.716   1.316  -0.059 -0.2172 -0.5783  0.3896
15921TIP3    H269179   2.855   1.362  -0.022 -0.6983  1.8118 -0.5851
15922TIP3   OH269180   6.385   3.851  17.028 -0.4411 -0.0193  0.1061
15922TIP3    H169181   6.449   3.805  16.974 -0.6430 -1.3721  0.9659
15922TIP3    H269182   6.435   3.880  17.104 -0.5433  0.2617  0.0677
15923TIP3   OH269183   4.145   4.452   3.658  0.6675 -0.1495 -0.2714
15923TIP3    H169184   4.096   4.378   3.695 -1.7278  1.1857 -0.5959
15923TIP3    H269185   4.184   4.496   3.734 -0.2413 -0.1521  0.2068
15924TIP3   OH269186   5.291   6.748  15.261 -0.0504 -0.2510  0.6560
15924TIP3    H169187   5.272   6.762  15.168 -1.5707  0.4210  1.0317
15924TIP3    H269188   5.287   6.653  15.272 -0.0753 -0.3211  0.0693
15925TIP3   OH269189   2.289   3.824   2.202 -0.4362 -0.0637 -0.4055
15925TIP3    H169190   2.240   3.760   2.151 -0.4940  0.7523 -1.4073
15925TIP3    H269191   2.227   3.854   2.269 -0.4197 -1.0062  0.0449
15926TIP3   OH269192   3.370   0.790  16.539  0.7619 -0.1004 -0.2320
15926TIP3    H169193   3.290   0.810  16.587  1.7304  1.1353  0.9632
15926TIP3    H269194   3.432   0.857  16.567  1.6442  0.1720 -2.6188
15927TIP3   OH269195   5.784   5.624  16.594 -0.4814 -0.1680  0.5518
15927TIP3    H169196   5.710   5.666  16.552 -0.3807  0.0419  0.5834
15927TIP3    H269197   5.749   5.541  16.628 -0.3294 -0.8066 -0.8138
15928TIP3   OH269198   5.765   5.265  15.714 -0.7891  0.1948  0.2050
15928TIP3    H169199   5.678   5.275  15.676  0.1190  1.5257 -1.6770
15928TIP3    H269200   5.791   5.176  15.689 -1.3442  0.0163  0.2312
15929TIP3   OH269201   3.368   4.442  15.895 -0.0199  0.1136 -0.4707
15929TIP3    H169202   3.309   4.490  15.954 -0.3409  0.5599 -1.1433
15929TIP3    H269203   3.383   4.359  15.940 -1.9267 -0.4055 -0.6956
15930TIP3   OH269204   6.539   1.188   1.284  0.0225 -0.0108  0.1941
15930TIP3    H169205   6.533   1.244   1.362 -0.1493 -0.1096  0.2551
15930TIP3    H269206   6.627   1.202   1.251  0.4080 -0.6370  0.9178
15931TIP3   OH269207   3.874   0.081  16.277 -0.3644 -0.3699 -0.5758
15931TIP3    H169208   3.926   0.158  16.256 -1.1457  0.0977 -0.8550
15931TIP3    H269209   3.936   0.008  16.276  0.6075  0.4060  0.8884
15932TIP3   OH269210   3.579   1.701  13.511  0.0750 -0.0439  0.1856
15932TIP3    H169211   3.523   1.656  13.447  0.7216 -0.0741 -0.3680
15932TIP3    H269212   3.635   1.758  13.458 -0.4192  1.0800  0.8460
15933TIP3   OH269213   1.450   1.261   2.106 -0.3448 -0.6217 -0.3168
15933TIP3    H169214   1.371   1.208   2.093  0.0760 -1.1470 -0.7664
15933TIP3    H269215   1.464   1.305   2.023 -0.1504 -0.5383 -0.2405
15934TIP3   OH269216   0.078   2.036   3.243 -0.3267  0.0832 -0.0982
15934TIP3    H169217   0.051   2.050   3.334 -1.3651  0.8335 -0.5018
15934TIP3    H269218   0.093   1.942   3.236 -0.7424 -0.0481  0.7176
15935TIP3   OH269219   5.710   2.487   3.155 -0.3327 -0.0139 -0.0668
15935TIP3    H169220   5.696   2.395   3.178 -1.2295  0.0267 -0.4291
15935TIP3    H269221   5.637   2.509   3.097  0.0649  0.8308 -0.2591
15936TIP3   OH269222   2.122   4.975   3.091 -0.1773 -0.3892  0.8293
15936TIP3    H169223   2.145   4.961   3.183  3.5314 -0.8180  0.0173
15936TIP3    H269224   2.141   4.891   3.048  1.9683  0.8189 -0.8227
15937TIP3   OH269225   2.426   2.961  15.701 -0.0123  0.3720  0.1361
15937TIP3    H169226   2.413   2.867  15.687  2.1888  0.2269 -1.4488
15937TIP3    H269227   2.458   2.967  15.791  0.0320 -0.4254  0.1855
15938TIP3   OH269228   3.569   3.135  11.867 -0.4027 -0.1727  0.0627
15938TIP3    H169229   3.534   3.203  11.809  0.5009 -0.4352 -0.8121
15938TIP3    H269230   3.652   3.109  11.827 -0.1052 -0.8778  1.0905
15939TIP3   OH269231   6.389   5.226   1.202  0.0630 -0.0219  0.4511
15939TIP3    H169232   6.298   5.195   1.199 -0.6737  1.8354  1.3754
15939TIP3    H269233   6.402   5.253   1.293  1.5892 -0.3176  0.3447
15940TIP3   OH269234   6.322   1.324   2.439  0.0569  0.0490  0.2620
15940TIP3    H169235   6.290   1.413   2.423  0.1236  0.1621  0.7318
15940TIP3    H269236   6.248   1.279   2.481 -1.2204 -1.1445 -2.9450
15941TIP3   OH269237   3.702   2.845   4.975 -0.3146 -0.3220 -0.0903
15941TIP3    H169238   3.617   2.889   4.985 -1.1815 -2.2691  2.1884
15941TIP3    H269239   3.692   2.792   4.896 -1.2704 -0.5736  0.1801
15942TIP3   OH269240   3.099   4.876   1.973 -0.3399  0.1610  0.4981
15942TIP3    H169241   3.048   4.956   1.988 -0.1898  0.5101 -0.7168
15942TIP3    H269242   3.076   4.850   1.883  0.0168 -0.8695  0.6921
15943TIP3   OH269243   3.285   2.987  15.952  0.6365 -0.1625 -0.1787
15943TIP3    H169244   3.256   3.074  15.979 -1.0058 -1.0353  1.0522
15943TIP3    H269245   3.272   2.933  16.030  1.2025 -1.6071 -1.0587
15944TIP3   OH269246   6.098   5.976  16.095 -0.2074 -0.3794  1.0085
15944TIP3    H169247   6.147   5.896  16.113  0.3326  0.5249  3.9569
15944TIP3    H269248   6.162   6.047  16.103 -0.6530  0.4478 -1.6175
15945TIP3   OH269249   1.448   3.417   1.670  0.3270 -0.8116  0.5382
15945TIP3    H169250   1.439   3.322   1.669  1.4379 -0.9277  0.7352
15945TIP3    H269251   1.540   3.433   1.648 -0.1578  0.2660 -0.8657
15946TIP3   OH269252   4.109   0.689  13.869 -0.1719  0.0941 -0.4684
15946TIP3    H169253   4.070   0.753  13.929  1.3441  0.3031  0.3431
15946TIP3    H269254   4.042   0.674  13.803 -1.8394 -0.0120  1.1853
15947TIP3   OH269255   2.519   6.030   1.331  0.5082 -0.6283 -0.0430
15947TIP3    H169256   2.571   5.959   1.367  3.1927  0.7596 -0.9208
15947TIP3    H269257   2.542   6.107   1.383  1.0538  0.4621 -1.7780
15948TIP3   OH269258   1.279   3.741  16.713 -0.0707 -0.5372  0.2450
15948TIP3    H169259   1.207   3.737  16.776 -0.7503  0.1649 -0.4661
15948TIP3    H269260   1.354   3.707  16.761 -0.4617  0.4118  1.6103
15949TIP3   OH269261   2.009   4.543  12.367  0.2804  0.4889  0.3116
15949TIP3    H169262   2.012   4.632  12.334 -0.3200 -0.1186 -1.4594
15949TIP3    H269263   2.068   4.494  12.310 -0.7489 -0.5924  0.1497
15950TIP3   OH269264   1.068   1.947  13.092 -0.1870  0.0435 -0.2980
15950TIP3    H169265   1.049   1.854  13.080 -1.5154  0.1518  0.7706
15950TIP3    H269266   1.151   1.960  13.046  0.8115 -2.0031  0.7806
15951TIP3   OH269267   1.188   6.105   3.910 -0.4672 -0.5688 -0.0007
15951TIP3    H169268   1.179   6.068   3.822 -1.7303  0.1927 -0.2103
15951TIP3    H269269   1.180   6.199   3.898 -0.8955 -0.4713  0.9592
15952TIP3   OH269270   4.826   3.061  13.269 -0.0662 -0.0700  0.0943
15952TIP3    H169271   4.881   2.991  13.303  0.4681  0.6326  0.7060
15952TIP3    H269272   4.788   3.101  13.347 -0.6578  0.0885 -0.2697
15953TIP3   OH269273   3.305   1.398  12.205  0.4523  0.1498  0.4368
15953TIP3    H169274   3.226   1.343  12.208  0.1551  0.3066 -2.3236
15953TIP3    H269275   3.273   1.487  12.221  0.1663  0.1270  0.0059
15954TIP3   OH269276   1.349   5.250  12.145  0.5608 -0.6648  0.5750
15954TIP3    H169277   1.314   5.293  12.067  1.6820 -0.7945 -0.0089
15954TIP3    H269278   1.298   5.170  12.153  0.3572 -0.5921  0.0507
15955TIP3   OH269279   1.808   2.131   1.002 -0.1548 -0.4457 -0.4120
15955TIP3    H169280   1.900   2.139   1.026  0.0377 -0.3175 -1.1822
15955TIP3    H269281   1.765   2.203   1.050  0.3013  0.1209 -0.8338
15956TIP3   OH269282   3.097   5.988   0.175  0.1094 -0.5115  0.1667
15956TIP3    H169283   3.120   5.989   0.083  1.5646 -0.4154  0.5129
15956TIP3    H269284   3.153   5.920   0.213 -0.4637 -0.5433  0.9799
15957TIP3   OH269285   0.042   0.898   3.458  0.1713  0.4596  0.3725
15957TIP3    H169286   0.114   0.881   3.519 -0.2580 -2.2241  0.2545
15957TIP3    H269287   0.075   0.868   3.373 -0.6439  0.3332  0.0908
15958TIP3   OH269288   4.718   5.970   5.087  0.1374  0.4308 -0.0421
15958TIP3    H169289   4.660   5.964   5.012  0.1378  0.9587 -0.0912
15958TIP3    H269290   4.753   5.882   5.098  0.7358  0.5145 -1.1350
15959TIP3   OH269291   4.080   0.765   3.436  0.8124  0.6195 -1.1654
15959TIP3    H169292   4.043   0.786   3.350 -2.5410  0.1867  0.0296
15959TIP3    H269293   4.004   0.747   3.491  2.6757  2.3731  2.3408
15960TIP3   OH269294   0.355   1.213  13.382  0.2690  0.1050 -0.2206
15960TIP3    H169295   0.340   1.142  13.444 -0.1676 -0.3999 -0.8925
15960TIP3    H269296   0.450   1.229  13.386  0.4975 -1.0659 -0.6580
15961TIP3   OH269297   0.029   6.043   0.695  0.0946  0.1484 -0.0591
15961TIP3    H169298   0.085   6.031   0.619  0.4992  0.9262  0.0982
15961TIP3    H269299  -0.051   6.083   0.660  0.0539 -0.0063 -0.1447
15962TIP3   OH269300   2.632   5.629   3.252 -0.1108 -0.6181 -0.8543
15962TIP3    H169301   2.578   5.607   3.176 -2.5114  0.8855  0.2775
15962TIP3    H269302   2.576   5.609   3.328  1.0972  0.5430  0.4136
15963TIP3   OH269303   5.150   5.851  12.130 -0.1069 -1.3626  0.1992
15963TIP3    H169304   5.075   5.910  12.137  0.5404 -0.7130  2.4862
15963TIP3    H269305   5.195   5.878  12.049  0.0691  1.2067  1.0607
15964TIP3   OH269306   4.966   0.884  15.457  0.4211 -0.3061 -0.0765
15964TIP3    H169307   4.911   0.805  15.457  0.4206 -0.3273  0.9623
15964TIP3    H269308   5.046   0.858  15.411  0.2574 -0.7964 -0.0861
15965TIP3   OH269309   0.874   0.917   5.988 -0.6147  0.3017 -0.0472
15965TIP3    H169310   0.821   0.956   5.918 -1.2867  0.8335  0.7408
15965TIP3    H269311   0.897   0.990   6.045  0.3689 -0.0452  0.0113
15966TIP3   OH269312   2.186   5.000  11.056 -0.1747  0.0532  0.0912
15966TIP3    H169313   2.198   4.966  10.967 -0.7738  0.1296 -0.0252
15966TIP3    H269314   2.223   5.088  11.052  1.5287 -0.6235  0.4407
15967TIP3   OH269315   0.779   4.666  16.713 -0.1036  0.0782 -0.1752
15967TIP3    H169316   0.734   4.688  16.795 -0.3805  0.6099 -0.4674
15967TIP3    H269317   0.817   4.749  16.683 -0.1375 -0.0780 -0.6647
15968TIP3   OH269318   3.670   5.359   4.144  0.2054 -0.5420 -0.4234
15968TIP3    H169319   3.715   5.404   4.216  1.0687  0.6871 -1.6751
15968TIP3    H269320   3.727   5.285   4.123  1.0726  0.3263 -1.2176
15969TIP3   OH269321   1.386   3.563  11.941 -0.4802  0.2958 -0.1313
15969TIP3    H169322   1.397   3.540  11.849  0.8164 -0.2009  0.1225
15969TIP3    H269323   1.442   3.640  11.953 -2.1541  1.5941 -0.1772
15970TIP3   OH269324   6.798   0.713   3.165  0.1726  0.3157  0.3884
15970TIP3    H169325   6.807   0.685   3.074  2.0842  0.3138  0.5451
15970TIP3    H269326   6.809   0.633   3.216 -2.7873 -0.0413  0.6332
15971TIP3   OH269327   2.959   0.493   0.689 -0.4675 -0.0189  0.0140
15971TIP3    H169328   2.914   0.415   0.657  3.3442 -1.9482 -1.2297
15971TIP3    H269329   2.989   0.538   0.609  0.4321  0.7608  0.7544
15972TIP3   OH269330   0.373   5.543  10.899  0.1246  0.2376 -0.3698
15972TIP3    H169331   0.331   5.475  10.846  1.0838 -0.6502 -0.0174
15972TIP3    H269332   0.456   5.559  10.855 -0.7971  2.4620 -1.4436
15973TIP3   OH269333   6.384   3.591  11.201  0.3678  0.3187  0.1681
15973TIP3    H169334   6.345   3.550  11.278  0.2557  0.2275  0.0644
15973TIP3    H269335   6.320   3.657  11.174 -0.0724 -0.3384 -0.4428
15974TIP3   OH269336   5.825   2.175  14.448 -0.6635 -0.4653 -0.0862
15974TIP3    H169337   5.784   2.225  14.518 -2.0574 -1.3166 -0.2514
15974TIP3    H269338   5.762   2.106  14.427  0.7043 -1.6175 -0.6283
15975TIP3   OH269339   4.201   1.588  10.991  0.2876 -0.2339 -0.0693
15975TIP3    H169340   4.227   1.567  10.901 -0.5284 -0.3571 -0.2885
15975TIP3    H269341   4.163   1.675  10.985  0.2382 -0.2391  0.1617
15976TIP3   OH269342   2.734   1.389   1.301 -0.1816  0.4021 -0.1010
15976TIP3    H169343   2.754   1.434   1.219  1.7616  0.1270  0.1688
15976TIP3    H269344   2.649   1.425   1.328 -1.1459  0.1001 -2.4621
15977TIP3   OH269345   3.164   3.196  11.762  0.2961  0.1484 -0.2015
15977TIP3    H169346   3.095   3.145  11.719  1.1646 -0.1213 -1.3189
15977TIP3    H269347   3.144   3.188  11.855 -0.6068 -0.7614 -0.4427
15978TIP3   OH269348   2.683   3.440   0.246  0.3220 -0.8513 -0.0191
15978TIP3    H169349   2.672   3.357   0.292 -1.1319 -0.6391  0.0887
15978TIP3    H269350   2.669   3.418   0.154 -0.3441 -0.7048  0.0373
15979TIP3   OH269351   4.148   1.925  11.256 -0.5462  0.2785 -0.2249
15979TIP3    H169352   4.112   1.894  11.173 -2.0254 -1.2131  0.9037
15979TIP3    H269353   4.173   1.845  11.303  1.6267  1.1505  0.2284
15980TIP3   OH269354   6.272   6.605  14.239  0.6393 -0.0065  0.1647
15980TIP3    H169355   6.196   6.630  14.291 -1.6077  0.9820 -3.2038
15980TIP3    H269356   6.263   6.510  14.227  1.4554 -0.3224  1.8718
15981TIP3   OH269357   4.401   1.098   0.275  0.2968  0.6576 -0.2681
15981TIP3    H169358   4.386   1.185   0.312  0.5088  0.3745  0.5013
15981TIP3    H269359   4.358   1.039   0.337 -0.7695  0.2735 -1.3313
15982TIP3   OH269360   6.488   2.317   2.827  0.2800  0.4505 -0.4166
15982TIP3    H169361   6.392   2.324   2.826  0.1841  0.2171  1.7930
15982TIP3    H269362   6.507   2.238   2.777 -0.5677  1.0636 -1.7938
15983TIP3   OH269363   4.651   6.108   3.284 -0.0140 -0.1912  0.2644
15983TIP3    H169364   4.726   6.055   3.258 -2.4136 -3.5849 -0.4002
15983TIP3    H269365   4.652   6.106   3.380  1.5469  1.2247  0.3337
15984TIP3   OH269366   4.417   6.283   1.995 -0.0151  0.4017 -0.4638
15984TIP3    H169367   4.402   6.377   1.992  1.7897  0.7942  0.8013
15984TIP3    H269368   4.512   6.275   2.004 -0.0490 -1.5809 -1.4279
15985TIP3   OH269369   3.979   2.925   4.793 -0.0825  0.3852  0.2761
15985TIP3    H169370   3.959   2.892   4.881 -0.5188  1.6073  0.6449
15985TIP3    H269371   4.008   2.847   4.745 -3.6147 -1.1430  0.3134
15986TIP3   OH269372   1.789   4.222   1.693  0.8252  0.1169 -0.5315
15986TIP3    H169373   1.774   4.238   1.786  0.7277  1.1693 -0.7084
15986TIP3    H269374   1.803   4.310   1.656  2.4988 -0.4101 -1.2318
15987TIP3   OH269375   3.754   2.790  12.501  0.3509  0.7738  0.1213
15987TIP3    H169376   3.779   2.809  12.591  0.5688 -1.8062  0.6863
15987TIP3    H269377   3.837   2.769  12.458  0.0425  0.2054 -0.1935
15988TIP3   OH269378   5.424   0.504  15.106  0.0303 -0.1923  0.9925
15988TIP3    H169379   5.355   0.499  15.172  1.2794 -0.4546  2.3336
15988TIP3    H269380   5.419   0.593  15.072  0.6611  0.6106  2.9135
15989TIP3   OH269381   3.160   1.722   0.513 -0.2494 -0.0537 -0.1534
15989TIP3    H169382   3.169   1.650   0.451  0.6027 -1.0398  1.0703
15989TIP3    H269383   3.066   1.731   0.527 -0.3399 -1.4156  0.2157
15990TIP3   OH269384   1.158   0.022   0.314 -0.1085  0.0648 -0.2494
15990TIP3    H169385   1.235  -0.012   0.269 -0.1215 -1.5010  0.8321
15990TIP3    H269386   1.192   0.060   0.396 -0.4571 -0.5400  0.1841
15991TIP3   OH269387   2.129   0.380   5.262 -0.0884  0.6654  0.7406
15991TIP3    H169388   2.119   0.381   5.357  0.0707 -1.1709  0.8040
15991TIP3    H269389   2.057   0.326   5.230  1.3328 -0.9180  0.0624
15992TIP3   OH269390   0.228   1.317  11.910 -0.3548 -0.0552  0.2200
15992TIP3    H169391   0.133   1.323  11.906 -0.4771 -1.7871 -0.5336
15992TIP3    H269392   0.254   1.379  11.979 -2.3952 -2.6256  3.6259
15993TIP3   OH269393   1.828   2.595  13.496 -0.5043  0.5547 -0.2187
15993TIP3    H169394   1.761   2.626  13.558 -0.0761  2.5158 -0.6762
15993TIP3    H269395   1.777   2.565  13.420 -1.0135 -1.5211  0.8747
15994TIP3   OH269396   0.074   2.136   3.874  0.5278 -0.0039  0.6231
15994TIP3    H169397   0.107   2.225   3.868  0.8247 -0.1147  0.6194
15994TIP3    H269398   0.007   2.140   3.942 -0.6051  0.5740 -0.4727
15995TIP3   OH269399   2.626   5.670  11.042 -0.1690 -0.2265  0.3163
15995TIP3    H169400   2.689   5.611  11.083  1.2560  0.5028 -0.7746
15995TIP3    H269401   2.590   5.620  10.969  1.2082  0.2871 -0.7504
15996TIP3   OH269402   2.790   0.009  12.496  0.2978  0.1207 -0.2397
15996TIP3    H169403   2.858  -0.054  12.469 -0.1011 -0.4678  0.1227
15996TIP3    H269404   2.746   0.032  12.414 -0.5884 -1.2918 -0.1821
15997TIP3   OH269405   5.125   4.488   0.982  0.3206  0.4202  0.1007
15997TIP3    H169406   5.131   4.575   1.020 -1.9375  0.3076  0.8380
15997TIP3    H269407   5.062   4.497   0.911  0.6960 -0.4491 -0.3631
15998TIP3   OH269408   0.648   1.773   4.716  0.3708 -0.0811  0.0196
15998TIP3    H169409   0.736   1.754   4.749  0.9169 -0.0364 -1.3351
15998TIP3    H269410   0.663   1.832   4.641 -0.6968 -1.1073 -1.0506
15999TIP3   OH269411   0.814   0.412  16.056 -0.3986 -0.0453  0.1330
15999TIP3    H169412   0.779   0.366  16.132 -0.8679  0.3393  0.1591
15999TIP3    H269413   0.821   0.504  16.084  0.0183 -0.0079 -0.0850
16000TIP3   OH269414   4.745   3.503  12.301  0.1543 -0.1238  0.1646
16000TIP3    H169415   4.795   3.584  12.317  0.9692 -0.2256 -1.6370
16000TIP3    H269416   4.787   3.438  12.356 -0.4768  0.6290  1.6029
16001TIP3   OH269417   4.489   0.525  16.480  0.0886  0.2548 -0.1938
16001TIP3    H169418   4.502   0.566  16.565  0.5115 -0.3764  0.0600
16001TIP3    H269419   4.426   0.581  16.434 -0.9590  0.0327  0.9314
16002TIP3   OH269420   5.932   0.910  12.368  0.4644  0.3415 -0.0552
16002TIP3    H169421   6.018   0.873  12.345  0.7221  1.6270 -1.2708
16002TIP3    H269422   5.873   0.876  12.301  0.5217  1.3777 -0.6413
16003TIP3   OH269423   3.545   5.840   1.714  0.1445 -0.2906 -0.1147
16003TIP3    H169424   3.587   5.875   1.792 -2.0210  2.1354  0.1087
16003TIP3    H269425   3.463   5.889   1.707  0.2465 -0.3625 -3.9598
16004TIP3   OH269426   1.612   0.970   3.139 -0.4880  0.3089 -0.4234
16004TIP3    H169427   1.540   0.981   3.201  0.0549  3.4377 -0.2153
16004TIP3    H269428   1.652   0.886   3.164 -2.7563 -0.4941  0.7802
16005TIP3   OH269429   5.681   3.972  15.773  0.4340  0.2798  0.4224
16005TIP3    H169430   5.746   3.977  15.844  1.1773 -1.0173 -0.1100
16005TIP3    H269431   5.717   4.027  15.704  1.1873 -0.7125 -0.0052
16006TIP3   OH269432   1.373   1.314  11.437 -0.2553 -0.2289  0.0194
16006TIP3    H169433   1.443   1.363  11.480  0.0806  0.0417 -0.8139
16006TIP3    H269434   1.298   1.374  11.438  0.4977  0.8784 -2.1148
16007TIP3   OH269435   5.947   1.772   5.178  0.0203  0.2925 -0.4645
16007TIP3    H169436   5.986   1.785   5.092 -0.1961 -0.2390 -0.6524
16007TIP3    H269437   6.017   1.733   5.231  0.3737  1.2966 -0.1818
16008TIP3   OH269438   5.101   6.291   1.963 -0.4716  0.1292 -0.4246
16008TIP3    H169439   5.146   6.362   1.918 -1.7896  1.1540 -0.2181
16008TIP3    H269440   5.046   6.336   2.028 -1.2619 -1.0881 -0.2277
16009TIP3   OH269441   4.683   0.912   0.409 -0.0617  0.0291 -0.1730
16009TIP3    H169442   4.725   0.830   0.382 -1.0997 -0.6851  0.2788
16009TIP3    H269443   4.754   0.975   0.416  0.7984 -0.9065 -0.2731
16010TIP3   OH269444   2.816   1.627   6.459  0.2217 -0.1417  0.0810
16010TIP3    H169445   2.793   1.589   6.374 -1.7074 -0.9263  0.8898
16010TIP3    H269446   2.772   1.570   6.523  0.7201  1.0546  1.5518
16011TIP3   OH269447   3.417   1.062   0.555 -0.3344  0.0248  0.0929
16011TIP3    H169448   3.383   1.116   0.626 -2.4731  1.4004 -1.8463
16011TIP3    H269449   3.486   1.009   0.596 -0.8446  1.3838  2.9420
16012TIP3   OH269450   1.993   3.765  15.016 -0.4643  0.5541 -0.2399
16012TIP3    H169451   1.982   3.858  14.996 -1.8028  0.3761 -0.4094
16012TIP3    H269452   2.080   3.760  15.055 -1.6600  2.4740  3.1549
16013TIP3   OH269453   4.250   3.977  14.173 -0.2533  0.4709  0.0548
16013TIP3    H169454   4.209   4.049  14.126  1.8395  1.1047 -0.9182
16013TIP3    H269455   4.271   3.912  14.106  1.9935  1.0076  0.1506
16014TIP3   OH269456   4.979   4.109   5.539  0.2063  0.1613  0.4113
16014TIP3    H169457   5.063   4.065   5.534  0.9327  1.5957 -0.8775
16014TIP3    H269458   4.958   4.131   5.448 -0.3276  1.9988  0.9372
16015TIP3   OH269459   4.588   2.079   2.807  0.2537  0.0772 -0.2586
16015TIP3    H169460   4.524   2.150   2.805  1.3348  1.0458 -2.1950
16015TIP3    H269461   4.654   2.108   2.871 -0.7820 -0.5890  1.1803
16016TIP3   OH269462   0.131   4.216   5.391  0.6966  0.1643 -0.1202
16016TIP3    H169463   0.196   4.266   5.342  0.3970  0.6071 -0.0729
16016TIP3    H269464   0.146   4.242   5.482 -0.5886  1.5109 -0.2592
16017TIP3   OH269465   4.865   5.335   5.140  0.2567  0.5498  0.0043
16017TIP3    H169466   4.900   5.415   5.181 -0.8206  1.0144  0.0553
16017TIP3    H269467   4.861   5.272   5.212  2.6380 -0.1111 -0.3610
16018TIP3   OH269468   3.782   6.453  16.939 -0.5344  0.4751 -0.4805
16018TIP3    H169469   3.837   6.501  17.001 -1.6467 -1.3224  2.0709
16018TIP3    H269470   3.832   6.374  16.920 -0.9223  0.2454 -0.5481
16019TIP3   OH269471   1.418   3.104  13.368  0.1314 -0.8024  0.2384
16019TIP3    H169472   1.437   3.134  13.279  0.2206 -0.4184  0.3841
16019TIP3    H269473   1.469   3.024  13.378  1.9567  0.3533  0.7292
16020TIP3   OH269474   0.625   2.555   0.064 -0.4663  0.2970  0.6458
16020TIP3    H169475   0.642   2.476   0.013  2.2849  0.8274  0.5990
16020TIP3    H269476   0.674   2.543   0.145 -1.1747  1.3787  1.2655
16021TIP3   OH269477   2.709   5.233  11.544  0.3578 -0.2622  0.2924
16021TIP3    H169478   2.634   5.182  11.515 -1.5329  1.5795  1.6624
16021TIP3    H269479   2.727   5.201  11.633  0.0934  0.4484  0.6075
16022TIP3   OH269480   5.028   1.527   3.583  0.1933 -0.2285 -0.1680
16022TIP3    H169481   4.970   1.597   3.611  0.3247  0.1973 -0.9322
16022TIP3    H269482   5.080   1.506   3.661  0.1669  0.5306  0.0585
16023TIP3   OH269483   5.571   3.991   1.972 -0.1702 -0.5612 -0.4103
16023TIP3    H169484   5.512   4.019   1.902 -0.5419 -0.6894 -0.1524
16023TIP3    H269485   5.516   3.989   2.051  0.5387  0.9025  0.1750
16024TIP3   OH269486   5.055   5.255   5.945  0.6236 -0.1849 -0.1758
16024TIP3    H169487   4.965   5.242   5.916  0.8680  0.5061 -1.3379
16024TIP3    H269488   5.056   5.344   5.981  0.5449 -0.6930  1.1387
16025TIP3   OH269489   0.022   4.020  16.883  0.1874 -0.0254  0.1647
16025TIP3    H169490   0.095   3.994  16.827  1.1274  0.7744  0.9787
16025TIP3    H269491   0.063   4.053  16.963 -1.0888 -0.4349  1.0390
16026TIP3   OH269492   1.954   0.959  12.185  0.4757 -0.2174 -0.5436
16026TIP3    H169493   1.905   0.966  12.103 -0.8256 -1.1046  0.1214
16026TIP3    H269494   2.025   1.022  12.176  0.0097  0.1283 -2.1065
16027TIP3   OH269495   4.190   2.284   4.432  0.3909 -0.5557 -0.4853
16027TIP3    H169496   4.274   2.261   4.393  0.9300 -0.5551  0.6529
16027TIP3    H269497   4.129   2.282   4.358  1.8024  2.0235 -1.8941
16028TIP3   OH269498   0.507   5.384  16.787  0.2988 -0.5779  0.9784
16028TIP3    H169499   0.585   5.439  16.796 -0.3784  0.7446 -0.6756
16028TIP3    H269500   0.454   5.406  16.863  0.5347  0.2541  0.9203
16029TIP3   OH269501   6.720   4.026  10.513  0.2160  0.1718  0.5184
16029TIP3    H169502   6.665   4.006  10.437 -0.5188  0.3609  0.9889
16029TIP3    H269503   6.809   4.013  10.482 -0.0936 -0.1910 -0.2508
16030TIP3   OH269504   6.312   1.164  11.667 -0.3290 -0.2003  0.1252
16030TIP3    H169505   6.310   1.259  11.662  2.1094 -0.1184 -1.0219
16030TIP3    H269506   6.222   1.137  11.652 -0.8817  1.9055 -0.7177
16031TIP3   OH269507   6.447   4.600  14.688  0.0934  0.1633 -0.2672
16031TIP3    H169508   6.512   4.650  14.738  1.2816 -0.6045 -0.9908
16031TIP3    H269509   6.477   4.510  14.692 -0.7626 -0.1666 -0.8976
16032TIP3   OH269510   5.083   2.142  12.923 -0.6789  0.1794 -0.1815
16032TIP3    H169511   5.158   2.126  12.866 -0.7265 -1.5686  0.1971
16032TIP3    H269512   5.109   2.109  13.009 -1.1719  1.3782  0.4575
16033TIP3   OH269513   2.413   2.474   5.714 -0.3015  0.4715  0.3371
16033TIP3    H169514   2.339   2.438   5.764 -0.6003  2.9482  1.8456
16033TIP3    H269515   2.486   2.474   5.776  0.3196  0.3259 -0.3812
16034TIP3   OH269516   1.464   5.459   6.481  0.3688  0.0864 -0.3683
16034TIP3    H169517   1.406   5.527   6.448 -0.4643 -1.0925 -1.4573
16034TIP3    H269518   1.407   5.401   6.532  0.7027 -0.6886 -0.8484
16035TIP3   OH269519   3.085   6.524  11.637  0.0484 -0.2241 -0.5800
16035TIP3    H169520   3.154   6.487  11.582 -0.1922 -1.9566  0.2205
16035TIP3    H269521   3.008   6.472  11.617 -0.3201 -0.1525  0.5735
16036TIP3   OH269522   0.512   2.100   4.305  0.1532  0.0272  0.0921
16036TIP3    H169523   0.491   2.192   4.321 -1.6080 -0.0309 -1.5372
16036TIP3    H269524   0.467   2.052   4.374 -2.3880  0.1699 -1.3471
16037TIP3   OH269525   2.013   4.746   2.628  0.1974  0.0942 -0.3747
16037TIP3    H169526   1.923   4.745   2.597 -0.5786  1.6156  1.5906
16037TIP3    H269527   2.059   4.803   2.565 -0.5241  0.4079 -0.6275
16038TIP3   OH269528   5.938   3.033  17.125  0.4882  0.5814  0.4198
16038TIP3    H169529   5.913   3.082  17.047  0.7946 -0.2392 -0.2099
16038TIP3    H269530   5.864   2.973  17.140  0.1408  1.1768  1.1476
16039TIP3   OH269531   0.828   4.803   5.767 -0.8674  0.1603 -0.0920
16039TIP3    H169532   0.911   4.848   5.785 -1.6164  1.3904  0.4027
16039TIP3    H269533   0.767   4.840   5.830 -1.5525 -1.5163  0.2708
16040TIP3   OH269534   0.754   3.615  16.095 -0.1949 -0.4665  0.0563
16040TIP3    H169535   0.773   3.668  16.018 -1.2286  0.4138  0.3880
16040TIP3    H269536   0.663   3.586  16.083 -0.1637 -0.8390  0.6502
16041TIP3   OH269537   2.398   3.525  16.944  0.0520  0.7106  0.7893
16041TIP3    H169538   2.437   3.611  16.959 -0.1393  0.4623  3.1928
16041TIP3    H269539   2.400   3.483  17.030 -1.3904 -1.0603  0.0258
16042TIP3   OH269540   3.842   5.903  11.210 -0.4488  0.1880 -0.0768
16042TIP3    H169541   3.818   5.838  11.276  1.3298 -1.4955 -1.0067
16042TIP3    H269542   3.929   5.933  11.236 -0.0108 -0.0084 -1.2439
16043TIP3   OH269543   1.079   5.201   3.198 -0.4577 -0.2746  0.0529
16043TIP3    H169544   1.001   5.145   3.197  0.5898 -1.7874 -0.8541
16043TIP3    H269545   1.113   5.192   3.287 -0.9880 -0.0561  0.2870
16044TIP3   OH269546   0.707   2.478  13.992 -0.0460  0.0906  0.4750
16044TIP3    H169547   0.784   2.515  14.034 -0.2669  1.3233 -0.1506
16044TIP3    H269548   0.724   2.489  13.898 -0.6446 -0.3437  0.3120
16045TIP3   OH269549   2.518   5.026   0.221  0.2351 -0.4258 -0.2119
16045TIP3    H169550   2.566   4.971   0.283 -0.3223 -1.5206 -0.7143
16045TIP3    H269551   2.586   5.081   0.180  0.7278 -0.3475  0.6867
16046TIP3   OH269552   6.434   5.598   1.802 -0.2640  0.1286  0.4974
16046TIP3    H169553   6.404   5.516   1.843  1.3967 -0.3335  0.8529
16046TIP3    H269554   6.455   5.655   1.876  0.9502 -0.0325  0.2947
16047TIP3   OH269555   5.684   1.929  16.961  0.0758 -1.1866 -0.2897
16047TIP3    H169556   5.757   1.966  17.011  0.5273 -3.2496  0.7130
16047TIP3    H269557   5.613   1.923  17.024 -0.6350 -0.2270 -0.9709
16048TIP3   OH269558   0.491   5.057   1.235  0.4925  0.4835 -0.1748
16048TIP3    H169559   0.400   5.076   1.212  0.7620  2.2339  0.0164
16048TIP3    H269560   0.496   5.072   1.330  0.7231 -0.8045  0.0351
16049TIP3   OH269561   2.118   5.018   3.406 -0.3380  0.0056 -0.3238
16049TIP3    H169562   2.185   4.950   3.396 -0.5118 -0.2710  0.3354
16049TIP3    H269563   2.114   5.033   3.500 -2.0345 -0.8209 -0.2288
16050TIP3   OH269564   3.348   6.076   1.017 -0.5953 -0.2415  0.2042
16050TIP3    H169565   3.443   6.063   1.010 -0.7956 -2.2800  0.5738
16050TIP3    H269566   3.338   6.161   1.059  1.0616  0.1107 -0.0606
16051TIP3   OH269567   4.237   3.848  11.327  0.1777 -0.6034  0.0253
16051TIP3    H169568   4.158   3.854  11.273  1.1773  2.5747 -1.2934
16051TIP3    H269569   4.205   3.830  11.415 -2.0879  1.2399 -0.3478
16052TIP3   OH269570   4.570   4.697   5.518  0.0629 -0.3593  0.5125
16052TIP3    H169571   4.618   4.659   5.444 -1.2042 -2.3261  0.6446
16052TIP3    H269572   4.630   4.688   5.592  0.4347 -0.5359  0.1924
16053TIP3   OH269573   6.069   1.802   1.746  0.3246 -0.7627  0.0671
16053TIP3    H169574   6.024   1.747   1.681 -0.6581 -0.9341  0.8782
16053TIP3    H269575   6.062   1.754   1.828  1.7350 -0.6372  0.2926
16054TIP3   OH269576   1.423   6.431  13.231  0.6036  0.0790 -0.8542
16054TIP3    H169577   1.456   6.373  13.163 -0.0169  0.0554 -1.1457
16054TIP3    H269578   1.364   6.491  13.184 -0.0315 -0.1064 -0.3015
16055TIP3   OH269579   4.883   3.578   5.843  0.0878 -0.0547 -0.0248
16055TIP3    H169580   4.815   3.565   5.909  0.0445  0.8509  0.1163
16055TIP3    H269581   4.934   3.497   5.845 -2.5769 -1.9891 -2.0172
16056TIP3   OH269582   2.254   5.070  14.222  0.5098 -0.0720  0.3249
16056TIP3    H169583   2.202   5.014  14.280 -1.3380  0.5528 -0.6707
16056TIP3    H269584   2.336   5.084  14.270 -0.0388 -1.4461  1.7465
16057TIP3   OH269585   2.428   3.091   2.446  0.1347  0.0728  0.5528
16057TIP3    H169586   2.409   3.000   2.423 -0.0437 -0.1635  1.5677
16057TIP3    H269587   2.452   3.133   2.363  0.1744 -0.8856  0.0683
16058TIP3   OH269588   5.481   3.968   3.950 -0.2572  0.3008 -0.3833
16058TIP3    H169589   5.516   3.949   4.037  0.5707 -2.2123 -1.2010
16058TIP3    H269590   5.433   4.050   3.962  0.2231  0.2898  2.3186
16059TIP3   OH269591   3.810   4.354  10.944 -0.1268 -0.1486 -0.3972
16059TIP3    H169592   3.790   4.447  10.954  0.0018 -0.1431 -0.1860
16059TIP3    H269593   3.740   4.320  10.888 -1.4617 -0.3825  1.3176
16060TIP3   OH269594   3.122   2.282  14.261  0.2996  0.9388  0.4654
16060TIP3    H169595   3.056   2.214  14.276 -0.1519  0.9990 -1.1447
16060TIP3    H269596   3.083   2.340  14.196  1.9648  0.9266 -0.5832
16061TIP3   OH269597   1.250   2.296   1.846 -0.1651 -0.0842  0.0414
16061TIP3    H169598   1.169   2.278   1.893 -0.0288 -2.6374 -0.5237
16061TIP3    H269599   1.319   2.258   1.902  0.4283  0.3888 -0.3582
16062TIP3   OH269600   5.875   5.337   1.120 -0.3675 -0.5702  0.3712
16062TIP3    H169601   5.864   5.330   1.215 -1.1965 -1.3413  0.2293
16062TIP3    H269602   5.796   5.382   1.090  0.2424  0.3544  0.1231
16063TIP3   OH269603   1.247   6.738   1.458  0.2150 -0.3113 -0.0760
16063TIP3    H169604   1.177   6.733   1.522 -0.8078  1.3307 -0.9925
16063TIP3    H269605   1.235   6.659   1.404 -2.1262  0.7809 -1.3210
16064TIP3   OH269606   0.689   2.098  16.960  0.0875  0.2469  0.4495
16064TIP3    H169607   0.603   2.100  16.918 -0.1239  1.3794  0.9037
16064TIP3    H269608   0.747   2.061  16.893 -0.9526 -1.7673  0.5902
16065TIP3   OH269609   3.573   2.245   4.157 -0.0719  0.6542  0.0114
16065TIP3    H169610   3.587   2.253   4.063  2.0290 -0.0717  0.2073
16065TIP3    H269611   3.620   2.319   4.195 -1.5375  1.3879  0.5046
16066TIP3   OH269612   1.304   6.085  11.651  0.2632 -0.0202  0.1703
16066TIP3    H169613   1.399   6.077  11.651  0.1738 -1.8314  1.6394
16066TIP3    H269614   1.278   6.063  11.562  1.2335  1.4846 -0.5257
16067TIP3   OH269615   0.645   4.222   0.467 -0.2851 -0.7104 -0.1890
16067TIP3    H169616   0.559   4.180   0.476 -0.1877 -0.9884 -0.5163
16067TIP3    H269617   0.646   4.289   0.535  0.0877 -2.1373  1.2936
16068TIP3   OH269618   0.335   3.571  14.825  0.1441  0.0746 -0.2104
16068TIP3    H169619   0.384   3.588  14.905 -0.4814  0.3904  0.1167
16068TIP3    H269620   0.256   3.625  14.833 -0.6937 -1.1014 -0.2994
16069TIP3   OH269621   3.056   6.503   0.692  0.6382 -0.1049 -0.2320
16069TIP3    H169622   3.026   6.532   0.606  1.3001 -0.5071 -0.6094
16069TIP3    H269623   3.124   6.565   0.717  0.8207 -0.2999 -0.2407
16070TIP3   OH269624   1.517   4.045   5.335  0.0696 -0.6987 -0.3956
16070TIP3    H169625   1.536   4.118   5.394 -0.5932  0.0109 -1.0312
16070TIP3    H269626   1.601   4.001   5.324  0.7222  0.6002 -0.8242
16071TIP3   OH269627   2.774   3.493  14.872  0.7009  0.4026 -0.0742
16071TIP3    H169628   2.842   3.556  14.846 -0.8198  2.2187  0.1514
16071TIP3    H269629   2.768   3.433  14.798  0.7554  1.7993 -1.2562
16072TIP3   OH269630   3.187   3.822   0.679  0.1017 -0.0660  0.1375
16072TIP3    H169631   3.147   3.830   0.765 -0.4376 -1.6662  0.0607
16072TIP3    H269632   3.238   3.742   0.683  0.2480 -0.0498 -0.9649
16073TIP3   OH269633   6.353   5.925   1.863 -0.4100  0.6623  0.1555
16073TIP3    H169634   6.278   5.875   1.895 -2.0265  1.8976 -1.5194
16073TIP3    H269635   6.360   5.999   1.922  0.8955 -0.5299  1.5875
16074TIP3   OH269636   1.994   5.802  15.936 -0.3017 -0.4826 -0.0730
16074TIP3    H169637   1.933   5.739  15.974 -1.1973  0.2734 -0.2162
16074TIP3    H269638   2.051   5.828  16.008 -1.2101  0.0263  0.4713
16075TIP3   OH269639   2.149   0.006   4.283  0.0322 -0.1422 -0.1626
16075TIP3    H169640   2.243   0.014   4.270  0.1269  0.7899  0.8832
16075TIP3    H269641   2.114   0.094   4.266 -0.6341 -0.4538 -0.4484
16076TIP3   OH269642   2.215   0.529  14.427 -0.2432  0.2192  0.1727
16076TIP3    H169643   2.133   0.491  14.396 -0.2717  0.2080  0.2634
16076TIP3    H269644   2.225   0.609  14.375 -0.5088  0.4269  0.4384
16077TIP3   OH269645   0.052   5.971  13.701  0.0479  0.4794  0.6180
16077TIP3    H169646   0.127   5.915  13.724  0.4861  0.3357 -0.9893
16077TIP3    H269647  -0.020   5.910  13.686 -0.5917  0.6507  2.6833
16078TIP3   OH269648   4.184   5.381  11.700  0.3978  0.0200  0.4072
16078TIP3    H169649   4.271   5.415  11.720  0.9133 -1.3555  0.6171
16078TIP3    H269650   4.133   5.398  11.779  0.2991  1.3139  0.0876
16079TIP3   OH269651   4.387   1.865   6.179  0.1801 -0.2087 -0.3387
16079TIP3    H169652   4.403   1.843   6.271  1.5504  1.0724 -0.2278
16079TIP3    H269653   4.412   1.957   6.172 -2.4420  0.5107 -1.4194
16080TIP3   OH269654   3.598   5.971  10.991  0.9270  0.3910 -0.2524
16080TIP3    H169655   3.632   5.929  11.070 -0.4615 -0.3235 -0.0165
16080TIP3    H269656   3.676   5.982  10.935  1.4629 -2.0157 -0.1146
16081TIP3   OH269657   2.440   0.444  12.702 -0.3065  0.0128 -0.2101
16081TIP3    H169658   2.510   0.437  12.767  1.3353 -0.3769 -1.9251
16081TIP3    H269659   2.475   0.400  12.624 -2.3732  0.0343 -1.2228
16082TIP3   OH269660   6.092   3.202  14.774  0.0617  0.8180 -0.1528
16082TIP3    H169661   6.068   3.159  14.692 -0.6473  2.0866 -0.6290
16082TIP3    H269662   6.020   3.184  14.833  0.0115  0.9079 -0.1866
16083TIP3   OH269663   0.057   6.765   4.957 -0.0318 -0.4548 -0.6747
16083TIP3    H169664   0.026   6.707   4.887  1.3933 -0.4383 -1.3717
16083TIP3    H269665   0.028   6.852   4.931 -0.5367 -0.6052 -0.6213
16084TIP3   OH269666   4.397   1.895   4.416  0.0721  0.3170 -0.5753
16084TIP3    H169667   4.353   1.825   4.464 -1.1303  0.6803 -1.1350
16084TIP3    H269668   4.402   1.863   4.326  0.2057  0.6304 -0.6795
16085TIP3   OH269669   1.395   0.327  16.523  0.4605 -0.4692  0.2499
16085TIP3    H169670   1.483   0.352  16.492 -0.5867  1.8141 -1.1838
16085TIP3    H269671   1.384   0.376  16.604 -0.7525  2.3102 -1.4337
16086TIP3   OH269672   4.953   1.900  17.192  0.0395  0.7935 -0.0496
16086TIP3    H169673   4.945   1.982  17.143 -1.0915  0.2338 -0.8651
16086TIP3    H269674   4.874   1.898  17.246 -0.0908  0.1171 -0.2587
16087TIP3   OH269675   3.839   1.652  16.333  0.6696  0.1895  0.0146
16087TIP3    H169676   3.863   1.646  16.240  1.4934  1.2149  0.1442
16087TIP3    H269677   3.744   1.648  16.332  0.5953  1.3937 -1.0037
16088TIP3   OH269678   0.927   6.798  12.786 -0.4960 -0.1004 -1.2393
16088TIP3    H169679   0.870   6.870  12.759  1.0898  0.2452 -4.0089
16088TIP3    H269680   0.925   6.736  12.714  2.1643 -0.2940 -1.2716
16089TIP3   OH269681   0.157   2.443   2.863  0.3620  0.2428 -0.7598
16089TIP3    H169682   0.112   2.376   2.914 -1.0015  2.1563  0.7011
16089TIP3    H269683   0.095   2.467   2.794  0.1233  1.1410 -0.2536
16090TIP3   OH269684   2.014   2.097  15.397 -0.3548 -0.3322 -0.4032
16090TIP3    H169685   2.101   2.060  15.411  0.1829  0.8430 -0.4476
16090TIP3    H269686   1.964   2.027  15.356  0.4179 -1.2003  0.0945
16091TIP3   OH269687   2.040   1.121  14.255  0.3007  0.1428  0.4849
16091TIP3    H169688   2.085   1.097  14.174  0.3789  0.6321  0.3829
16091TIP3    H269689   1.966   1.061  14.260 -0.9508  1.4795 -1.0566
16092TIP3   OH269690   5.233   6.048   5.377 -0.3130  0.1953  0.7262
16092TIP3    H169691   5.193   6.067   5.461 -0.1271  0.3724  0.7749
16092TIP3    H269692   5.296   6.119   5.363  0.2497 -0.2780  0.8253
16093TIP3   OH269693   2.574   4.304   0.552 -0.0198  0.1199  0.2841
16093TIP3    H169694   2.503   4.325   0.492 -1.0000  0.3253  1.5010
16093TIP3    H269695   2.534   4.251   0.620  1.1288 -0.3010  0.6702
16094TIP3   OH269696   0.423   4.625   5.975  0.4377 -0.2415 -0.4439
16094TIP3    H169697   0.440   4.640   6.068 -1.0274 -0.7575 -0.0663
16094TIP3    H269698   0.453   4.535   5.959  1.6691  0.2038 -0.7466
16095TIP3   OH269699   3.289   5.095  14.053  0.2661  0.6905 -0.1736
16095TIP3    H169700   3.312   5.003  14.042 -0.6702  0.2328  1.3406
16095TIP3    H269701   3.351   5.128  14.119 -1.1479  0.3365  1.4195
16096TIP3   OH269702   0.257   0.805  11.822  0.6236  0.3732 -0.5116
16096TIP3    H169703   0.221   0.879  11.773 -1.4568 -1.3214 -1.7141
16096TIP3    H269704   0.183   0.772  11.873  0.8206 -2.2189 -1.7476
16097TIP3   OH269705   2.559   3.462   4.265  0.2226  0.4226 -0.2272
16097TIP3    H169706   2.479   3.450   4.214  0.4812  0.2878 -0.6089
16097TIP3    H269707   2.614   3.387   4.242 -0.5888 -0.9933  2.0891
16098TIP3   OH269708   3.328   0.976   2.131 -0.6419 -0.0183  0.1015
16098TIP3    H169709   3.377   1.048   2.089 -0.7439  0.3300  0.5651
16098TIP3    H269710   3.288   0.928   2.058  0.1568 -0.1377 -0.2688
16099TIP3   OH269711   0.908   4.271  16.691  0.1402  0.4448  0.2032
16099TIP3    H169712   0.979   4.334  16.706 -0.6611  1.2500  0.7009
16099TIP3    H269713   0.911   4.213  16.767  0.7913 -0.0487 -0.1871
16100TIP3   OH269714   0.352   5.781   6.224  0.8738 -0.3426 -0.2332
16100TIP3    H169715   0.385   5.862   6.264  2.0200 -1.0572  0.3159
16100TIP3    H269716   0.274   5.809   6.176  1.4432  1.1566 -0.3596
16101TIP3   OH269717   3.625   0.675  14.636  0.6300  0.1025 -0.2776
16101TIP3    H169718   3.542   0.673  14.588  1.0295 -2.1254 -0.9964
16101TIP3    H269719   3.633   0.765  14.666 -0.4506  1.2180 -2.9859
16102TIP3   OH269720   6.049   0.341   6.090 -0.4300 -0.0954  0.0659
16102TIP3    H169721   6.069   0.248   6.099 -1.0226 -0.0815  2.0395
16102TIP3    H269722   6.040   0.372   6.180  0.2169  1.9938 -0.5345
16103TIP3   OH269723   6.300   2.839  16.467  0.0400 -0.1527  0.6712
16103TIP3    H169724   6.339   2.768  16.416  2.2517  0.9036  0.7817
16103TIP3    H269725   6.368   2.864  16.529 -0.8937  1.6977  1.0029
16104TIP3   OH269726   1.671   5.660   4.852 -0.5511  0.2698  0.0238
16104TIP3    H169727   1.739   5.624   4.795  1.3319  2.8198  0.4692
16104TIP3    H269728   1.598   5.678   4.793 -0.7200 -2.0750 -0.5585
16105TIP3   OH269729   0.440   4.847  11.941 -0.0134 -0.0011  0.9133
16105TIP3    H169730   0.345   4.847  11.957 -0.4156 -0.3277 -1.1763
16105TIP3    H269731   0.449   4.875  11.850  1.8125 -1.3457  0.6260
16106TIP3   OH269732   2.986   1.587  13.400  0.4649 -0.2462  0.2888
16106TIP3    H169733   2.917   1.651  13.409  0.8141 -0.0796  2.0593
16106TIP3    H269734   3.064   1.638  13.378  0.4307 -0.2326  0.1987
16107TIP3   OH269735   5.975   2.094   3.043  0.0304 -0.2725  0.4547
16107TIP3    H169736   6.026   2.013   3.046  0.7469  0.1881  1.9240
16107TIP3    H269737   5.910   2.083   3.113 -2.1370 -0.9598 -1.5584
16108TIP3   OH269738   3.389   5.491  11.263  0.0199  0.1703 -0.0223
16108TIP3    H169739   3.330   5.487  11.188  3.7678  2.1826 -3.4217
16108TIP3    H269740   3.413   5.399  11.279 -1.5491 -0.3728 -0.5879
16109TIP3   OH269741   3.658   1.030   4.804 -0.2477  0.1398  0.1950
16109TIP3    H169742   3.616   1.060   4.885 -0.3255  0.4380  0.0439
16109TIP3    H269743   3.703   1.107   4.770  1.2120 -0.3811  0.8451
16110TIP3   OH269744   5.544   6.331  12.046 -0.3800 -0.2608  0.0285
16110TIP3    H169745   5.513   6.244  12.071 -1.8734  0.2649  0.1006
16110TIP3    H269746   5.568   6.373  12.128 -1.6281  0.1081  0.2219
16111TIP3   OH269747   5.055   4.572  13.506 -0.3022  0.3942 -0.3870
16111TIP3    H169748   5.032   4.530  13.588  0.4723 -1.1427 -0.9192
16111TIP3    H269749   5.054   4.666  13.525 -1.2833  0.1182  1.0474
16112TIP3   OH269750   0.366   4.821  16.652  0.0517 -0.4745 -0.7685
16112TIP3    H169751   0.278   4.795  16.623  0.1765  1.1877 -2.8795
16112TIP3    H269752   0.378   4.775  16.735 -1.6880 -3.0131 -1.7681
16113TIP3   OH269753   1.490   4.714   2.372 -0.3185  0.6246 -0.1280
16113TIP3    H169754   1.470   4.623   2.348  0.6686  0.2179  0.5154
16113TIP3    H269755   1.502   4.759   2.288  0.1550 -0.0743 -0.4476
16114TIP3   OH269756   6.021   0.482   2.229  0.3280  0.0662 -0.2195
16114TIP3    H169757   6.036   0.511   2.139 -1.2250 -0.1981 -0.5963
16114TIP3    H269758   5.953   0.540   2.262 -0.0887 -0.7128  0.3149
16115TIP3   OH269759   0.278   3.018  15.541  0.0963  0.0078 -0.4664
16115TIP3    H169760   0.361   2.997  15.585 -0.1171 -1.1486 -0.5877
16115TIP3    H269761   0.219   3.042  15.612 -0.3501 -2.1876 -0.0181
16116TIP3   OH269762   1.245   3.054   3.155 -0.0203 -0.3811  0.6248
16116TIP3    H169763   1.152   3.071   3.146 -0.0148 -1.0552 -1.3612
16116TIP3    H269764   1.253   2.958   3.152  0.8166 -0.3137 -1.2005
16117TIP3   OH269765   4.440   2.507  13.324  0.5154 -0.1150 -0.2359
16117TIP3    H169766   4.378   2.481  13.256 -0.0380  0.4531  0.0403
16117TIP3    H269767   4.389   2.504  13.405  0.9427  0.0151  0.0419
16118TIP3   OH269768   3.524   1.532   1.738  0.1935 -0.7801  0.0356
16118TIP3    H169769   3.525   1.625   1.718  0.5218 -0.8286 -0.1769
16118TIP3    H269770   3.432   1.512   1.755  0.2457 -0.2252  1.0049
16119TIP3   OH269771   6.182   1.532   5.022  0.0499 -0.0316  0.4270
16119TIP3    H169772   6.199   1.563   5.111  0.4950 -0.6152  0.5495
16119TIP3    H269773   6.269   1.513   4.986 -0.1048  0.4621 -0.2315
16120TIP3   OH269774   2.395   6.574   5.432  0.1479 -0.3162 -0.8446
16120TIP3    H169775   2.386   6.601   5.341  1.2090  0.7790 -0.6619
16120TIP3    H269776   2.489   6.557   5.442  0.1722  0.3378  0.2161
16121TIP3   OH269777   3.129   1.654  13.115 -0.5633  0.1872 -0.1966
16121TIP3    H169778   3.043   1.622  13.144  1.2344 -2.7951  2.5349
16121TIP3    H269779   3.144   1.609  13.032 -0.9431 -0.6616  0.1820
16122TIP3   OH269780   1.567   2.584  11.076 -0.0673 -0.7920  0.1267
16122TIP3    H169781   1.593   2.667  11.117 -0.3384 -0.7346  0.1817
16122TIP3    H269782   1.498   2.608  11.015  0.3783 -0.8673 -0.4181
16123TIP3   OH269783   4.340   0.563   5.593  0.1775  0.0723 -0.4531
16123TIP3    H169784   4.422   0.609   5.612 -0.3239  0.1021  1.9022
16123TIP3    H269785   4.360   0.470   5.610  0.4034 -0.2776 -2.4327
16124TIP3   OH269786   2.412   0.510  15.917  0.3596  0.0257  0.0301
16124TIP3    H169787   2.450   0.432  15.956 -0.2440  0.7842  2.2824
16124TIP3    H269788   2.453   0.583  15.963 -0.3064  0.9904 -0.8487
16125TIP3   OH269789   1.881   4.157   3.980  0.5005  0.1316 -0.0885
16125TIP3    H169790   1.902   4.075   4.025 -0.4547 -1.2082 -1.9898
16125TIP3    H269791   1.936   4.157   3.902 -0.2687  0.7926 -0.6541
16126TIP3   OH269792   2.405   3.424   0.428 -0.3652  0.0387  0.4352
16126TIP3    H169793   2.478   3.391   0.480 -1.0876  0.5100  1.7996
16126TIP3    H269794   2.445   3.452   0.346  0.8212 -0.6599  0.7502
16127TIP3   OH269795   4.008   6.694   6.162  0.0017  0.4178 -0.5857
16127TIP3    H169796   3.934   6.694   6.223  0.3948 -1.1254 -0.0625
16127TIP3    H269797   4.084   6.677   6.218  0.3718 -1.0280 -1.5013
16128TIP3   OH269798   2.304   6.248  11.151  0.2121 -0.0450 -0.1269
16128TIP3    H169799   2.218   6.285  11.134  0.5949 -0.3341 -3.3232
16128TIP3    H269800   2.288   6.155  11.167 -0.2217  0.3405  2.0010
16129TIP3   OH269801   2.781   3.573   1.700 -0.1920  0.1522  0.0665
16129TIP3    H169802   2.800   3.511   1.629 -1.7015  0.2315 -0.4416
16129TIP3    H269803   2.817   3.531   1.779  0.8862 -0.2548 -0.6186
16130TIP3   OH269804   4.386   3.413   3.319 -0.4640  0.4038  0.0055
16130TIP3    H169805   4.433   3.330   3.307 -1.2006  0.1591 -1.3784
16130TIP3    H269806   4.431   3.475   3.261 -0.8716  0.5595 -0.1503
16131TIP3   OH269807   2.413   2.127  15.650 -0.0011  0.2919  0.3774
16131TIP3    H169808   2.496   2.165  15.623 -0.2190  0.7388  0.3404
16131TIP3    H269809   2.395   2.166  15.735  0.0940 -0.2158  0.6364
16132TIP3   OH269810   5.136   2.538  16.131 -0.4295 -0.1899  0.4877
16132TIP3    H169811   5.087   2.504  16.205  3.2069  0.2448  3.4403
16132TIP3    H269812   5.187   2.611  16.168  1.2194  0.3951 -2.5936
16133TIP3   OH269813   5.057   2.009  12.248  0.0632  0.1277 -0.2931
16133TIP3    H169814   5.096   1.944  12.307  3.2215  1.5817 -0.5469
16133TIP3    H269815   5.074   1.976  12.160 -2.1048 -0.6516 -0.4812
16134TIP3   OH269816   6.046   5.214  16.252 -0.1430 -0.3571  0.2120
16134TIP3    H169817   5.991   5.275  16.203 -0.7567  0.8392  2.2964
16134TIP3    H269818   6.028   5.233  16.344  1.5005 -2.0296  0.9490
16135TIP3   OH269819   2.320   4.661   2.694 -0.3101 -0.9840 -0.3455
16135TIP3    H169820   2.226   4.663   2.713 -0.4580 -0.9518 -1.0497
16135TIP3    H269821   2.335   4.574   2.656 -0.0355 -1.0203 -0.1588
16136TIP3   OH269822   0.224   0.866   5.113 -0.3090  0.3968  0.2760
16136TIP3    H169823   0.272   0.801   5.164  0.6841 -0.2259 -1.3570
16136TIP3    H269824   0.250   0.950   5.150  1.2276  0.0095  0.1291
16137TIP3   OH269825   1.643   3.549   3.089  0.8188  0.9296  0.3682
16137TIP3    H169826   1.646   3.640   3.121  0.5939  0.2062  2.6805
16137TIP3    H269827   1.609   3.500   3.164  0.0522 -0.9419 -1.1630
16138TIP3   OH269828   2.412   3.002  14.812  0.8490 -0.9120  0.0647
16138TIP3    H169829   2.435   2.922  14.859 -1.1250 -1.5978 -0.0157
16138TIP3    H269830   2.319   3.015  14.832  1.5374  2.5244  1.7061
16139TIP3   OH269831   0.952   6.313   4.865 -0.8664 -0.4552  0.4165
16139TIP3    H169832   0.862   6.281   4.872 -1.0469  0.1640  1.1317
16139TIP3    H269833   0.999   6.244   4.818 -1.5534 -1.1038  0.6654
16140TIP3   OH269834   0.414   3.587  12.754 -0.6097  0.2397 -0.2550
16140TIP3    H169835   0.358   3.515  12.782  0.7519 -0.7362  0.0663
16140TIP3    H269836   0.375   3.665  12.793 -0.0577 -0.7874  2.5501
16141TIP3   OH269837   5.244   2.423   1.310 -0.5411  0.2395  0.0994
16141TIP3    H169838   5.279   2.387   1.228  1.0087 -1.1938  1.3159
16141TIP3    H269839   5.281   2.367   1.378 -2.6571  0.7081  1.7390
16142TIP3   OH269840   6.505   5.388  12.660  0.5141  0.8494  0.5136
16142TIP3    H169841   6.537   5.473  12.631  0.9483 -0.2435 -2.5198
16142TIP3    H269842   6.583   5.333  12.662  0.2666  0.4960  2.6081
16143TIP3   OH269843   4.158   6.259  16.631  0.1967  0.5416  0.0753
16143TIP3    H169844   4.197   6.311  16.561  0.1328 -0.6802 -0.8854
16143TIP3    H269845   4.091   6.206  16.588  1.6676 -1.9062  0.6087
16144TIP3   OH269846   3.200   1.232  14.635 -0.4556  0.0533  0.0082
16144TIP3    H169847   3.165   1.280  14.559  0.5082  0.3176 -0.2834
16144TIP3    H269848   3.215   1.299  14.701 -1.8208 -0.2463  0.6709
16145TIP3   OH269849   5.951   4.111  15.099  0.0335 -0.3174  0.1735
16145TIP3    H169850   5.917   4.145  15.016  0.7557  0.8170  0.3121
16145TIP3    H269851   5.966   4.190  15.152  0.9903 -0.9217  0.8276
16146TIP3   OH269852   4.555   0.318   3.563  0.3013 -0.1800  0.3060
16146TIP3    H169853   4.491   0.299   3.495 -0.6321 -0.2847  1.1926
16146TIP3    H269854   4.638   0.328   3.516 -0.8777  3.5247 -1.3980
16147TIP3   OH269855   6.398   3.011   6.323 -0.1001 -0.1870 -0.2607
16147TIP3    H169856   6.474   2.959   6.295  1.2665  1.4706  0.1858
16147TIP3    H269857   6.372   2.973   6.407 -0.2187 -1.1991 -0.7372
16148TIP3   OH269858   5.132   0.872  11.887  0.1198 -0.0879 -0.7076
16148TIP3    H169859   5.208   0.883  11.944 -0.5935 -0.7625  0.4300
16148TIP3    H269860   5.057   0.884  11.946 -0.6809  1.5541 -1.9896
16149TIP3   OH269861   1.485   5.816  11.729  1.0154 -0.4245  0.7025
16149TIP3    H169862   1.553   5.878  11.703  2.3894 -1.6636  1.1793
16149TIP3    H269863   1.479   5.755  11.656 -1.3267  0.9772 -0.3821
16150TIP3   OH269864   5.248   3.657  16.729 -0.8332 -0.1039 -0.1380
16150TIP3    H169865   5.309   3.663  16.655 -0.7157 -0.1878 -0.0487
16150TIP3    H269866   5.303   3.663  16.807 -0.5906 -2.8268 -0.0039
16151TIP3   OH269867   4.691   6.659  12.102 -0.1486 -0.2857 -0.2027
16151TIP3    H169868   4.598   6.641  12.086 -0.2591  1.0977 -1.3679
16151TIP3    H269869   4.736   6.582  12.067 -0.8141 -0.4663 -0.6959
16152TIP3   OH269870   1.495   1.330   4.321 -0.3953  0.0011 -0.5623
16152TIP3    H169871   1.546   1.411   4.319 -1.1477  0.4881 -0.5553
16152TIP3    H269872   1.502   1.299   4.412  2.7113 -1.8187 -1.2955
16153TIP3   OH269873   1.028   0.837  11.182  0.7885  0.1344 -0.0862
16153TIP3    H169874   1.005   0.923  11.217  0.6490 -0.1814  0.6168
16153TIP3    H269875   1.100   0.854  11.122  0.4380  0.8054 -0.3288
16154TIP3   OH269876   4.420   1.754   4.165  0.1447 -0.4087  0.3372
16154TIP3    H169877   4.488   1.707   4.214 -0.6298 -1.6007  0.3209
16154TIP3    H269878   4.411   1.704   4.084 -0.2176  0.1850  0.0111
16155TIP3   OH269879   5.728   6.456   5.129  1.1415 -0.3227 -0.4763
16155TIP3    H169880   5.792   6.388   5.109 -0.1434 -1.7853  0.1668
16155TIP3    H269881   5.691   6.429   5.213 -1.0319 -0.0847 -1.3155
16156TIP3   OH269882   6.063   0.125   4.761  0.0280 -0.3793  0.6664
16156TIP3    H169883   6.155   0.098   4.770 -0.1225 -0.4434  2.4845
16156TIP3    H269884   6.016   0.044   4.744  0.1420 -0.5666  1.2248
16157TIP3   OH269885   0.229   5.724  14.455  0.2479  0.8251  0.5805
16157TIP3    H169886   0.226   5.818  14.468 -0.9270  0.6487  1.6980
16157TIP3    H269887   0.139   5.694  14.469  0.4391 -0.3703 -0.5277
16158TIP3   OH269888   6.591   6.086  16.527 -0.1201  0.6171  0.5176
16158TIP3    H169889   6.594   6.167  16.475 -0.5872 -0.2809 -0.9862
16158TIP3    H269890   6.682   6.057  16.531 -0.0629  0.7583  0.2791
16159TIP3   OH269891   6.656   3.200  17.064 -0.3571  0.0808  0.3062
16159TIP3    H169892   6.654   3.228  17.155 -3.2038  0.2014  0.2937
16159TIP3    H269893   6.564   3.197  17.038  0.3434 -0.5821 -2.3813
16160TIP3   OH269894   0.479   6.766  11.272  0.1505  0.1520  0.4960
16160TIP3    H169895   0.455   6.769  11.365 -0.0942 -0.6879  0.4690
16160TIP3    H269896   0.423   6.831  11.231 -0.0029  0.2686  0.8847
16161TIP3   OH269897   0.577   0.548   4.400  0.0202  0.2363 -0.2197
16161TIP3    H169898   0.670   0.550   4.380  0.5180 -0.1953  1.8738
16161TIP3    H269899   0.572   0.539   4.495 -2.1514 -0.8647 -0.3654
16162TIP3   OH269900   4.497   0.013  14.268 -0.1144 -0.1605  0.0221
16162TIP3    H169901   4.507  -0.031  14.183  1.1626  2.1096 -1.1160
16162TIP3    H269902   4.587   0.026  14.298 -0.4201  1.5951  0.2909
16163TIP3   OH269903   0.589   0.924  16.440 -0.4619  0.1585 -0.0795
16163TIP3    H169904   0.571   0.860  16.509 -1.2558  0.9475  0.4769
16163TIP3    H269905   0.636   0.995  16.485 -1.9520  1.1956 -0.0526
16164TIP3   OH269906   1.642   4.093  15.741 -0.6815  0.4652  0.3597
16164TIP3    H169907   1.561   4.050  15.714  0.4775 -0.6956 -1.5127
16164TIP3    H269908   1.654   4.163  15.677  0.7935 -0.6799 -0.6877
16165TIP3   OH269909   0.593   0.265   1.618  0.0778 -0.0692 -0.1002
16165TIP3    H169910   0.502   0.270   1.650  0.3553 -0.7876  0.8531
16165TIP3    H269911   0.633   0.347   1.646 -0.0403 -0.1280  0.2461
16166TIP3   OH269912   6.517   1.250   2.239 -0.0518 -0.1513 -0.0966
16166TIP3    H169913   6.600   1.297   2.244 -0.2581  0.1821  0.2832
16166TIP3    H269914   6.481   1.255   2.328 -0.3988 -0.4355 -0.2161
16167TIP3   OH269915   6.279   0.698  12.019 -0.8091  0.3261  0.8113
16167TIP3    H169916   6.359   0.684  12.070 -0.1734 -0.7637 -0.4191
16167TIP3    H269917   6.244   0.610  12.006 -1.4829  0.6793  0.2034
16168TIP3   OH269918   5.638   6.591  16.367 -0.7585 -0.5281 -0.4878
16168TIP3    H169919   5.554   6.629  16.392 -0.0504  0.0898  1.1102
16168TIP3    H269920   5.637   6.504  16.407 -0.1568 -0.0335  0.6709
16169TIP3   OH269921   0.541   0.429  13.764  0.1183 -0.0896 -0.1824
16169TIP3    H169922   0.465   0.482  13.786 -0.0519 -0.3337 -0.1836
16169TIP3    H269923   0.527   0.402  13.673  1.4953  2.0992 -1.1170
16170TIP3   OH269924   0.551   5.530  11.154 -0.1191 -0.1575  0.4552
16170TIP3    H169925   0.524   5.607  11.104 -1.3586 -0.3901  0.7487
16170TIP3    H269926   0.494   5.460  11.124  1.0671 -1.0119  0.1164
16171TIP3   OH269927   1.525   0.676  15.504  0.0909 -0.2503  0.3885
16171TIP3    H169928   1.604   0.694  15.555  0.3693 -0.2467 -0.0484
16171TIP3    H269929   1.520   0.580  15.502  0.8677 -0.2871 -0.7815
16172TIP3   OH269930   3.446   3.220   2.518  0.1158  0.0485  0.0617
16172TIP3    H169931   3.478   3.130   2.525  0.6950  0.3198  1.1494
16172TIP3    H269932   3.483   3.252   2.436 -0.7760 -0.9529 -0.7594
16173TIP3   OH269933   2.735   2.844  12.689  0.9554  1.1253 -0.5033
16173TIP3    H169934   2.791   2.921  12.690 -1.8870  3.3883  0.2108
16173TIP3    H269935   2.720   2.824  12.782  1.1805  0.0975 -0.6819
16174TIP3   OH269936   5.116   5.793  16.448 -0.0763  0.2325 -0.4397
16174TIP3    H169937   5.200   5.755  16.423  0.0864 -0.6835  1.4016
16174TIP3    H269938   5.075   5.727  16.504 -1.4667  1.2111 -0.2567
16175TIP3   OH269939   5.785   0.570   1.805 -0.3581  0.4988  0.4694
16175TIP3    H169940   5.809   0.573   1.712  2.5426  0.5247  1.1566
16175TIP3    H269941   5.755   0.659   1.824  2.4773  1.5579  0.3436
16176TIP3   OH269942   4.166   1.934  12.028 -0.3839 -0.7252 -0.1379
16176TIP3    H169943   4.257   1.962  12.022  0.4961 -3.5362 -3.7647
16176TIP3    H269944   4.115   2.013  12.010  1.4069  0.4835 -0.1436
16177TIP3   OH269945   3.814   4.460  10.380 -0.6077 -0.0377 -0.1343
16177TIP3    H169946   3.832   4.518  10.307  0.7500  0.3963  0.5091
16177TIP3    H269947   3.723   4.433  10.368 -0.7777  0.9843 -1.2933
16178TIP3   OH269948   4.375   4.277  15.663  0.5798  0.5351 -0.2273
16178TIP3    H169949   4.439   4.218  15.625  0.6609  1.5171 -1.7312
16178TIP3    H269950   4.426   4.354  15.688 -0.0811  1.8818 -2.6570
16179TIP3   OH269951   1.574   4.642  13.911  0.1786  0.6640  0.2004
16179TIP3    H169952   1.490   4.612  13.947 -0.6753 -0.3076 -2.3505
16179TIP3    H269953   1.632   4.566  13.917 -0.1742  0.2757 -0.9512
16180TIP3   OH269954   5.268   1.790   1.318  0.2930 -0.1049  0.1335
16180TIP3    H169955   5.260   1.748   1.404  0.7996  0.5889  0.5369
16180TIP3    H269956   5.327   1.733   1.269 -2.2084 -2.0578 -0.7995
16181TIP3   OH269957   1.159   2.450   0.979  0.7285 -0.2618 -0.3184
16181TIP3    H169958   1.137   2.534   0.938 -1.8400 -1.6811 -2.1265
16181TIP3    H269959   1.225   2.412   0.922  0.3474 -0.3778 -0.6809
16182TIP3   OH269960   5.553   0.006   5.115 -0.0646 -0.0371 -0.2681
16182TIP3    H169961   5.484   0.034   5.055 -0.6545 -3.5553 -1.4495
16182TIP3    H269962   5.517  -0.070   5.159  1.8156  0.1370  1.7671
16183TIP3   OH269963   0.943   0.800   2.019  0.2245  0.0272 -0.0172
16183TIP3    H169964   0.922   0.753   2.100  1.1395 -0.2879  0.0496
16183TIP3    H269965   1.013   0.860   2.044  0.3665  0.0791 -0.5275
16184TIP3   OH269966   1.704   0.741   3.712  0.2500 -0.2311 -0.2192
16184TIP3    H169967   1.693   0.672   3.777 -0.3344  0.6038  0.5923
16184TIP3    H269968   1.779   0.792   3.743 -0.9127  1.0494  0.6683
16185TIP3   OH269969   5.338   3.422   2.215 -0.0210  0.0044 -0.0173
16185TIP3    H169970   5.273   3.394   2.279 -0.3232 -1.7472 -1.0396
16185TIP3    H269971   5.419   3.432   2.265 -0.2222 -1.4638  0.6431
16186TIP3   OH269972   2.242   3.962   4.453  0.1690 -0.0274 -0.7562
16186TIP3    H169973   2.294   3.991   4.528  0.1780  1.2689 -1.2354
16186TIP3    H269974   2.152   3.983   4.477  0.0074 -0.8975 -0.5510
16187TIP3   OH269975   5.560   1.855  12.554 -0.2279 -0.1956 -0.3524
16187TIP3    H169976   5.501   1.791  12.594 -3.0900  1.3561 -1.7289
16187TIP3    H269977   5.600   1.808  12.481 -0.2651 -1.1106  0.1982
16188TIP3   OH269978   4.547   3.155  12.835  0.1478  0.5245  0.2859
16188TIP3    H169979   4.543   3.122  12.925  0.5601 -1.1923 -0.3045
16188TIP3    H269980   4.639   3.151  12.811 -0.1861 -0.9570 -0.8863
16189TIP3   OH269981   0.413   3.825  14.436  0.1353 -0.4682  0.6821
16189TIP3    H169982   0.404   3.841  14.529  2.5851 -0.2770  0.9641
16189TIP3    H269983   0.395   3.731  14.426 -0.9953 -0.3167  1.1835
16190TIP3   OH269984   3.989   4.913   6.360  0.3430 -0.2865 -0.0629
16190TIP3    H169985   3.959   4.881   6.445  1.2963  0.8772  0.7511
16190TIP3    H269986   3.913   4.958   6.323 -0.3511 -1.5813 -0.2574
16191TIP3   OH269987   0.495   2.547   6.503 -0.0402  0.1728 -0.2961
16191TIP3    H169988   0.510   2.565   6.596 -1.5664 -0.7712  0.1895
16191TIP3    H269989   0.558   2.478   6.482 -0.2012 -0.1541  0.2617
16192TIP3   OH269990   2.833   4.493  11.527  0.1966  0.4854  0.1276
16192TIP3    H169991   2.788   4.421  11.571  2.8303 -1.5461 -0.3232
16192TIP3    H269992   2.847   4.463  11.438  2.2534  1.0954  0.2040
16193TIP3   OH269993   0.894   0.235   4.153  0.1293 -0.2067 -0.3323
16193TIP3    H169994   0.971   0.276   4.112 -0.9106  1.0780 -1.1300
16193TIP3    H269995   0.906   0.141   4.140  1.3120  0.0085 -0.8974
16194TIP3   OH269996   0.433   2.727   6.149 -0.0098 -0.2941 -0.2722
16194TIP3    H169997   0.463   2.640   6.178 -2.5459 -1.4749 -0.9408
16194TIP3    H269998   0.481   2.788   6.205  0.0800 -2.2317  1.9253
16195TIP3   OH269999   0.607   1.525   0.621 -0.2660 -0.2276 -0.2550
16195TIP3    H170000   0.556   1.449   0.592 -0.7210 -0.2150  0.4846
16195TIP3    H270001   0.603   1.586   0.546 -3.9013  1.0411  0.7416
16196TIP3   OH270002   2.901   2.064  15.611 -0.3185 -0.1654  0.2754
16196TIP3    H170003   2.898   1.978  15.571 -1.6301  0.3002 -0.7036
16196TIP3    H270004   2.811   2.095  15.608  0.2377  1.5536 -0.1200
16197TIP3   OH270005   3.789   1.733   3.202 -0.5134 -0.1791  0.0757
16197TIP3    H170006   3.840   1.762   3.278  0.6115 -0.7833 -0.4176
16197TIP3    H270007   3.835   1.655   3.171 -1.9857 -0.9922 -0.1659
16198TIP3   OH270008   3.493   2.827   3.772  0.1692  0.1796 -0.0194
16198TIP3    H170009   3.492   2.917   3.742  0.7322  0.4727  0.8079
16198TIP3    H270010   3.430   2.825   3.845 -0.7752 -0.3919 -0.8239
16199TIP3   OH270011   6.107   2.265   1.666  0.0635 -0.0322 -0.3840
16199TIP3    H170012   6.100   2.205   1.592  0.8153 -2.3531  1.3403
16199TIP3    H270013   6.192   2.246   1.705 -1.0667 -0.2143  2.1604
16200TIP3   OH270014   1.223   2.660  12.064 -0.4344  0.1015  0.3675
16200TIP3    H170015   1.226   2.704  12.149  0.3850 -0.1491  0.4723
16200TIP3    H270016   1.129   2.655  12.044 -0.5996  0.8483  0.8898
16201TIP3   OH270017   1.354   2.414   4.935 -0.4112 -0.0050 -0.1743
16201TIP3    H170018   1.444   2.430   4.964 -0.6178 -1.0914  1.1463
16201TIP3    H270019   1.354   2.324   4.903 -0.9083  0.1769 -0.7149
16202TIP3   OH270020   6.143   4.579  16.008 -0.1864  0.4751  0.0878
16202TIP3    H170021   6.067   4.530  16.039  0.3867 -0.4488  0.0809
16202TIP3    H270022   6.208   4.571  16.078  0.1467  0.6814 -0.1924
16203TIP3   OH270023   5.044   2.703  15.191 -0.3934  0.4920 -0.3396
16203TIP3    H170024   5.008   2.792  15.191 -2.0401 -0.1315 -1.2719
16203TIP3    H270025   4.969   2.647  15.212  0.6478 -0.6854  0.3474
16204TIP3   OH270026   5.392   6.154  16.723 -0.0139  0.7600  0.2808
16204TIP3    H170027   5.348   6.226  16.767 -2.6359 -0.4429 -0.1900
16204TIP3    H270028   5.385   6.174  16.630  0.9228  0.7871  0.2071
16205TIP3   OH270029   1.804   0.110  16.164 -0.4455 -0.2643 -0.3198
16205TIP3    H170030   1.775   0.049  16.096 -1.0340  0.3616 -0.6417
16205TIP3    H270031   1.725   0.158  16.188 -0.1064 -0.0275  0.3461
16206TIP3   OH270032   5.090   1.854   4.776  0.1769 -0.2649 -0.0169
16206TIP3    H170033   5.165   1.798   4.756 -0.9697 -1.6361 -0.6806
16206TIP3    H270034   5.109   1.936   4.731  1.3489 -0.5253 -0.0283
16207TIP3   OH270035   4.914   5.230  15.519 -0.1638 -0.6004  0.4539
16207TIP3    H170036   5.007   5.243  15.502  0.2714 -1.9363  1.6582
16207TIP3    H270037   4.875   5.218  15.433  0.3235  2.3668 -0.2995
16208TIP3   OH270038   4.082   6.464  13.422  0.1905  0.0480 -0.0098
16208TIP3    H170039   4.123   6.498  13.501  0.6988  0.7464 -0.5562
16208TIP3    H270040   4.149   6.472  13.355 -1.0312  1.8817 -1.0973
16209TIP3   OH270041   6.154   6.783   2.012  0.2716 -0.4120  0.3060
16209TIP3    H170042   6.214   6.801   2.085  0.6016 -0.9160  0.1645
16209TIP3    H270043   6.132   6.870   1.978  1.6853 -0.2301 -0.2353
16210TIP3   OH270044   0.277   5.068   5.334  0.1061 -0.2017 -0.1740
16210TIP3    H170045   0.263   5.106   5.247  0.6774  0.0099 -0.1746
16210TIP3    H270046   0.370   5.046   5.336  0.2122  0.3060  0.5954
16211TIP3   OH270047   5.556   3.483   2.761 -0.0110 -0.7080  0.2892
16211TIP3    H170048   5.553   3.498   2.855 -1.0462 -1.9955  0.4789
16211TIP3    H270049   5.650   3.476   2.742  0.2008 -0.6719  1.2518
16212TIP3   OH270050   5.026   0.565   4.211  0.7355  0.2303 -1.1664
16212TIP3    H170051   5.029   0.659   4.227 -0.9933 -0.0551  1.6072
16212TIP3    H270052   5.094   0.549   4.146 -0.2191  3.6205 -3.2736
16213TIP3   OH270053   5.271   3.448   5.118  0.3303  0.0409 -0.9225
16213TIP3    H170054   5.227   3.382   5.173 -0.3636  0.7266 -0.6236
16213TIP3    H270055   5.254   3.420   5.028  0.0641 -0.2111 -0.7957
16214TIP3   OH270056   4.168   6.407  16.866  0.0260 -0.0342  0.0930
16214TIP3    H170057   4.174   6.363  16.782 -0.0518  0.8208 -0.3713
16214TIP3    H270058   4.083   6.381  16.902 -1.4272  2.0665 -1.5562
16215TIP3   OH270059   0.987   6.007   4.082 -0.2155 -0.0734  0.3488
16215TIP3    H170060   1.050   6.070   4.046 -0.0152 -0.5358 -0.1152
16215TIP3    H270061   0.925   5.993   4.011  2.3287 -3.9969 -1.4426
16216TIP3   OH270062   1.087   3.734   3.192  0.2840  0.0467 -0.0057
16216TIP3    H170063   1.080   3.655   3.246 -0.5296 -0.6659 -1.1144
16216TIP3    H270064   1.181   3.745   3.177  0.3440 -2.7056 -2.5969
16217TIP3   OH270065   3.787   3.636  11.810 -0.5564  0.0510  0.0767
16217TIP3    H170066   3.769   3.729  11.826 -0.2739  0.2208 -0.5583
16217TIP3    H270067   3.724   3.611  11.743 -0.8100 -0.2932  0.4359
16218TIP3   OH270068   4.242   6.302  14.011  0.0180  0.4185  0.5644
16218TIP3    H170069   4.157   6.321  13.972  1.0317  0.5415 -1.7406
16218TIP3    H270070   4.240   6.207  14.027 -0.1760  0.2437 -0.4575
16219TIP3   OH270071   0.207   5.281   5.185 -0.3640  0.0333 -0.3149
16219TIP3    H170072   0.230   5.355   5.129 -2.1942  0.3968 -0.6362
16219TIP3    H270073   0.187   5.320   5.269 -0.4903 -0.1988 -0.2381
16220TIP3   OH270074   3.599   1.391  11.680 -0.1009 -0.2029 -0.1136
16220TIP3    H170075   3.579   1.377  11.773  0.1441  0.4654  0.0486
16220TIP3    H270076   3.576   1.309  11.637 -0.5069 -0.4118  0.4956
16221TIP3   OH270077   4.095   2.029   3.901  0.1705 -0.0546  0.5568
16221TIP3    H170078   4.022   2.014   3.962 -1.3597 -0.3630 -1.2545
16221TIP3    H270079   4.173   2.027   3.956 -1.0312 -1.5083  2.3330
16222TIP3   OH270080   4.519   6.428   2.241  0.3919 -0.0594  0.1581
16222TIP3    H170081   4.438   6.465   2.275  0.6324 -0.4600  1.2062
16222TIP3    H270082   4.534   6.350   2.294  1.3943 -0.0622 -0.1076
16223TIP3   OH270083   0.045   0.406   6.440 -0.0733 -0.6304  0.2693
16223TIP3    H170084   0.123   0.363   6.476 -0.5507 -1.5460  0.2270
16223TIP3    H270085  -0.029   0.357   6.476 -0.6671  0.6943  0.9031
16224TIP3   OH270086   3.534   4.179  15.921  0.6273  0.1476 -0.0968
16224TIP3    H170087   3.469   4.180  15.851  0.3882  2.3994  0.0839
16224TIP3    H270088   3.618   4.191  15.876  0.5379  0.9359 -0.0637
16225TIP3   OH270089   1.798   1.660   2.444 -0.0994 -0.0922 -0.6263
16225TIP3    H170090   1.730   1.669   2.510 -1.9579 -0.0581 -2.4524
16225TIP3    H270091   1.820   1.749   2.418 -1.7701 -0.1055 -2.3094
16226TIP3   OH270092   6.471   0.952   0.182  0.2209  0.5781  0.5178
16226TIP3    H170093   6.390   1.003   0.172 -1.2313 -1.9901 -2.1571
16226TIP3    H270094   6.443   0.869   0.221  1.2008 -0.9438 -1.7811
16227TIP3   OH270095   2.125   1.367   4.436  0.4352  0.0876 -0.4529
16227TIP3    H170096   2.035   1.363   4.404  0.2831  1.5792 -0.2605
16227TIP3    H270097   2.171   1.422   4.374  1.2248 -0.6274 -0.5232
16228TIP3   OH270098   1.032   5.688  16.702  0.1162 -0.3287 -0.0565
16228TIP3    H170099   1.061   5.774  16.734  1.1105 -1.2906  1.7514
16228TIP3    H270100   1.112   5.637  16.693 -0.5832 -1.5378  0.3323
16229TIP3   OH270101   0.281   0.893   0.433 -0.1129  0.3479 -0.3356
16229TIP3    H170102   0.200   0.938   0.409 -1.4707 -1.3912  0.7745
16229TIP3    H270103   0.288   0.903   0.528  0.1616 -0.7979 -0.2187
16230TIP3   OH270104   1.926   5.045  14.536 -0.0754  0.2855  0.0543
16230TIP3    H170105   1.898   4.981  14.601 -1.5732  0.2318 -0.5907
16230TIP3    H270106   1.995   5.001  14.487 -1.3376 -1.0188 -0.6303
16231TIP3   OH270107   0.199   1.791   0.181  0.5286 -0.2709 -0.3723
16231TIP3    H170108   0.266   1.748   0.234  1.7201  0.0099 -1.6091
16231TIP3    H270109   0.206   1.751   0.094 -0.9503 -0.2745 -0.5271
16232TIP3   OH270110   6.525   2.114  12.029  0.1407 -0.5859  0.6197
16232TIP3    H170111   6.430   2.118  12.037  0.1907 -0.4104  1.2061
16232TIP3    H270112   6.543   2.130  11.937 -0.3888 -0.3962  0.5504
16233TIP3   OH270113   2.190   4.364  14.488 -0.3724 -0.3102 -0.2928
16233TIP3    H170114   2.155   4.301  14.551  1.5588 -2.6844 -1.4060
16233TIP3    H270115   2.133   4.356  14.412  1.9035 -3.7764 -1.8983
16234TIP3   OH270116   3.411   4.335  16.529 -0.0364 -0.4575 -0.1169
16234TIP3    H170117   3.378   4.392  16.598  0.6398 -0.6260  0.3548
16234TIP3    H270118   3.434   4.394  16.457  0.5457 -0.1423  0.3221
16235TIP3   OH270119   4.271   3.130  15.025  0.5596  0.6360 -0.2944
16235TIP3    H170120   4.269   3.222  15.050  0.0894  0.5142  0.1397
16235TIP3    H270121   4.256   3.083  15.107 -1.8141  0.2360 -0.8727
16236TIP3   OH270122   1.262   3.177  12.215  0.2191  0.4683 -0.4149
16236TIP3    H170123   1.331   3.238  12.189  1.9834 -0.7352  1.1981
16236TIP3    H270124   1.303   3.121  12.281 -2.2630 -0.4537  0.4466
16237TIP3   OH270125   2.217   2.440  16.424 -0.1663 -1.1087 -0.2595
16237TIP3    H170126   2.259   2.524  16.442  0.5791 -1.6645  0.7154
16237TIP3    H270127   2.153   2.429  16.495  0.7943 -2.0206  0.5129
16238TIP3   OH270128   0.373   5.887   5.629 -0.0201 -0.2849 -0.6515
16238TIP3    H170129   0.372   5.904   5.535  0.2000 -1.4358 -0.8680
16238TIP3    H270130   0.300   5.940   5.663 -1.4821 -1.4825 -1.7723
16239TIP3   OH270131   4.786   3.931  16.129  0.1239 -0.7926 -0.7018
16239TIP3    H170132   4.821   3.960  16.213  0.9385  2.7351 -2.1276
16239TIP3    H270133   4.714   3.872  16.153  2.1292 -2.2341  2.3644
16240TIP3   OH270134   3.949   0.193  11.563 -0.2209 -0.3349  0.2368
16240TIP3    H170135   4.003   0.113  11.564 -0.0630 -0.2318  1.4335
16240TIP3    H270136   3.887   0.179  11.491  1.1640 -0.6128 -0.9476
16241TIP3   OH270137   4.725   4.502  16.054  0.0035  0.0504 -0.5644
16241TIP3    H170138   4.793   4.436  16.045 -0.1231  0.1666 -3.2628
16241TIP3    H270139   4.757   4.577  16.003 -1.6432  0.4790 -1.0516
16242TIP3   OH270140   0.887   6.762  16.345 -0.2714  0.0900 -0.1087
16242TIP3    H170141   0.803   6.720  16.364 -0.2718  0.8858  1.8834
16242TIP3    H270142   0.910   6.808  16.425  2.2221 -0.3117 -0.5073
16243TIP3   OH270143   0.705   1.350  16.743  0.1474 -0.3863 -0.1645
16243TIP3    H170144   0.721   1.444  16.743 -0.8376 -0.1836  1.3479
16243TIP3    H270145   0.772   1.315  16.802  0.5534 -0.6558 -0.7758
16244TIP3   OH270146   0.949   1.248  16.456  0.0884  0.5246  0.8917
16244TIP3    H170147   0.999   1.217  16.381 -0.2307 -0.8370  1.2090
16244TIP3    H270148   0.876   1.297  16.418 -0.2339 -0.4004  0.2828
16245TIP3   OH270149   6.611   4.633   6.329 -0.0601  0.2137  0.3026
16245TIP3    H170150   6.669   4.659   6.258  0.1315 -0.2022  0.3071
16245TIP3    H270151   6.602   4.538   6.321 -2.4507  0.4699 -1.0028
16246TIP3   OH270152   5.123   2.286   5.192  0.7466  0.4361 -0.8739
16246TIP3    H170153   5.149   2.374   5.220  0.6431  0.4784 -0.9110
16246TIP3    H270154   5.179   2.267   5.117 -0.0773  0.9730 -1.6495
16247TIP3   OH270155   0.203   5.380  10.761  0.1293  0.5633 -0.3356
16247TIP3    H170156   0.179   5.377  10.669  0.2828 -0.7197 -0.3490
16247TIP3    H270157   0.125   5.415  10.805 -0.4127 -0.0468 -0.8053
16248TIP3   OH270158   5.559   4.917  15.310 -0.5047 -0.1880  0.1556
16248TIP3    H170159   5.592   4.989  15.256  0.7634  0.4891  1.7371
16248TIP3    H270160   5.619   4.844  15.291 -2.8425 -1.5631 -2.8250
16249TIP3   OH270161   0.639   3.706   3.277  0.5597  0.3633 -0.1807
16249TIP3    H170162   0.612   3.731   3.189 -0.0693 -0.7180 -0.3016
16249TIP3    H270163   0.673   3.787   3.315 -0.7922  1.2643 -0.8023
16250TIP3   OH270164   0.856   0.248   4.452  0.2640 -0.3785 -0.0481
16250TIP3    H170165   0.775   0.221   4.494  1.1584 -0.6390  1.5972
16250TIP3    H270166   0.837   0.246   4.358 -1.7499  0.0349  0.3157
16251TIP3   OH270167   2.612   3.395  17.189 -0.1572 -0.1656 -0.7288
16251TIP3    H170168   2.523   3.422  17.166 -0.4633 -0.1751  0.3852
16251TIP3    H270169   2.659   3.396  17.106 -0.4659  2.6132 -0.9598
16252TIP3   OH270170   2.928   3.477   4.898  0.3277  0.0720  0.9270
16252TIP3    H170171   2.926   3.554   4.841  2.5847 -0.3772  0.1506
16252TIP3    H270172   2.836   3.460   4.919 -0.4093  1.4228 -0.9763
16253TIP3   OH270173   4.879   0.878  11.982 -0.7764  0.2643 -0.0638
16253TIP3    H170174   4.837   0.846  11.903  0.4806 -0.7608 -0.3408
16253TIP3    H270175   4.887   0.801  12.038  1.3205  0.2617 -0.3029
16254TIP3   OH270176   3.580   5.467   3.155  0.0156 -0.1985 -0.0680
16254TIP3    H170177   3.606   5.514   3.076  2.6048 -0.6139  0.4405
16254TIP3    H270178   3.590   5.531   3.225  0.6109 -0.6333  0.2559
16255TIP3   OH270179   5.705   1.350  11.892 -0.2594  0.1244  0.0135
16255TIP3    H170180   5.651   1.377  11.966  0.0554 -0.5136  0.4899
16255TIP3    H270181   5.644   1.339  11.820 -0.7565 -0.5368  0.5312
16256TIP3   OH270182   5.689   3.050  16.654  0.1034 -0.1999  0.1528
16256TIP3    H170183   5.770   3.049  16.604  0.6351  0.8879  0.9599
16256TIP3    H270184   5.648   3.134  16.634 -0.0647 -0.0915  0.9098
16257TIP3   OH270185   2.427   4.018   3.242 -0.2921  0.2869  0.0814
16257TIP3    H170186   2.450   3.942   3.296 -3.2144 -0.3139  0.6238
16257TIP3    H270187   2.483   4.088   3.276  1.5690 -1.2571  0.4094
16258TIP3   OH270188   4.794   2.588  16.114  0.1985  0.1329  0.1666
16258TIP3    H170189   4.755   2.514  16.069 -2.6856  0.9708  1.0904
16258TIP3    H270190   4.839   2.549  16.190  0.3265 -0.7919 -0.3752
16259TIP3   OH270191   2.680   1.409  12.605  0.0580  0.1913  0.4065
16259TIP3    H170192   2.709   1.321  12.629 -0.0694  0.5756  2.0667
16259TIP3    H270193   2.604   1.395  12.548 -0.8783 -0.7828  1.8468
16260TIP3   OH270194   2.833   5.202   2.353 -0.0948 -0.3579  0.4303
16260TIP3    H170195   2.831   5.295   2.327  1.1393 -0.8782 -1.7926
16260TIP3    H270196   2.925   5.183   2.368 -0.5501 -0.6402  3.5930
16261TIP3   OH270197   6.194   5.954   1.600  0.6101  0.3785  0.4244
16261TIP3    H170198   6.250   5.882   1.631 -1.1932 -1.2475  0.1406
16261TIP3    H270199   6.151   5.918   1.522  0.0088  1.9715 -0.0124
16262TIP3   OH270200   3.944   4.955   1.625  0.0738 -0.6222 -0.4723
16262TIP3    H170201   3.985   4.870   1.604 -0.8164 -0.8892 -1.2139
16262TIP3    H270202   3.971   4.974   1.714  1.0658 -1.2297 -0.6318
16263TIP3   OH270203   3.541   5.191   0.883 -0.1486  0.3517  0.1806
16263TIP3    H170204   3.611   5.255   0.875 -0.9146  1.1243 -0.6464
16263TIP3    H270205   3.481   5.212   0.810 -1.4361 -0.0099  1.0981
16264TIP3   OH270206   6.363   3.491  13.445 -0.0068 -0.7966 -0.2226
16264TIP3    H170207   6.315   3.535  13.375  0.2262 -1.4019 -0.7711
16264TIP3    H270208   6.448   3.469  13.406  0.1853 -0.9910  0.2972
16265TIP3   OH270209   5.811   4.777   3.854 -0.7835 -0.1131  0.3783
16265TIP3    H170210   5.819   4.733   3.939  1.3449 -0.8460 -0.1334
16265TIP3    H270211   5.772   4.710   3.797 -0.9039 -0.1072  0.4545
16266TIP3   OH270212   3.000   1.038  14.741  0.1801 -0.3580  0.1523
16266TIP3    H170213   3.010   1.125  14.701 -0.4009 -0.2325  0.2673
16266TIP3    H270214   3.082   0.993  14.723  0.1521 -0.0906 -0.6823
16267TIP3   OH270215   1.332   2.893  13.975  0.2153 -0.0970  0.3820
16267TIP3    H170216   1.275   2.876  13.899 -0.4181 -1.3777  1.1045
16267TIP3    H270217   1.273   2.890  14.050  1.2242 -1.4767  1.1589
16268TIP3   OH270218   3.530   5.318  13.093  0.2651 -0.7810  0.7611
16268TIP3    H170219   3.592   5.269  13.038  1.4780  0.7519  0.7032
16268TIP3    H270220   3.454   5.260  13.100  0.5078 -1.4958 -1.6030
16269TIP3   OH270221   6.783   0.397   5.884 -0.0811  0.9124  0.0442
16269TIP3    H170222   6.712   0.460   5.895 -0.4033  0.2466  2.4976
16269TIP3    H270223   6.739   0.313   5.867  0.2220  0.8780 -0.5862
16270TIP3   OH270224   6.492   0.184  14.933  0.6417  0.2063 -0.0680
16270TIP3    H170225   6.479   0.258  14.873  1.0541  1.3567  1.2125
16270TIP3    H270226   6.557   0.129  14.888  1.5403  1.4431 -0.3558
16271TIP3   OH270227   2.412   1.515   0.029  0.1913 -0.3910  0.1160
16271TIP3    H170228   2.503   1.529   0.002 -0.1369 -0.4958 -1.0529
16271TIP3    H270229   2.366   1.593   0.001  0.1019  0.1691  1.6968
16272TIP3   OH270230   4.563   4.759   2.864 -0.8312  0.3510 -0.5355
16272TIP3    H170231   4.578   4.713   2.946  1.5443  1.9378  0.0405
16272TIP3    H270232   4.588   4.850   2.883 -0.4997  0.8223 -2.9119
16273TIP3   OH270233   1.738   2.519  11.903  0.6097  0.3441 -0.0408
16273TIP3    H170234   1.659   2.569  11.880 -2.2340 -3.5856  0.2323
16273TIP3    H270235   1.732   2.508  11.998  1.9468  0.5882  0.0894
16274TIP3   OH270236   0.975   4.744   0.525 -0.0565  0.1306  0.0669
16274TIP3    H170237   0.885   4.712   0.511 -0.6160  0.5973  2.1996
16274TIP3    H270238   0.991   4.803   0.452 -1.9430  0.9244  0.2306
16275TIP3   OH270239   2.186   3.240   6.211 -0.1349  0.0668  0.5390
16275TIP3    H170240   2.182   3.194   6.294  1.5751 -1.5532 -0.2087
16275TIP3    H270241   2.099   3.280   6.201 -1.7484 -2.9861  1.2497
16276TIP3   OH270242   3.957   1.366  11.868  0.0695 -0.2080 -0.1277
16276TIP3    H170243   3.921   1.445  11.828  0.1093 -0.2174 -0.1824
16276TIP3    H270244   3.916   1.294  11.819  0.9161 -0.2115 -0.8460
16277TIP3   OH270245   3.754   4.855   5.443  0.4619 -0.4217  0.0412
16277TIP3    H170246   3.687   4.792   5.471 -1.2007  0.4596 -1.7635
16277TIP3    H270247   3.726   4.938   5.481  0.5457 -0.0451 -0.7163
16278TIP3   OH270248   2.374   4.629  11.894 -0.2053 -0.1308  0.3019
16278TIP3    H170249   2.385   4.575  11.972 -2.1035 -2.0882 -0.6810
16278TIP3    H270250   2.332   4.710  11.926 -0.2082 -0.5561  1.4013
16279TIP3   OH270251   6.553   3.997  11.347 -0.5376 -0.1718  0.0804
16279TIP3    H170252   6.567   3.967  11.437 -0.6809  2.1517  0.9348
16279TIP3    H270253   6.631   3.966  11.299 -0.2377 -1.0369  1.0858
16280TIP3   OH270254   4.619   2.513   1.356 -0.0328  0.1538 -0.2190
16280TIP3    H170255   4.601   2.585   1.295 -0.5095 -0.1413 -0.4304
16280TIP3    H270256   4.709   2.488   1.337  0.5877  1.5299  0.7296
16281TIP3   OH270257   5.263   4.097  16.693 -0.6212  0.3446 -0.1541
16281TIP3    H170258   5.312   4.023  16.729 -1.3884 -0.8541 -1.4936
16281TIP3    H270259   5.327   4.167  16.687 -0.0114  0.0127  1.7043
16282TIP3   OH270260   4.498   0.136   5.785 -0.1777 -0.3129  0.1794
16282TIP3    H170261   4.437   0.110   5.853  0.0553  0.2067  0.6010
16282TIP3    H270262   4.570   0.073   5.791  1.0114  1.1179  2.0616
16283TIP3   OH270263   0.010   0.184  14.743  0.0729  0.1126  0.2262
16283TIP3    H170264  -0.003   0.227  14.827  0.2372  0.0137  0.3021
16283TIP3    H270265  -0.051   0.110  14.744  1.3457 -0.9660  1.0114
16284TIP3   OH270266   1.026   4.647   4.093  0.1025 -0.3559 -0.0772
16284TIP3    H170267   1.078   4.594   4.032  0.9227  0.5582 -0.1880
16284TIP3    H270268   1.088   4.709   4.130 -0.8595  0.5715  0.0234
16285TIP3   OH270269   2.365   0.186   4.219 -0.1022  0.1552 -0.0922
16285TIP3    H170270   2.385   0.267   4.265  0.6932  0.5416 -1.0950
16285TIP3    H270271   2.349   0.212   4.129 -0.2736 -0.7549 -0.3417
16286TIP3   OH270272   5.174   1.714  15.545 -0.1524 -0.0931 -0.2992
16286TIP3    H170273   5.130   1.633  15.573 -0.3044  0.2345  0.4452
16286TIP3    H270274   5.125   1.784  15.589  0.2572  0.3723 -0.5730
16287TIP3   OH270275   3.463   0.476  14.268 -0.2981  0.4204  0.2451
16287TIP3    H170276   3.554   0.502  14.277 -0.0754 -0.1804 -0.2055
16287TIP3    H270277   3.427   0.538  14.204 -0.5222  1.3871  1.2798
16288TIP3   OH270278   4.913   6.124   4.025 -0.5810 -0.5566  0.0015
16288TIP3    H170279   4.867   6.120   4.108  0.1667  1.4882  0.5698
16288TIP3    H270280   4.904   6.215   3.997  2.7816 -0.0984 -0.0030
16289TIP3   OH270281   0.921   5.322  12.958  0.6565 -0.1226 -0.6805
16289TIP3    H170282   0.957   5.287  12.876  0.7183  1.2863 -1.2787
16289TIP3    H270283   0.907   5.415  12.941 -1.1422 -0.1640  0.2897
16290TIP3   OH270284   2.283   5.284  11.058 -0.4242 -0.0123  0.1994
16290TIP3    H170285   2.280   5.378  11.038 -0.0589  0.0465  0.4087
16290TIP3    H270286   2.375   5.260  11.047 -0.4513 -0.2670  0.5006
16291TIP3   OH270287   1.031   5.914  15.000  0.2498  0.6389  0.3810
16291TIP3    H170288   0.958   5.853  14.989  0.0747  0.4680  2.2165
16291TIP3    H270289   1.109   5.859  14.992  0.0906  0.1051  2.1898
16292TIP3   OH270290   0.706   5.489   2.413 -0.4045 -0.2602  0.3508
16292TIP3    H170291   0.638   5.556   2.415  0.5996  0.8443 -0.7217
16292TIP3    H270292   0.761   5.508   2.489 -0.5041 -0.2896  0.4300
16293TIP3   OH270293   4.639   6.416  11.239  0.3026 -0.4492  0.5672
16293TIP3    H170294   4.654   6.395  11.147  3.8332  1.3631  0.5336
16293TIP3    H270295   4.659   6.335  11.286 -2.5171 -1.6929 -0.1917
16294TIP3   OH270296   0.828   3.738  15.070 -0.3167  0.3447  0.4530
16294TIP3    H170297   0.743   3.779  15.087 -0.3594  0.3134  0.3165
16294TIP3    H270298   0.883   3.764  15.145 -0.4434  0.3715  0.5372
16295TIP3   OH270299   5.903   4.135   4.548 -0.5947 -0.2391  0.5678
16295TIP3    H170300   5.901   4.150   4.454  0.7398 -0.6838  0.4574
16295TIP3    H270301   5.986   4.091   4.564 -0.7460 -0.0576  1.9745
16296TIP3   OH270302   2.568   2.700   0.747 -0.1440  0.1936  0.6018
16296TIP3    H170303   2.565   2.794   0.728 -1.6091  0.0019 -0.2726
16296TIP3    H270304   2.652   2.671   0.711 -0.9149  0.6646 -1.7155
16297TIP3   OH270305   5.687   1.622   1.713  0.3698  0.5340 -0.0176
16297TIP3    H170306   5.665   1.714   1.699  0.7888  0.6000 -0.2527
16297TIP3    H270307   5.714   1.590   1.627 -1.8311 -0.3997 -0.4242
16298TIP3   OH270308   0.539   4.987   5.393 -0.2879 -0.1678  0.6018
16298TIP3    H170309   0.572   4.898   5.386 -0.0460  0.0381 -1.4921
16298TIP3    H270310   0.617   5.042   5.382 -0.4330  0.3204  1.9008
16299TIP3   OH270311   2.746   4.207  15.008  0.2020 -0.8687 -0.3153
16299TIP3    H170312   2.789   4.250  15.082 -1.0899 -0.9413  0.4884
16299TIP3    H270313   2.722   4.121  15.040 -2.1956 -0.1862 -0.1201
16300TIP3   OH270314   2.659   3.070  13.043 -0.4239 -0.3912  0.4272
16300TIP3    H170315   2.697   3.079  13.130 -0.3808  0.7122  0.3070
16300TIP3    H270316   2.573   3.031  13.058 -0.5424  0.0829  1.0000
16301TIP3   OH270317   1.773   5.043  15.370  0.3150 -0.3558 -0.7926
16301TIP3    H170318   1.708   5.019  15.436  0.5633 -1.3880 -0.8980
16301TIP3    H270319   1.753   5.133  15.347 -1.6098 -0.9054 -1.4214
16302TIP3   OH270320   3.239   0.873  11.708  0.2276  0.3991 -0.4060
16302TIP3    H170321   3.213   0.932  11.638 -0.5571  0.1607 -0.3248
16302TIP3    H270322   3.175   0.888  11.778 -0.5849 -1.2208 -0.7529
16303TIP3   OH270323   6.646   0.214  15.780  0.5473  0.3060  0.3760
16303TIP3    H170324   6.672   0.302  15.808 -0.0358  1.1990 -1.6894
16303TIP3    H270325   6.569   0.193  15.832 -0.3814  1.8116 -0.3165
16304TIP3   OH270326   1.970   4.419  12.850 -0.1627 -0.1802 -0.4241
16304TIP3    H170327   1.953   4.412  12.757 -1.6074  1.1100 -0.2988
16304TIP3    H270328   1.963   4.513  12.869 -0.3181 -0.4622  1.0508
16305TIP3   OH270329   3.927   3.565   2.739 -0.0576 -0.3886  0.2022
16305TIP3    H170330   3.859   3.629   2.760  2.0694  2.2012 -0.3401
16305TIP3    H270331   3.992   3.576   2.808  1.8995  0.5030 -1.6899
16306TIP3   OH270332   5.342   6.568   2.837  0.2599  0.3185  0.5501
16306TIP3    H170333   5.343   6.495   2.899 -1.2203 -0.3952 -0.2133
16306TIP3    H270334   5.435   6.584   2.818  0.6284 -1.5357  0.5703
16307TIP3   OH270335   1.097   6.558  16.596  0.2160 -0.1131 -0.4639
16307TIP3    H170336   1.159   6.488  16.612 -0.2068 -0.8505 -1.9018
16307TIP3    H270337   1.151   6.634  16.576  0.6952  0.2027  1.7090
16308TIP3   OH270338   2.674   3.254  16.017  0.6423  0.3230 -0.3352
16308TIP3    H170339   2.642   3.164  16.012  1.3264  0.0546 -0.0419
16308TIP3    H270340   2.697   3.277  15.927 -0.8331  0.7056 -0.6324
16309TIP3   OH270341   5.483   4.059  16.036  0.6145 -0.2295  0.0233
16309TIP3    H170342   5.414   4.092  16.093  2.5728  0.0890  2.3445
16309TIP3    H270343   5.529   3.994  16.089  2.6059  0.1536 -1.1289
16310TIP3   OH270344   6.315   0.480  13.298  0.0058 -0.0337  0.0455
16310TIP3    H170345   6.391   0.528  13.263 -0.7363  0.4334 -0.9773
16310TIP3    H270346   6.276   0.439  13.221 -0.6193 -0.4996  0.6101
16311TIP3   OH270347   5.428   1.453   2.167  0.2839  0.6088  0.5519
16311TIP3    H170348   5.449   1.497   2.085  0.1936 -0.7219 -0.2092
16311TIP3    H270349   5.333   1.441   2.165  0.5924 -2.2853 -0.7012
16312TIP3   OH270350   6.505   4.933   5.048  0.5515  0.2367 -0.1892
16312TIP3    H170351   6.595   4.901   5.057  0.0414 -1.4676 -0.6146
16312TIP3    H270352   6.456   4.856   5.019 -1.3824  0.6682  1.7017
16313TIP3   OH270353   1.901   5.629   4.695 -0.5968 -0.0582  0.7081
16313TIP3    H170354   1.915   5.663   4.606  0.4706  0.1432  0.9319
16313TIP3    H270355   1.899   5.708   4.750  0.8124 -0.2552  1.0961
16314TIP3   OH270356   0.386   1.693  14.999  0.2059 -0.2214  0.0253
16314TIP3    H170357   0.445   1.692  14.923 -0.8523 -2.0498 -0.8495
16314TIP3    H270358   0.300   1.714  14.961 -0.5525 -2.2489  0.4695
16315TIP3   OH270359   6.666   0.480   6.717  0.2305 -0.4024  0.5122
16315TIP3    H170360   6.685   0.401   6.666  2.7691  0.0291  0.6612
16315TIP3    H270361   6.650   0.548   6.651 -1.3830 -0.8707  0.3822
16316TIP3   OH270362   0.971   4.197  13.901  0.1449  0.0525 -0.1420
16316TIP3    H170363   0.887   4.237  13.924  0.6767  3.2649 -2.9394
16316TIP3    H270364   1.032   4.230  13.967 -0.2227  0.0974  0.1838
16317TIP3   OH270365   6.032   4.330   3.272  0.4721  0.0808 -0.3713
16317TIP3    H170366   5.971   4.290   3.211 -0.6665 -1.0270  1.4089
16317TIP3    H270367   5.990   4.412   3.298  0.6046  0.1925 -0.5054
16318TIP3   OH270368   3.829   2.431  14.764 -0.3868  0.4693  0.2548
16318TIP3    H170369   3.856   2.502  14.707 -0.7975  1.0857  0.8091
16318TIP3    H270370   3.735   2.420  14.747 -0.8313  1.5869  1.7582
16319TIP3   OH270371   5.934   4.935  12.095 -0.3339 -0.2641 -0.3341
16319TIP3    H170372   5.945   4.938  12.000 -0.0050  0.1647 -0.2875
16319TIP3    H270373   5.880   4.858  12.111  0.4067 -0.8866 -0.7888
16320TIP3   OH270374   1.631   2.325   4.057 -0.3249  0.1153 -0.1007
16320TIP3    H170375   1.715   2.370   4.047  0.6003 -1.7012 -0.8696
16320TIP3    H270376   1.641   2.244   4.008 -1.8081 -1.1226  1.5173
16321TIP3   OH270377   1.258   0.556  14.982  0.0355  0.0315 -0.3218
16321TIP3    H170378   1.256   0.549  15.077 -1.9464 -0.7805 -0.3752
16321TIP3    H270379   1.350   0.546  14.959  0.3989 -1.0781  1.4200
16322TIP3   OH270380   3.103   5.226   0.002 -0.2624 -0.1979 -0.4832
16322TIP3    H170381   3.037   5.157  -0.005 -1.1749  0.7094 -1.2968
16322TIP3    H270382   3.146   5.227  -0.084 -0.2987  0.2698 -0.4997
16323TIP3   OH270383   5.696   6.239   6.726  0.5840 -0.0204 -0.0847
16323TIP3    H170384   5.618   6.294   6.726 -0.0162 -0.7684  2.1120
16323TIP3    H270385   5.694   6.194   6.642 -2.1901 -1.1168  0.4775
16324TIP3   OH270386   1.180   0.850   1.440 -0.2800  0.2081 -0.7686
16324TIP3    H170387   1.151   0.814   1.357 -0.2065 -1.3689 -0.1492
16324TIP3    H270388   1.216   0.775   1.488 -1.2755  0.8417  1.1025
16325TIP3   OH270389   6.780   2.106   5.331 -0.0157  0.3941 -0.0315
16325TIP3    H170390   6.687   2.131   5.328 -0.1098  0.1771  0.8007
16325TIP3    H270391   6.782   2.028   5.387  0.6152  0.1297 -0.4121
16326TIP3   OH270392   1.631   0.611  11.949 -0.1497  0.1294 -0.6223
16326TIP3    H170393   1.724   0.605  11.927  0.0811  0.5251  0.2154
16326TIP3    H270394   1.592   0.657  11.874  0.1558 -0.8628 -1.4044
16327TIP3   OH270395   2.088   0.505   5.763 -0.3243 -0.2077  0.0704
16327TIP3    H170396   2.004   0.529   5.801 -0.3325 -0.1390  0.0083
16327TIP3    H270397   2.085   0.538   5.673  0.3924  1.2493  0.5509
16328TIP3   OH270398   1.876   1.979  16.953 -0.2171  1.2222 -0.1886
16328TIP3    H170399   1.867   2.001  17.046  0.0119  0.2876  0.0644
16328TIP3    H270400   1.794   1.934  16.931  1.7398 -3.5396  1.0416
16329TIP3   OH270401   5.848   6.555  12.580 -0.0939 -0.1846 -0.2392
16329TIP3    H170402   5.762   6.581  12.614 -1.0414  0.2069 -2.7458
16329TIP3    H270403   5.868   6.620  12.513  1.5223 -1.0819 -0.6852
16330TIP3   OH270404   5.060   0.566   3.833 -0.1210  0.4291  0.0202
16330TIP3    H170405   5.065   0.660   3.812 -0.5026  1.2033  2.8803
16330TIP3    H270406   5.140   0.549   3.883 -0.8996 -0.2754  1.0814
16331TIP3   OH270407   1.676   4.584   5.530  0.3300  0.0446 -0.4842
16331TIP3    H170408   1.582   4.598   5.530  0.5448  1.6058 -0.2063
16331TIP3    H270409   1.694   4.543   5.445 -0.6094 -0.5287 -0.4216
16332TIP3   OH270410   4.423   6.023   0.903 -0.4669 -0.2315 -0.0437
16332TIP3    H170411   4.439   6.091   0.837  0.4627 -0.9251 -0.5584
16332TIP3    H270412   4.334   6.039   0.933 -0.1879  1.3905  0.0415
16333TIP3   OH270413   6.787   1.354  16.890  0.0421  0.1976  0.2130
16333TIP3    H170414   6.836   1.393  16.818 -0.6893 -1.9803 -1.5715
16333TIP3    H270415   6.734   1.426  16.925 -0.1983  1.1574 -1.9765
16334TIP3   OH270416   4.182   6.159  12.463 -1.0906 -0.1512 -0.2642
16334TIP3    H170417   4.150   6.244  12.433  1.7097  1.8281  1.8035
16334TIP3    H270418   4.267   6.150  12.420 -0.4624 -0.9318  1.0928
16335TIP3   OH270419   4.493   6.723   3.635 -0.3946  0.5390  0.2853
16335TIP3    H170420   4.489   6.640   3.681  0.0211  0.3174 -0.0652
16335TIP3    H270421   4.405   6.736   3.600 -1.1405  1.4125  2.3165
16336TIP3   OH270422   1.180   0.197   4.922 -0.3043 -0.1752 -0.1827
16336TIP3    H170423   1.275   0.209   4.922 -0.4723  1.5383  0.9195
16336TIP3    H270424   1.166   0.116   4.970  0.5710  0.1230  0.6117
16337TIP3   OH270425   2.155   6.047   0.920 -0.0863  0.0503 -0.3767
16337TIP3    H170426   2.060   6.034   0.922 -0.2882  0.9714 -1.7763
16337TIP3    H270427   2.187   6.010   1.002 -1.2983 -2.9993 -1.1486
16338TIP3   OH270428   0.902   6.021  12.489  1.0571  0.7566 -0.4184
16338TIP3    H170429   0.875   5.980  12.571 -1.7881 -0.2535 -1.7465
16338TIP3    H270430   0.942   5.951  12.439  2.3118  1.2544 -0.1574
16339TIP3   OH270431   2.596   4.913   3.484 -0.0149  0.1757  0.0613
16339TIP3    H170432   2.606   4.857   3.407 -0.1184  0.0002  0.1756
16339TIP3    H270433   2.652   4.872   3.551  2.3430  1.8722 -0.7470
16340TIP3   OH270434   1.543   6.760   1.479 -0.0151 -0.4043 -0.4564
16340TIP3    H170435   1.452   6.766   1.453 -0.5519  0.5805  1.4281
16340TIP3    H270436   1.556   6.667   1.499 -0.9516 -0.3792  0.3338
16341TIP3   OH270437   4.788   3.121  15.533 -0.0421 -0.3904 -0.2864
16341TIP3    H170438   4.814   3.152  15.446 -0.8676  2.9230  0.5052
16341TIP3    H270439   4.715   3.177  15.558  1.4249  0.2292  3.3383
16342TIP3   OH270440   0.300   1.085  14.796 -0.4906 -0.1585  0.1993
16342TIP3    H170441   0.277   1.136  14.719 -0.1254  0.3395  0.4188
16342TIP3    H270442   0.352   1.012  14.762 -1.5710 -0.7715 -0.1890
16343TIP3   OH270443   1.924   1.045   3.426  0.1737 -0.4387 -0.0880
16343TIP3    H170444   1.833   1.018   3.429  0.1879 -0.4701  0.0552
16343TIP3    H270445   1.934   1.086   3.340 -0.1865  0.3250  0.2344
16344TIP3   OH270446   5.857   4.028   4.797  0.8976  0.6870 -0.0926
16344TIP3    H170447   5.864   4.050   4.705  1.0230  0.6078 -0.1010
16344TIP3    H270448   5.763   4.018   4.812  0.8451  1.1333 -0.1106
16345TIP3   OH270449   4.080   3.486  16.839  0.0453  0.0562  0.0335
16345TIP3    H170450   3.992   3.450  16.849 -0.1485  0.9644  2.2337
16345TIP3    H270451   4.080   3.566  16.893  1.8601  0.7365 -0.8682
16346TIP3   OH270452   5.672   0.322   0.294 -0.0549  0.4532  0.6884
16346TIP3    H170453   5.647   0.230   0.301 -1.6861  0.9191  1.3153
16346TIP3    H270454   5.767   0.319   0.282 -0.2922 -1.4209 -1.7712
16347TIP3   OH270455   1.940   4.074   3.677 -0.0105 -0.0011 -0.4041
16347TIP3    H170456   1.992   4.137   3.627  0.0602 -0.1205 -0.4849
16347TIP3    H270457   1.997   3.998   3.685  0.1569  0.1932  0.2788
16348TIP3   OH270458   2.909   0.835   3.529  0.5628 -0.0699 -0.3345
16348TIP3    H170459   2.928   0.904   3.592 -0.2357 -0.7243  0.6641
16348TIP3    H270460   2.963   0.856   3.453  1.1668  1.0235  0.3682
16349TIP3   OH270461   2.352   3.535   5.669 -0.1103 -0.0415 -0.6836
16349TIP3    H170462   2.408   3.608   5.645  1.2449 -0.5213  0.8178
16349TIP3    H270463   2.409   3.477   5.720 -1.0408 -2.3224 -2.0878
16350TIP3   OH270464   6.615   4.200   4.212 -0.6694 -0.3527  0.1069
16350TIP3    H170465   6.630   4.268   4.278  0.5732 -1.3838  0.9419
16350TIP3    H270466   6.552   4.140   4.254 -2.1065  0.4832 -0.7976
16351TIP3   OH270467   0.700   4.011  15.672  0.0792 -0.1720  0.0041
16351TIP3    H170468   0.719   4.100  15.702 -1.8934 -0.0494  1.0207
16351TIP3    H270469   0.775   3.989  15.617  1.0567  1.7707  0.4371
16352TIP3   OH270470   4.492   3.884   2.803 -0.6707  0.0141 -0.7335
16352TIP3    H170471   4.423   3.888   2.737 -2.2095  0.4759  0.8414
16352TIP3    H270472   4.448   3.855   2.883  0.3028  3.0377  1.0537
16353TIP3   OH270473   2.742   6.790  11.314 -0.0499  0.1155 -0.0582
16353TIP3    H170474   2.702   6.819  11.233 -1.2214  0.4089  0.5988
16353TIP3    H270475   2.674   6.803  11.381  0.8960 -0.0523  0.9781
16354TIP3   OH270476   1.572   5.000   3.922 -0.2769  0.3406 -0.4960
16354TIP3    H170477   1.513   5.008   3.997 -0.2568 -0.6012 -0.3672
16354TIP3    H270478   1.547   4.917   3.881 -0.2540  0.8209 -1.5043
16355TIP3   OH270479   0.343   3.289   5.617 -0.1577 -0.1931  0.0511
16355TIP3    H170480   0.318   3.364   5.562 -0.5555 -0.1042  0.3545
16355TIP3    H270481   0.335   3.321   5.707  2.1904  0.2357  0.1908
16356TIP3   OH270482   1.233   5.108   1.827 -0.3779  0.3411 -0.1746
16356TIP3    H170483   1.325   5.118   1.850 -0.1158 -0.9329 -0.5715
16356TIP3    H270484   1.215   5.180   1.767  0.8663 -0.3570 -1.4773
16357TIP3   OH270485   4.757   1.070  12.153  0.1256 -0.1382 -0.1390
16357TIP3    H170486   4.845   1.048  12.184  0.2084  0.8446  0.3689
16357TIP3    H270487   4.739   1.006  12.084  2.2972  1.2161 -2.1072
16358TIP3   OH270488   4.608   4.884  11.711  0.1111 -0.3867  0.2335
16358TIP3    H170489   4.682   4.894  11.772  1.0531  0.3993 -0.9804
16358TIP3    H270490   4.594   4.972  11.676 -0.9145 -0.6779 -0.1293
16359TIP3   OH270491   1.199   4.515   3.942  0.2427 -0.1725 -0.4774
16359TIP3    H170492   1.291   4.489   3.935 -0.5525 -2.9846 -2.1831
16359TIP3    H270493   1.167   4.514   3.852 -2.1120 -2.2511  0.2749
16360TIP3   OH270494   5.246   1.031   0.853 -0.2704  1.0319  0.1447
16360TIP3    H170495   5.307   1.060   0.785 -2.4328  1.2700 -1.8129
16360TIP3    H270496   5.247   1.102   0.918  2.3116  0.5098  0.7665
16361TIP3   OH270497   1.323   4.090   2.513  0.2034 -0.1459  0.3465
16361TIP3    H170498   1.353   4.140   2.589 -0.9103 -0.6266  1.1297
16361TIP3    H270499   1.298   4.005   2.549 -0.8533 -0.2004 -0.4720
16362TIP3   OH270500   6.137   3.136  13.108  0.0550  0.8335  0.2147
16362TIP3    H170501   6.050   3.099  13.122 -0.0938  0.6366 -1.0848
16362TIP3    H270502   6.128   3.229  13.130 -0.2980  0.6797  0.7368
16363TIP3   OH270503   2.896   1.728   5.870  0.1984 -0.1104 -0.3949
16363TIP3    H170504   2.913   1.637   5.894  1.2869 -0.1484 -1.2323
16363TIP3    H270505   2.836   1.722   5.795 -0.2927 -0.1134 -0.0022
16364TIP3   OH270506   2.567   2.997   5.439  0.3116  0.4507 -0.2121
16364TIP3    H170507   2.633   3.048   5.392  0.6397  0.6740  0.4779
16364TIP3    H270508   2.548   3.049   5.517  1.4808 -0.9910  1.1001
16365TIP3   OH270509   3.449   5.858   2.140  0.4380 -0.1449 -0.0914
16365TIP3    H170510   3.464   5.952   2.152  0.9678 -0.2088 -0.2667
16365TIP3    H270511   3.399   5.853   2.059  1.5037 -0.0988 -0.7642
16366TIP3   OH270512   4.977   1.952  15.495 -0.1733 -0.8948  0.4088
16366TIP3    H170513   4.902   1.898  15.520  0.7092 -1.5698  1.7495
16366TIP3    H270514   4.983   2.018  15.564 -1.7366  1.5629 -1.6193
16367TIP3   OH270515   6.045   1.992   5.380 -0.4612  0.2491  0.2373
16367TIP3    H170516   5.998   1.963   5.458 -1.1666 -0.7872 -0.5357
16367TIP3    H270517   5.979   2.039   5.329 -0.2644  0.0695 -0.1809
16368TIP3   OH270518   3.464   4.254  12.511 -0.0921 -0.5645 -0.1063
16368TIP3    H170519   3.446   4.312  12.438 -0.4462 -0.4856  0.0440
16368TIP3    H270520   3.386   4.258  12.566  0.5779  0.1921  0.8248
16369TIP3   OH270521   1.357   2.090   0.067 -0.3160  0.0450 -0.3059
16369TIP3    H170522   1.333   2.011   0.115  0.6415  0.5111  0.9801
16369TIP3    H270523   1.279   2.144   0.068  0.0622  0.6428  1.9794
16370TIP3   OH270524   0.537   2.039   1.582 -0.0045  0.5172  0.1899
16370TIP3    H170525   0.450   2.013   1.613 -0.4753  0.4209 -1.1294
16370TIP3    H270526   0.579   1.957   1.556  1.4722  0.2440  3.0647
16371TIP3   OH270527   0.796   2.237  12.636 -0.1695  0.1826  0.1775
16371TIP3    H170528   0.789   2.157  12.585  0.0772  0.7562 -0.7862
16371TIP3    H270529   0.769   2.306  12.576  1.6772  1.0548  0.2797
16372TIP3   OH270530   6.786   2.132   2.319 -0.1908 -0.1803 -0.1755
16372TIP3    H170531   6.731   2.174   2.253  0.2496  1.0538  0.2198
16372TIP3    H270532   6.808   2.047   2.281 -0.4678  0.2487 -1.3333
16373TIP3   OH270533   3.201   2.824   1.419  0.2622 -0.7062 -0.0862
16373TIP3    H170534   3.224   2.898   1.362  3.0601  0.7110  2.5950
16373TIP3    H270535   3.248   2.749   1.381 -1.3894 -0.8520 -1.9791
16374TIP3   OH270536   0.284   2.327   2.417  0.2820 -0.3739 -0.1754
16374TIP3    H170537   0.340   2.403   2.433  0.5009 -0.4318 -0.6480
16374TIP3    H270538   0.196   2.357   2.438  0.1233  0.5415 -1.9120
16375TIP3   OH270539   1.343   4.320  17.195  0.6026 -0.7132  0.2042
16375TIP3    H170540   1.283   4.381  17.152 -0.8938 -1.9022  0.4986
16375TIP3    H270541   1.382   4.370  17.266 -0.0295  0.1083 -0.0154
16376TIP3   OH270542   6.053   0.848  13.658  0.2640 -0.1594 -0.1393
16376TIP3    H170543   5.959   0.834  13.642 -0.0629  2.1206 -0.5116
16376TIP3    H270544   6.094   0.834  13.573  0.4420 -2.0469  0.2025
16377TIP3   OH270545   0.049   4.341   0.341  0.2235  0.3013 -0.7581
16377TIP3    H170546   0.070   4.256   0.301 -0.2841 -0.4652  0.5285
16377TIP3    H270547  -0.043   4.355   0.320  0.0686  0.0968 -0.2443
16378TIP3   OH270548   4.166   4.309   3.019 -0.1043 -0.2390 -0.0006
16378TIP3    H170549   4.207   4.257   3.088  1.4012  1.4163  0.4487
16378TIP3    H270550   4.224   4.384   3.009 -1.5595  0.7586 -1.4372
16379TIP3   OH270551   5.405   1.195   3.583 -0.1580 -0.3835  0.2601
16379TIP3    H170552   5.337   1.258   3.561  1.1378  1.3762  1.0413
16379TIP3    H270553   5.374   1.112   3.546 -1.0509  1.0376 -2.4528
16380TIP3   OH270554   5.179   6.378   5.979 -0.1775  0.3793  0.0079
16380TIP3    H170555   5.225   6.398   5.898 -1.9959  0.7598 -0.9822
16380TIP3    H270556   5.246   6.385   6.047  1.5076 -0.4437 -1.4853
16381TIP3   OH270557   1.552   4.490  15.159 -0.6510  0.5778 -0.0087
16381TIP3    H170558   1.520   4.552  15.224  3.5369  1.1460  1.8877
16381TIP3    H270559   1.562   4.407  15.207 -0.7256  0.0492 -0.8837
16382TIP3   OH270560   4.773   4.138   4.212  0.1790 -0.4109 -0.0443
16382TIP3    H170561   4.731   4.122   4.128 -0.5372 -1.3742  0.4863
16382TIP3    H270562   4.702   4.159   4.272  0.7008  0.4632  0.2928
16383TIP3   OH270563   4.000   0.310  16.549 -0.2263 -1.0830  0.5162
16383TIP3    H170564   4.037   0.335  16.634 -1.0918  0.1819  0.5354
16383TIP3    H270565   3.914   0.273  16.571  0.5085 -3.0290  0.3744
16384TIP3   OH270566   4.061   4.562  12.144  0.0654  0.3118 -0.0243
16384TIP3    H170567   4.013   4.624  12.198 -0.9890 -0.6703  0.2155
16384TIP3    H270568   3.994   4.503  12.110  1.1837 -2.1710  1.7034
16385TIP3   OH270569   1.565   2.881  13.366  0.5027 -0.1202  0.5623
16385TIP3    H170570   1.660   2.873  13.371  0.5160 -0.4334 -0.0095
16385TIP3    H270571   1.543   2.847  13.279 -0.0219  0.9533  0.2576
16386TIP3   OH270572   6.525   6.277   0.951 -0.5608 -0.0513  0.5444
16386TIP3    H170573   6.445   6.328   0.960 -0.6102 -0.2428  1.2888
16386TIP3    H270574   6.596   6.338   0.970 -0.3614  0.6765 -2.2326
16387TIP3   OH270575   6.693   4.627   3.456  0.5941  0.0004 -0.3259
16387TIP3    H170576   6.633   4.562   3.420 -0.2049  0.9056 -0.6793
16387TIP3    H270577   6.748   4.578   3.517 -0.4293 -0.8786 -0.0720
16388TIP3   OH270578   5.058   5.641  12.945  0.1043  0.0082  0.4196
16388TIP3    H170579   5.113   5.617  12.870 -2.3413 -2.0235 -0.8616
16388TIP3    H270580   4.995   5.570  12.952 -0.5491  0.7366  3.7070
16389TIP3   OH270581   1.236   6.742  13.381  0.3671 -0.5418  0.9744
16389TIP3    H170582   1.327   6.713  13.369  0.5492 -0.2491  1.6164
16389TIP3    H270583   1.232   6.826  13.336  0.4835 -0.4381  1.1557
16390TIP3   OH270584   0.226   5.268  14.476  0.0697 -0.0713 -0.2937
16390TIP3    H170585   0.219   5.322  14.554  0.7726  0.9369 -0.9131
16390TIP3    H270586   0.150   5.291  14.423  0.1453  0.0094 -0.3687
16391TIP3   OH270587   0.021   1.709   1.807  0.1264  0.4231 -0.4056
16391TIP3    H170588   0.082   1.671   1.870 -0.7480  0.3823  0.4377
16391TIP3    H270589  -0.024   1.633   1.768  1.1051  0.4120 -1.5561
16392TIP3   OH270590   2.787   2.124   3.297  0.4281  0.1599 -0.3012
16392TIP3    H170591   2.734   2.055   3.256 -0.1432  0.2868  0.2167
16392TIP3    H270592   2.856   2.141   3.233 -0.1025 -0.0709 -0.9562
16393TIP3   OH270593   3.962   5.620  15.198  0.2248 -0.2941  0.0209
16393TIP3    H170594   3.904   5.550  15.225  1.4246 -1.1238  0.5073
16393TIP3    H270595   3.996   5.657  15.280 -1.2485  1.6353 -0.1702
16394TIP3   OH270596   0.190   2.050   2.844  0.3737 -0.3253 -0.0350
16394TIP3    H170597   0.153   1.970   2.883  0.9893 -0.6567 -0.1147
16394TIP3    H270598   0.173   2.041   2.750  0.1928 -0.2295 -0.0108
16395TIP3   OH270599   2.291   2.788  10.675 -0.4075 -0.0724  0.2300
16395TIP3    H170600   2.379   2.803  10.639 -0.1175  1.8691  1.5815
16395TIP3    H270601   2.299   2.706  10.723  0.6553 -0.0042  0.2092
16396TIP3   OH270602   6.428   4.475  12.221 -0.0157 -0.2792 -0.0157
16396TIP3    H170603   6.385   4.547  12.269  2.3865  0.3625  1.3659
16396TIP3    H270604   6.399   4.396  12.265  0.6908  0.1937  1.3651
16397TIP3   OH270605   2.209   5.198  16.394 -0.0975 -0.3544  0.1856
16397TIP3    H170606   2.223   5.104  16.405  0.1716 -0.3743 -0.3009
16397TIP3    H270607   2.144   5.205  16.324  1.9308 -0.1365 -1.7770
16398TIP3   OH270608   6.600   1.657  14.266  0.0972 -0.0865  0.1224
16398TIP3    H170609   6.621   1.696  14.181  1.0792  0.1636  0.4652
16398TIP3    H270610   6.576   1.567  14.246 -1.0811  0.3566 -0.5591
16399TIP3   OH270611   4.473   4.608  15.278 -0.4492  0.1795 -0.4966
16399TIP3    H170612   4.564   4.630  15.297 -0.3409 -0.7065  0.0609
16399TIP3    H270613   4.422   4.656  15.343 -0.3295  0.1137 -0.3544
16400TIP3   OH270614   2.399   1.510   1.297  0.3640  0.2283 -0.0380
16400TIP3    H170615   2.449   1.587   1.324 -1.1481  0.6957  1.6271
16400TIP3    H270616   2.413   1.446   1.367  1.9750 -1.2561 -1.6231
16401TIP3   OH270617   3.964   2.532  12.873  0.1281  0.2430  0.7589
16401TIP3    H170618   4.021   2.566  12.804  0.3132 -1.9942 -0.2785
16401TIP3    H270619   4.016   2.540  12.953  1.7367 -1.2541 -0.0840
16402TIP3   OH270620   1.776   4.979  12.669 -0.0537 -0.1644  0.4075
16402TIP3    H170621   1.769   4.887  12.698 -0.4885 -0.2868 -0.0760
16402TIP3    H270622   1.752   4.977  12.577  1.7583  0.1595 -0.1090
16403TIP3   OH270623   3.152   4.942  12.908  0.5148 -0.1985  0.0480
16403TIP3    H170624   3.122   4.970  12.995 -0.4721 -5.0631  1.5861
16403TIP3    H270625   3.071   4.923  12.861  1.1000  0.1440 -1.1180
16404TIP3   OH270626   2.925   6.074   0.489 -0.5539  0.8165  0.5498
16404TIP3    H170627   2.880   6.128   0.555  1.7607  0.1723  2.7785
16404TIP3    H270628   2.883   5.988   0.495 -0.6599  0.8891  0.8399
16405TIP3   OH270629   2.483   0.212  15.431  0.1042  0.2399 -0.2826
16405TIP3    H170630   2.555   0.237  15.373  0.4933  1.2757  0.6119
16405TIP3    H270631   2.437   0.294  15.449 -1.3795 -0.4278 -0.9281
16406TIP3   OH270632   2.194   4.059   1.604 -0.7804 -0.0283  0.7735
16406TIP3    H170633   2.249   4.123   1.558 -1.1750 -0.6155 -0.5553
16406TIP3    H270634   2.168   4.104   1.685  2.5403 -0.1126  2.0599
16407TIP3   OH270635   2.424   6.401   3.635 -0.1926  0.0964 -0.2784
16407TIP3    H170636   2.414   6.347   3.714  0.0910 -0.5504 -0.6740
16407TIP3    H270637   2.347   6.458   3.635 -0.0358  0.3227  0.6296
16408TIP3   OH270638   4.762   1.121   2.992 -0.1345  0.0148  0.0417
16408TIP3    H170639   4.831   1.092   3.052 -0.9253  3.4241  2.9067
16408TIP3    H270640   4.681   1.105   3.039 -0.9008  1.5281 -0.6955
16409TIP3   OH270641   5.007   2.577   5.033 -0.5341 -0.4505  0.0969
16409TIP3    H170642   5.029   2.604   5.123 -0.9418  0.6895 -0.1251
16409TIP3    H270643   5.051   2.493   5.022  1.8983  0.6625  0.4274
16410TIP3   OH270644   2.126   4.887  15.591 -0.2649  0.1668  0.3241
16410TIP3    H170645   2.219   4.891  15.611 -0.6297  1.8677  1.9727
16410TIP3    H270646   2.089   4.833  15.661 -0.4368 -1.2992 -0.8503
16411TIP3   OH270647   1.109   6.269   5.291  0.3639  0.1978 -0.4420
16411TIP3    H170648   1.103   6.317   5.373  0.2486  0.8947 -0.8516
16411TIP3    H270649   1.020   6.268   5.256  0.6927  1.5246 -1.4449
16412TIP3   OH270650   6.759   0.403  14.579 -0.3964 -0.1363  0.1522
16412TIP3    H170651   6.786   0.324  14.626  0.0010 -0.3822 -0.4745
16412TIP3    H270652   6.711   0.371  14.503  0.1553  0.2048 -0.3472
16413TIP3   OH270653   5.338   5.631   3.323  0.2151  0.3297  0.5792
16413TIP3    H170654   5.287   5.668   3.250  1.2790 -0.0673 -0.3992
16413TIP3    H270655   5.303   5.542   3.334  1.9279 -0.6604 -1.4006
16414TIP3   OH270656   6.110   1.921  15.490 -0.7025 -0.1482 -1.2445
16414TIP3    H170657   6.035   1.864  15.475 -1.2495  0.2370 -0.0846
16414TIP3    H270658   6.100   1.991  15.426 -0.4559 -0.9168 -2.1467
16415TIP3   OH270659   1.093   5.325  13.452  0.2800  0.6461  0.4497
16415TIP3    H170660   1.021   5.299  13.395  2.2241 -1.5687 -1.1981
16415TIP3    H270661   1.051   5.351  13.534 -2.3436 -1.1365 -0.2028
16416TIP3   OH270662   0.034   1.024   0.373 -0.0295  0.7323 -0.5059
16416TIP3    H170663   0.044   1.112   0.409  0.9901  0.6240 -0.5022
16416TIP3    H270664  -0.002   1.039   0.285 -1.9327  1.0240  0.2592
16417TIP3   OH270665   2.576   5.463   0.620  0.9916 -0.2381 -0.2513
16417TIP3    H170666   2.572   5.404   0.695  1.0500 -0.8844 -0.7571
16417TIP3    H270667   2.599   5.407   0.546  2.8398  0.6675 -0.4294
16418TIP3   OH270668   5.991   2.772   5.917 -0.0363 -0.2046  0.2167
16418TIP3    H170669   5.958   2.860   5.933  0.9401  0.3249 -0.5382
16418TIP3    H270670   6.020   2.741   6.003 -0.2777  0.2490  0.4663
16419TIP3   OH270671   6.308   2.881  15.686 -0.1682 -0.2590 -0.1062
16419TIP3    H170672   6.234   2.915  15.735  1.8905  1.7919  1.8680
16419TIP3    H270673   6.354   2.823  15.748  0.0811 -1.2500 -1.1732
16420TIP3   OH270674   6.644   5.607  12.820 -0.5697  0.3213 -0.2118
16420TIP3    H170675   6.679   5.559  12.895  0.8359 -0.5763 -1.3592
16420TIP3    H270676   6.555   5.630  12.844  0.1687  0.9743  2.1166
16421TIP3   OH270677   0.052   3.773  15.276  0.2516 -0.2165 -0.5603
16421TIP3    H170678   0.002   3.813  15.347 -1.8987  0.4097 -2.3249
16421TIP3    H270679   0.143   3.779  15.305 -0.3443  2.0572  1.1478
16422TIP3   OH270680   0.970   5.442  12.657  0.0841  0.0114  0.0924
16422TIP3    H170681   1.020   5.523  12.663  2.0358 -1.0806 -0.5227
16422TIP3    H270682   0.879   5.470  12.652  0.6447  2.1082  0.7685
16423TIP3   OH270683   6.632   5.489  15.870 -0.5321 -0.2536  0.3869
16423TIP3    H170684   6.598   5.469  15.783 -0.8442  0.3860  0.3586
16423TIP3    H270685   6.670   5.406  15.900 -0.6472 -0.5460 -0.2494
16424TIP3   OH270686   1.629   0.522  12.654 -0.1186 -0.0932 -0.1417
16424TIP3    H170687   1.583   0.492  12.576 -0.7976 -2.0450  0.9600
16424TIP3    H270688   1.664   0.443  12.694  0.7232  0.9330  1.2402
16425TIP3   OH270689   3.524   0.321  11.537 -0.4070 -0.2467 -0.2952
16425TIP3    H170690   3.488   0.400  11.497 -0.6311 -0.1086  0.1723
16425TIP3    H270691   3.605   0.305  11.489 -0.5374  0.0649 -0.6277
16426TIP3   OH270692   0.132   3.871  16.662  0.0263 -0.2510 -0.2449
16426TIP3    H170693   0.076   3.797  16.687 -0.4999 -0.4635 -1.9633
16426TIP3    H270694   0.098   3.900  16.578  2.0784  0.0470 -1.0292
16427TIP3   OH270695   0.728   1.005   5.775  0.2077 -0.0581 -0.4367
16427TIP3    H170696   0.643   0.989   5.733  0.6258  0.9108 -1.6937
16427TIP3    H270697   0.767   1.077   5.725 -0.3064  2.9497  3.0640
16428TIP3   OH270698   5.037   3.216   0.434  0.4353  0.4931  0.0275
16428TIP3    H170699   5.094   3.268   0.492  2.0609 -0.5744 -0.5538
16428TIP3    H270700   5.064   3.241   0.345  1.7415 -1.7785 -0.2826
16429TIP3   OH270701   2.873   3.159   3.394 -0.4755 -0.2089  0.1205
16429TIP3    H170702   2.937   3.115   3.450 -0.3990 -0.7601 -0.3869
16429TIP3    H270703   2.788   3.140   3.435 -0.3705 -0.0745  0.4004
16430TIP3   OH270704   3.404   4.869   4.118 -0.3997  0.1585 -0.1423
16430TIP3    H170705   3.373   4.788   4.159 -2.0021 -0.1294 -1.7791
16430TIP3    H270706   3.389   4.937   4.184 -1.9552 -0.4345  0.1504
16431TIP3   OH270707   0.764   2.814   3.212 -0.0877 -0.3443 -0.0083
16431TIP3    H170708   0.819   2.876   3.164  0.5213 -1.0231 -0.1920
16431TIP3    H270709   0.777   2.730   3.168 -0.2283 -0.7874  0.7788
16432TIP3   OH270710   3.888   2.045   4.801 -0.0865 -0.4744 -0.2854
16432TIP3    H170711   3.925   1.968   4.759  0.0851 -1.2498  1.2205
16432TIP3    H270712   3.882   2.022   4.893 -0.3271  1.2112  0.1626
16433TIP3   OH270713   4.668   0.480  15.273  0.2421  0.7626 -0.4130
16433TIP3    H170714   4.603   0.411  15.257 -1.8525  2.3168  0.8248
16433TIP3    H270715   4.655   0.542  15.202  0.2821  1.1413 -0.0910
16434TIP3   OH270716   4.344   2.853  15.887 -0.0433  0.3181 -0.3142
16434TIP3    H170717   4.293   2.884  15.812 -0.9854 -0.3929  0.0043
16434TIP3    H270718   4.368   2.932  15.935 -0.6750  0.6827 -0.5906
16435TIP3   OH270719   3.898   0.832  14.684  0.1170 -0.2811 -0.3066
16435TIP3    H170720   3.978   0.810  14.636  1.3055  1.6185  0.6967
16435TIP3    H270721   3.863   0.908  14.638 -0.3792 -0.2805  0.0671
16436TIP3   OH270722   5.506   2.253   1.320 -0.4370 -0.0678 -0.2297
16436TIP3    H170723   5.571   2.220   1.381 -0.4789 -2.5687 -1.4018
16436TIP3    H270724   5.448   2.179   1.305 -1.6536  1.1160 -1.6945
16437TIP3   OH270725   4.528   1.088  15.247 -0.1860  0.1236  0.1680
16437TIP3    H170726   4.510   1.029  15.320  0.6125 -2.8509 -1.8166
16437TIP3    H270727   4.447   1.090  15.196  0.5045 -1.4135 -1.0838
16438TIP3   OH270728   2.216   4.040  13.310 -0.2056  0.0508 -0.4040
16438TIP3    H170729   2.296   4.007  13.349  1.2044  0.2067 -2.9648
16438TIP3    H270730   2.167   4.077  13.384  1.7764 -0.5669  1.3180
16439TIP3   OH270731   6.568   2.426   4.235  0.0481 -0.2731  0.2452
16439TIP3    H170732   6.647   2.399   4.282 -0.6225 -0.2888  1.4127
16439TIP3    H270733   6.544   2.349   4.183  0.5115 -0.4539  0.2974
16440TIP3   OH270734   1.512   3.254  12.507  0.3918 -0.0968  0.3282
16440TIP3    H170735   1.426   3.288  12.482  1.2050  2.8369  1.1524
16440TIP3    H270736   1.512   3.163  12.475 -1.8867  0.6855 -2.2495
16441TIP3   OH270737   0.920   5.113  12.605  0.1414  0.2068  0.8481
16441TIP3    H170738   0.976   5.144  12.677  1.2765  2.2608 -0.8073
16441TIP3    H270739   0.848   5.177  12.601  0.4401  0.5001 -0.2168
16442TIP3   OH270740   2.376   3.629   3.619 -0.0654  0.2351  0.0014
16442TIP3    H170741   2.293   3.665   3.589 -0.0251  0.7465  0.4899
16442TIP3    H270742   2.357   3.538   3.642 -0.7101  0.6083  1.0079
16443TIP3   OH270743   4.259   3.584  17.090 -0.3521  0.0821 -0.8067
16443TIP3    H170744   4.224   3.666  17.054 -1.1381 -0.5659 -1.5726
16443TIP3    H270745   4.309   3.611  17.167 -0.7584  1.2607 -0.9312
16444TIP3   OH270746   3.998   2.142   1.452  0.1107 -0.4999  0.5017
16444TIP3    H170747   4.081   2.102   1.423  0.7697  1.7551 -1.0217
16444TIP3    H270748   3.968   2.192   1.376 -0.5352  2.0129  2.2665
16445TIP3   OH270749   0.067   3.401   2.541 -0.3182  0.0212 -0.2284
16445TIP3    H170750   0.031   3.461   2.474 -0.9989  0.1277  0.2266
16445TIP3    H270751   0.016   3.321   2.531 -0.8697  0.2587  0.5891
16446TIP3   OH270752   2.297   3.019  10.935  0.3721  0.1065 -0.3090
16446TIP3    H170753   2.244   2.952  10.893  0.6940 -0.5701  0.3343
16446TIP3    H270754   2.384   2.979  10.943  0.6533  0.7234 -0.2128
16447TIP3   OH270755   4.736   5.141   4.554 -0.1434 -0.2793 -0.3525
16447TIP3    H170756   4.725   5.222   4.604  0.8128 -0.0581 -0.4717
16447TIP3    H270757   4.767   5.170   4.468  1.7942 -0.8125  0.1102
16448TIP3   OH270758   0.902   3.793   1.376 -0.3829 -0.5454  0.1164
16448TIP3    H170759   0.896   3.864   1.440  0.3586 -0.1900 -0.1989
16448TIP3    H270760   0.839   3.728   1.407 -0.0452 -0.3783  1.2038
16449TIP3   OH270761   2.173   3.693  16.820 -0.3425  0.4112 -0.5952
16449TIP3    H170762   2.154   3.614  16.769 -1.7627  0.2334  0.1658
16449TIP3    H270763   2.260   3.719  16.791 -1.5166  1.0347 -4.0704
16450TIP3   OH270764   2.912   0.779   5.587 -0.5542 -0.7139 -0.3557
16450TIP3    H170765   2.885   0.692   5.560 -0.3949  0.0369 -3.2707
16450TIP3    H270766   2.997   0.766   5.630 -2.8587 -2.5021  4.3602
16451TIP3   OH270767   5.480   6.147  12.469 -0.1081 -0.3429  0.0555
16451TIP3    H170768   5.480   6.068  12.415  0.6173 -0.3110  0.0020
16451TIP3    H270769   5.471   6.115  12.559 -0.3580 -0.4524 -0.0086
16452TIP3   OH270770   3.737   4.491   5.521 -0.6428  0.1216  0.7446
16452TIP3    H170771   3.811   4.505   5.579 -1.2479  1.2916  1.2509
16452TIP3    H270772   3.770   4.430   5.455 -0.0118 -1.4249  2.4078
16453TIP3   OH270773   0.058   5.322   2.583 -0.0327  0.0440 -0.2307
16453TIP3    H170774  -0.016   5.349   2.637 -0.9337 -0.4385 -1.1740
16453TIP3    H270775   0.024   5.251   2.529  1.4742 -1.0293  0.1615
16454TIP3   OH270776   4.413   1.480  15.583 -0.1928 -0.2643 -0.0122
16454TIP3    H170777   4.380   1.451  15.498 -0.6006 -0.2220  0.1319
16454TIP3    H270778   4.497   1.435  15.592 -0.5774 -1.0035 -0.0282
16455TIP3   OH270779   2.479   1.320   1.466  0.0861  0.1000  0.5104
16455TIP3    H170780   2.504   1.264   1.393 -1.2922 -0.9703  0.8228
16455TIP3    H270781   2.537   1.293   1.538  0.7931  0.4957  0.0988
16456TIP3   OH270782   5.450   3.815   1.024  0.4178 -0.2299  0.4142
16456TIP3    H170783   5.388   3.751   1.060  0.0861  1.4652  3.1692
16456TIP3    H270784   5.443   3.890   1.082  2.0070  1.7076 -1.7005
16457TIP3   OH270785   5.398   4.219  13.430 -0.0725 -0.6657  0.3266
16457TIP3    H170786   5.423   4.310  13.413 -0.4728 -0.4466  0.8775
16457TIP3    H270787   5.462   4.167  13.380 -0.0078 -0.0854 -0.2153
16458TIP3   OH270788   6.781   4.614  12.786  0.3748 -0.3115  0.5261
16458TIP3    H170789   6.870   4.646  12.769  0.2097  0.5653  1.2487
16458TIP3    H270790   6.738   4.618  12.701  0.4577  1.1165  0.5238
16459TIP3   OH270791   2.982   4.622  12.690  0.0892  1.0185 -0.5524
16459TIP3    H170792   2.996   4.715  12.669 -1.0074  1.2393 -0.3814
16459TIP3    H270793   3.022   4.612  12.777  2.7740  0.5994 -1.7245
16460TIP3   OH270794   1.428   0.075   3.568 -0.8204  0.2013  0.1852
16460TIP3    H170795   1.487   0.030   3.628  1.0575  2.0845 -0.1363
16460TIP3    H270796   1.410   0.158   3.610 -1.5730  0.4897 -0.6881
16461TIP3   OH270797   6.143   4.880   0.022 -0.4143  0.3112 -0.3259
16461TIP3    H170798   6.126   4.798   0.067 -0.6638  1.3685  1.6250
16461TIP3    H270799   6.059   4.902  -0.019 -0.2950 -0.4651 -1.0115
16462TIP3   OH270800   5.751   3.787   0.608 -0.1227 -0.1187  0.3960
16462TIP3    H170801   5.707   3.757   0.687 -1.9279 -1.5808 -1.0700
16462TIP3    H270802   5.794   3.709   0.573  0.2967  0.4094 -0.3015
16463TIP3   OH270803   5.704   5.660   1.263 -0.8645 -0.0610  0.2333
16463TIP3    H170804   5.664   5.701   1.187  0.3722 -0.7613 -0.8335
16463TIP3    H270805   5.797   5.653   1.240 -0.6174 -1.0858  1.4533
16464TIP3   OH270806   2.769   1.950  11.756  0.5107 -0.2986 -0.1363
16464TIP3    H170807   2.840   2.005  11.724 -0.3877  0.9742 -0.0069
16464TIP3    H270808   2.709   2.010  11.798 -1.3077 -1.1311 -1.3868
16465TIP3   OH270809   0.783   3.921  13.089 -0.2254 -0.1789  0.1193
16465TIP3    H170810   0.701   3.932  13.138  0.8234  1.1733  1.7144
16465TIP3    H270811   0.809   3.830  13.106  1.0230  0.6925  3.8067
16466TIP3   OH270812   2.148   5.712   5.638  0.3015  0.0364  0.3348
16466TIP3    H170813   2.182   5.644   5.580 -0.2413 -0.2682  0.3711
16466TIP3    H270814   2.061   5.732   5.603 -2.1992 -3.5002  3.6827
16467TIP3   OH270815   5.777   0.950   6.444 -0.1491  0.2352  0.0887
16467TIP3    H170816   5.807   0.865   6.414 -1.2186 -0.3349  0.5782
16467TIP3    H270817   5.857   1.000   6.460  0.4837 -0.7079 -0.1018
16468TIP3   OH270818   0.472   4.377  16.824 -0.2694 -0.6583 -0.0417
16468TIP3    H170819   0.543   4.398  16.764  0.2397 -0.4576  0.6124
16468TIP3    H270820   0.410   4.449  16.814 -0.1561 -0.5933 -0.2777
16469TIP3   OH270821   6.365   0.270  11.916 -0.7475 -0.1824  0.3217
16469TIP3    H170822   6.291   0.328  11.933 -0.4935 -0.1275  1.3084
16469TIP3    H270823   6.331   0.182  11.933 -0.3093 -0.0768  1.8514
16470TIP3   OH270824   1.297   2.879   0.998 -0.4131  0.5888  0.0072
16470TIP3    H170825   1.246   2.892   1.078 -0.8717  1.2456 -0.3740
16470TIP3    H270826   1.360   2.811   1.020 -1.5837 -0.3961  0.4415
16471TIP3   OH270827   1.845   3.091   4.452  0.4236  0.3614 -0.1674
16471TIP3    H170828   1.890   3.106   4.369  0.5766 -0.4652 -0.2369
16471TIP3    H270829   1.807   3.176   4.474  3.6183  1.6784  0.8654
16472TIP3   OH270830   2.449   4.265  12.504 -0.2575 -0.2297 -0.1119
16472TIP3    H170831   2.431   4.186  12.554 -0.5400 -0.2624 -0.2643
16472TIP3    H270832   2.383   4.328  12.535  0.2988  0.1138  0.3902
16473TIP3   OH270833   1.385   5.068   0.784 -0.9428  0.2454  0.3266
16473TIP3    H170834   1.321   5.072   0.713 -0.7190  2.4100  0.1739
16473TIP3    H270835   1.445   4.998   0.758 -1.7616 -0.0811 -0.8056
16474TIP3   OH270836   4.135   3.815  11.598 -0.0577  0.0804 -0.5409
16474TIP3    H170837   4.170   3.727  11.584  0.1471  0.0766 -0.0359
16474TIP3    H270838   4.144   3.829  11.692  0.0221  0.6917 -0.6369
16475TIP3   OH270839   5.170   5.520   5.251  0.3278 -0.2419 -0.0270
16475TIP3    H170840   5.077   5.535   5.268 -0.0676 -2.5610  0.1977
16475TIP3    H270841   5.216   5.575   5.315 -0.7909  2.1388 -1.1430
16476TIP3   OH270842   5.556   1.580   4.187  0.6438 -0.0466  0.3902
16476TIP3    H170843   5.636   1.619   4.222  0.7040  1.4995 -1.3245
16476TIP3    H270844   5.538   1.629   4.107 -1.8943 -0.5227  0.5812
16477TIP3   OH270845   3.755   3.278   2.996  0.1871 -0.7755 -0.1591
16477TIP3    H170846   3.665   3.247   3.006 -0.5181  1.2307  0.1209
16477TIP3    H270847   3.762   3.352   3.057  2.0581 -0.9316 -0.1220
16478TIP3   OH270848   1.135   6.154   3.043 -0.2303  0.7620  0.5831
16478TIP3    H170849   1.208   6.146   2.982 -0.4069 -0.5319  0.5229
16478TIP3    H270850   1.071   6.089   3.013 -1.4023  1.8517  0.6482
16479TIP3   OH270851   1.943   3.597   0.959  0.1133 -0.2571  0.0889
16479TIP3    H170852   1.871   3.588   0.897  0.3192  1.1605 -0.4084
16479TIP3    H270853   2.011   3.643   0.909 -0.1697  2.0782  1.6673
16480TIP3   OH270854   0.735   4.936   2.012 -0.5200 -0.5118  0.6938
16480TIP3    H170855   0.792   5.011   1.993  1.2013 -1.3404  2.2054
16480TIP3    H270856   0.660   4.973   2.058  0.3448  0.3204  1.4829
16481TIP3   OH270857   2.992   3.251   4.104  0.0185 -0.1151 -0.3229
16481TIP3    H170858   3.056   3.297   4.157  1.8855 -0.1156 -2.4011
16481TIP3    H270859   2.907   3.273   4.142  1.1897  0.5712  2.0290
16482TIP3   OH270860   5.916   1.969  15.006  0.0046  0.1684  0.0220
16482TIP3    H170861   5.863   2.027  14.951 -1.6936 -0.2121  1.1713
16482TIP3    H270862   5.876   1.976  15.093  0.4412 -1.8671  0.4307
16483TIP3   OH270863   5.050   6.506   3.805  0.0676 -0.8050 -0.1913
16483TIP3    H170864   5.002   6.582   3.772 -1.0142 -1.7454 -0.9140
16483TIP3    H270865   5.136   6.539   3.827 -1.1209  1.1555  1.9299
16484TIP3   OH270866   4.724   4.496   1.273  0.5123 -0.4803  0.5410
16484TIP3    H170867   4.809   4.465   1.242 -0.1034 -2.0756  0.3298
16484TIP3    H270868   4.691   4.551   1.202  1.5001  0.4490  0.7778
16485TIP3   OH270869   0.342   5.306   3.084 -0.2592  0.6370 -0.5062
16485TIP3    H170870   0.389   5.333   3.005 -2.1526  0.4727 -1.7477
16485TIP3    H270871   0.386   5.226   3.111  0.4035  0.6675 -1.4080
16486TIP3   OH270872   6.656   6.741  14.791 -0.3231 -0.5363  0.3048
16486TIP3    H170873   6.605   6.684  14.733 -0.7761  0.0529  0.1183
16486TIP3    H270874   6.706   6.680  14.845 -1.0321 -1.1225  0.3215
16487TIP3   OH270875   1.176   1.348   1.256 -0.0534 -0.4783 -0.4801
16487TIP3    H170876   1.106   1.284   1.267 -0.6486  0.1443 -0.5785
16487TIP3    H270877   1.159   1.414   1.323 -0.5147  0.5103 -1.5428
16488TIP3   OH270878   5.006   4.023  15.976 -0.0798  0.0183 -0.3804
16488TIP3    H170879   5.042   4.109  15.994  2.0541 -0.5691 -1.5004
16488TIP3    H270880   4.928   4.017  16.032  0.9775  1.7587  1.3994
16489TIP3   OH270881   3.937   4.975   0.263 -0.1735 -0.5692  0.0830
16489TIP3    H170882   3.852   4.972   0.219 -1.3744 -1.9508  2.2886
16489TIP3    H270883   3.983   4.898   0.232  0.6412  0.5819 -1.6908
16490TIP3   OH270884   3.873   4.918   4.608 -0.1001  0.0837 -0.3387
16490TIP3    H170885   3.811   4.965   4.552  1.6785  0.9100 -1.7078
16490TIP3    H270886   3.902   4.844   4.555  0.1589 -0.2269  0.2325
16491TIP3   OH270887   6.283   1.643   5.263  0.9085  0.3057  0.1213
16491TIP3    H170888   6.367   1.665   5.223  0.8877  1.9015  0.8633
16491TIP3    H270889   6.277   1.701   5.339 -0.7933  0.0890  0.1910
16492TIP3   OH270890   1.444   4.375  16.168  0.2160  0.3301 -0.5547
16492TIP3    H170891   1.505   4.320  16.120  1.1430  0.5771  0.3202
16492TIP3    H270892   1.497   4.445  16.205 -0.4879  0.2515  0.6782
16493TIP3   OH270893   6.157   5.042   1.268 -0.2058 -0.3370 -0.0124
16493TIP3    H170894   6.210   5.012   1.342  2.7198  2.3943 -0.7371
16493TIP3    H270895   6.105   5.114   1.304 -2.0961 -1.7903  0.2649
16494TIP3   OH270896   1.646   4.028   4.863 -0.7215 -0.2444  0.5447
16494TIP3    H170897   1.654   4.088   4.936  1.7899 -0.6952  0.7400
16494TIP3    H270898   1.668   3.942   4.900 -0.5428 -0.6582 -0.4838
16495TIP3   OH270899   2.854   6.451   3.867 -0.3254  0.3352  0.0875
16495TIP3    H170900   2.859   6.358   3.886 -1.3020  0.6831  2.4840
16495TIP3    H270901   2.809   6.458   3.783 -1.8037 -1.3202  0.6963
16496TIP3   OH270902   1.715   0.360  14.092  0.2288  0.0714 -0.0219
16496TIP3    H170903   1.685   0.276  14.058 -1.0463  0.5681 -0.1680
16496TIP3    H270904   1.653   0.423  14.057  1.1368  1.0826  0.1332
16497TIP3   OH270905   5.993   0.416   4.334  0.2165  0.2284  0.6795
16497TIP3    H170906   5.984   0.326   4.303 -1.1106  0.7182 -0.4313
16497TIP3    H270907   6.042   0.408   4.416  1.5129 -1.3493 -0.1815
16498TIP3   OH270908   3.248   4.116  16.526 -0.4328 -0.2464 -0.5567
16498TIP3    H170909   3.304   4.046  16.561 -0.3201  0.4638  0.7243
16498TIP3    H270910   3.307   4.191  16.516 -0.9406  0.2105 -0.1617
16499TIP3   OH270911   4.686   4.703   3.142  0.4019 -0.2208 -0.5889
16499TIP3    H170912   4.722   4.765   3.206 -2.7992 -1.2485  2.5043
16499TIP3    H270913   4.716   4.617   3.172 -1.6158 -0.7713  0.0091
16500TIP3   OH270914   4.496   5.584  12.380 -0.1722 -0.2125  0.0007
16500TIP3    H170915   4.474   5.525  12.452 -0.1584 -1.0953 -0.7088
16500TIP3    H270916   4.420   5.583  12.323 -0.1319  0.3890 -0.0776
16501TIP3   OH270917   6.280   2.187   3.586 -0.1707  0.1920  0.5042
16501TIP3    H170918   6.254   2.106   3.543  0.0412  0.0065  0.7233
16501TIP3    H270919   6.347   2.224   3.529  0.0947 -0.0427  0.6627
16502TIP3   OH270920   1.256   4.852  15.530 -0.6090  0.1814  0.2440
16502TIP3    H170921   1.252   4.841  15.435  0.0123 -1.4503  0.3676
16502TIP3    H270922   1.175   4.897  15.552 -0.6996  0.7182 -1.0642
16503TIP3   OH270923   2.803   2.565   0.749 -0.0201  0.4554  0.2210
16503TIP3    H170924   2.754   2.513   0.812  1.1443 -0.7708  0.1487
16503TIP3    H270925   2.855   2.502   0.700 -0.7005  1.3894 -1.8411
16504TIP3   OH270926   6.025   5.828   4.032  0.4493 -0.0688 -0.2101
16504TIP3    H170927   6.095   5.769   4.060 -1.2236 -1.4854  1.2309
16504TIP3    H270928   6.013   5.886   4.106  0.9676  1.0686 -0.9893
16505TIP3   OH270929   5.036   0.005   4.399  0.5804  0.1117 -0.3176
16505TIP3    H170930   4.988   0.045   4.326  1.8615  1.3420 -0.5261
16505TIP3    H270931   5.070  -0.077   4.362  0.5146  0.3221 -0.8641
16506TIP3   OH270932   1.296   6.518   3.457  0.1463  0.0101  0.3814
16506TIP3    H170933   1.374   6.527   3.403  2.1130  0.4809  3.1085
16506TIP3    H270934   1.316   6.566   3.537 -2.8522 -0.1061  1.3214
16507TIP3   OH270935   6.522   5.207  16.144  0.2794  0.5120 -0.1855
16507TIP3    H170936   6.591   5.243  16.088  0.5425  1.1738  0.5486
16507TIP3    H270937   6.504   5.277  16.207 -0.9744  0.2958 -0.2865
16508TIP3   OH270938   2.488   1.711   2.713  0.2100  0.0338  0.0488
16508TIP3    H170939   2.453   1.705   2.802 -0.7356 -0.4867 -0.3343
16508TIP3    H270940   2.489   1.620   2.682  0.7890  0.1829 -0.3730
16509TIP3   OH270941   3.126   4.091  13.932  0.0279  0.4931 -0.7274
16509TIP3    H170942   3.071   4.092  14.010  1.2462  0.3473  0.1580
16509TIP3    H270943   3.092   4.019  13.879  0.9015 -1.2333  0.9575
16510TIP3   OH270944   4.898   3.056  14.541  0.3994 -0.0491  0.3409
16510TIP3    H170945   4.837   3.130  14.536  0.6720  0.2192  0.9225
16510TIP3    H270946   4.941   3.066  14.626 -1.1940 -2.1541  1.4927
16511TIP3   OH270947   1.977   2.947  11.026  0.0026  0.1435  0.7585
16511TIP3    H170948   1.970   3.037  10.995 -1.1734  0.5880  2.2070
16511TIP3    H270949   1.999   2.896  10.948 -0.8921  1.4658 -0.3927
16512TIP3   OH270950   1.608   0.779   6.404  0.4815  0.2193  0.4711
16512TIP3    H170951   1.551   0.771   6.481  1.1986  0.5446  1.0597
16512TIP3    H270952   1.590   0.866   6.369  1.8773  1.0823  1.7454
16513TIP3   OH270953   4.932   1.013   0.429  0.5297  0.1405  0.1820
16513TIP3    H170954   4.971   0.938   0.383  1.5334  1.4337 -1.1478
16513TIP3    H270955   4.989   1.086   0.409 -0.5715  1.3474  1.2626
16514TIP3   OH270956   4.980   3.434  12.593  0.2933 -0.4316  0.6478
16514TIP3    H170957   4.888   3.448  12.571  0.3420 -1.7537 -0.5184
16514TIP3    H270958   4.997   3.494  12.666 -0.4629  2.5542 -1.4535
16515TIP3   OH270959   4.246   6.172  13.037  0.5512 -0.3695  0.5766
16515TIP3    H170960   4.199   6.171  12.953 -0.9477 -2.2066  1.3535
16515TIP3    H270961   4.304   6.247  13.031  0.1609 -0.1706 -1.9287
16516TIP3   OH270962   5.037   1.703  17.004  0.2369 -0.1322  0.1327
16516TIP3    H170963   5.008   1.640  17.069 -0.0579  0.0671  0.1941
16516TIP3    H270964   5.024   1.788  17.045  3.0780 -0.0558  1.1092
16517TIP3   OH270965   3.845   4.258  13.631  0.9489 -0.0042  0.6106
16517TIP3    H170966   3.791   4.314  13.574  2.3072  0.8261  0.0832
16517TIP3    H270967   3.787   4.186  13.655 -1.2602  2.1057  2.1915
16518TIP3   OH270968   4.006   0.882   5.713 -0.2236 -0.1038 -0.3488
16518TIP3    H170969   4.023   0.973   5.689  1.5743 -0.6389 -1.2805
16518TIP3    H270970   3.970   0.886   5.801 -1.6649  1.5870 -0.9399
16519TIP3   OH270971   1.417   6.756  15.630  0.2756  0.0624  0.2373
16519TIP3    H170972   1.365   6.753  15.710  0.1584 -1.3541  0.1410
16519TIP3    H270973   1.507   6.756  15.660  0.2377  1.0405  0.3803
16520TIP3   OH270974   3.909   5.691   0.823  0.2107 -0.6695 -0.4013
16520TIP3    H170975   3.838   5.721   0.766  0.9696 -0.6733 -1.3805
16520TIP3    H270976   3.873   5.616   0.869 -0.6170 -0.2960 -0.4192
16521TIP3   OH270977   0.770   2.286  12.211  0.5561  0.5184 -0.4492
16521TIP3    H170978   0.738   2.232  12.138 -0.6948 -1.4736  1.4764
16521TIP3    H270979   0.862   2.302  12.190  0.7834 -1.7560 -1.5015
16522TIP3   OH270980   3.394   0.385   3.456 -0.2556 -0.2440  0.2263
16522TIP3    H170981   3.465   0.321   3.461  1.8182  1.9328  0.4336
16522TIP3    H270982   3.371   0.390   3.363  0.1529 -0.6780  0.1025
16523TIP3   OH270983   1.323   5.316   1.217 -0.4720 -0.5372 -0.0522
16523TIP3    H170984   1.398   5.356   1.262 -0.7653 -0.4413  0.3511
16523TIP3    H270985   1.339   5.222   1.223 -1.3648 -0.6028  1.7599
16524TIP3   OH270986   3.289   1.795   3.125 -0.3609  0.0448  0.0412
16524TIP3    H170987   3.225   1.760   3.062 -0.8333  1.2742 -0.1797
16524TIP3    H270988   3.274   1.889   3.125  1.9136  0.4596 -0.5022
16525TIP3   OH270989   4.504   2.445   3.075 -0.3143  0.1580  0.1048
16525TIP3    H170990   4.449   2.393   3.133  0.0626 -0.0122  0.3043
16525TIP3    H270991   4.577   2.473   3.129  0.5985 -0.8904 -0.5525
16526TIP3   OH270992   2.233   4.556  12.731  0.0284  0.2554  0.4903
16526TIP3    H170993   2.163   4.614  12.760  0.2447  0.3306  0.8712
16526TIP3    H270994   2.311   4.612  12.728 -0.0744  0.3570 -0.6754
16527TIP3   OH270995   2.065   2.360  17.132  0.3100 -0.0367  0.2700
16527TIP3    H170996   2.055   2.439  17.079 -1.8139 -1.9486 -2.4852
16527TIP3    H270997   2.117   2.301  17.078 -1.4613 -1.8866  0.4619
16528TIP3   OH270998   0.113   3.716  14.586  0.6228  0.3259  0.7249
16528TIP3    H170999   0.076   3.636  14.624  0.7706  0.5224  1.3024
16528TIP3    H271000   0.176   3.686  14.521 -0.2565 -0.0183  0.0168
16529TIP3   OH271001   2.152   2.670   5.134 -0.5077 -0.6125  0.0193
16529TIP3    H171002   2.094   2.740   5.104 -2.1803 -2.3699 -1.1535
16529TIP3    H271003   2.120   2.592   5.088  3.4694 -1.5697 -1.5227
16530TIP3   OH271004   6.063   0.373  14.830 -0.5807  0.4022 -0.3368
16530TIP3    H171005   6.018   0.456  14.844 -0.4709  0.1719  1.6359
16530TIP3    H271006   6.129   0.369  14.899 -0.2866 -1.1193 -0.6751
16531TIP3   OH271007   1.075   5.973  16.792 -0.2312 -0.5485 -0.1594
16531TIP3    H171008   1.139   6.007  16.730 -1.9715  1.8162 -0.7927
16531TIP3    H271009   1.111   5.995  16.878  0.9347 -1.4734 -0.3835
16532TIP3   OH271010   4.021   1.830  11.020 -0.0261 -0.1546  0.4516
16532TIP3    H171011   3.989   1.913  10.985 -1.1817  0.1753  2.1829
16532TIP3    H271012   3.971   1.763  10.973 -1.6728  0.2814  1.5154
16533TIP3   OH271013   3.819   6.029   2.583  0.6091  0.1366 -0.0350
16533TIP3    H171014   3.777   6.101   2.535 -0.1659 -1.0265 -1.1869
16533TIP3    H271015   3.756   5.957   2.576  0.5709 -0.1610  2.5930
16534TIP3   OH271016   5.280   2.682   1.527  0.8193  0.6009  0.0136
16534TIP3    H171017   5.376   2.685   1.526  0.8000  2.1421  0.1046
16534TIP3    H271018   5.253   2.773   1.520 -0.6527  0.2656  0.8437
16535TIP3   OH271019   4.078   6.478   1.871  0.6393  0.4891  0.3194
16535TIP3    H171020   4.082   6.398   1.818 -0.4730  0.5971  0.0505
16535TIP3    H271021   4.061   6.448   1.960 -2.8605  0.4607 -0.2044
16536TIP3   OH271022   3.554   6.560   0.455  1.1143  0.5666  0.2556
16536TIP3    H171023   3.464   6.527   0.464  1.3616  0.0411  0.8351
16536TIP3    H271024   3.544   6.655   0.457  0.6241  0.5090  0.9437
16537TIP3   OH271025   1.531   3.421   3.291 -0.4141  0.1360  0.4091
16537TIP3    H171026   1.436   3.413   3.295 -0.6069  0.3579 -2.1225
16537TIP3    H271027   1.562   3.333   3.270 -0.5778  0.8472 -3.6528
16538TIP3   OH271028   5.331   1.325  13.864 -0.2495  0.6213 -0.8050
16538TIP3    H171029   5.334   1.371  13.780  0.7173 -0.2361 -1.2639
16538TIP3    H271030   5.409   1.269  13.864 -1.4688 -1.1541 -0.3597
16539TIP3   OH271031   3.967   5.178   3.780 -0.5372  0.3413 -0.0751
16539TIP3    H171032   3.986   5.085   3.789 -0.9024  0.2799  0.1041
16539TIP3    H271033   3.915   5.184   3.700 -0.6891  0.3592  0.0225
16540TIP3   OH271034   5.149   2.297  13.835  0.4851  0.3829  0.4749
16540TIP3    H171035   5.238   2.274  13.862  0.8857 -2.0696 -2.3894
16540TIP3    H271036   5.159   2.332  13.746 -1.3062  1.6955  0.7274
16541TIP3   OH271037   0.115   2.238   3.077 -0.3432 -0.1638 -0.1969
16541TIP3    H171038   0.110   2.190   3.159 -0.0885  0.6759  0.3194
16541TIP3    H271039   0.165   2.181   3.019  1.1971  0.0534  0.8483
16542TIP3   OH271040   2.369   1.096  13.003  0.8568 -0.7818  0.1017
16542TIP3    H171041   2.390   1.084  13.096 -0.1717 -1.8227  0.2176
16542TIP3    H271042   2.322   1.017  12.979  1.2927 -0.6152 -1.3772
16543TIP3   OH271043   4.103   5.959   3.220  0.0793  0.2514  0.0434
16543TIP3    H171044   4.135   6.027   3.280 -1.0840 -0.4627  1.5252
16543TIP3    H271045   4.179   5.935   3.168  1.3483  0.3245  1.7974
16544TIP3   OH271046   3.443   2.970   4.979 -0.0861  0.3542  0.4181
16544TIP3    H171047   3.358   2.975   4.937  0.5968  0.1863 -1.0226
16544TIP3    H271048   3.423   2.971   5.073 -1.6410  0.6110  0.1107
16545TIP3   OH271049   5.468   4.760   0.796 -0.3017  0.2547  0.4460
16545TIP3    H171050   5.407   4.695   0.831  0.8246  0.0364  2.1004
16545TIP3    H271051   5.421   4.843   0.803 -0.9209 -0.0870  0.3952
16546TIP3   OH271052   3.872   0.511   2.353  0.0490 -0.3209  0.2991
16546TIP3    H171053   3.941   0.464   2.399 -0.1117 -0.2484  0.6182
16546TIP3    H271054   3.915   0.547   2.275  0.2587 -0.6756  0.2488
16547TIP3   OH271055   5.111   3.410   1.611  0.1222 -0.3705 -0.0512
16547TIP3    H171056   5.016   3.424   1.616  0.2153 -0.0578  0.9685
16547TIP3    H271057   5.127   3.338   1.672  0.6820  0.2950  0.5942
16548TIP3   OH271058   2.481   0.547  13.818 -0.0943 -0.5346  0.8827
16548TIP3    H171059   2.442   0.471  13.863  0.4006 -1.2112  0.2002
16548TIP3    H271060   2.530   0.592  13.886  0.7655 -1.6224  1.0175
16549TIP3   OH271061   6.142   0.303   2.397 -0.3833  0.4750 -0.2726
16549TIP3    H171062   6.226   0.259   2.389 -0.7500  0.0050 -2.0425
16549TIP3    H271063   6.142   0.369   2.327 -1.0364  1.2617  0.4401
16550TIP3   OH271064   6.225   2.617   3.429 -0.3603 -0.1226 -0.0004
16550TIP3    H171065   6.196   2.702   3.395 -1.2465 -0.3838  0.0864
16550TIP3    H271066   6.159   2.555   3.398  1.7314 -1.3068 -2.5699
16551TIP3   OH271067   6.672   1.445  16.613  0.0862  0.4885 -0.1506
16551TIP3    H171068   6.647   1.443  16.521  0.5159  0.3749 -0.2696
16551TIP3    H271069   6.673   1.538  16.636 -1.1277  0.4654  0.0608
16552TIP3   OH271070   0.014   1.501   5.930  1.2766  0.1182 -0.0188
16552TIP3    H171071   0.085   1.486   5.993  0.7420  0.0413  0.5765
16552TIP3    H271072  -0.016   1.413   5.907  1.9736  0.1165 -0.9806
16553TIP3   OH271073   5.887   2.255  16.368  0.2335  0.3870  0.3850
16553TIP3    H171074   5.933   2.339  16.373  0.9186  0.0421  0.1124
16553TIP3    H271075   5.955   2.193  16.342 -0.5115 -0.0364 -0.6329
16554TIP3   OH271076   1.999   3.728   3.177 -0.1176  0.8338 -0.0441
16554TIP3    H171077   2.091   3.753   3.167  0.6654 -0.9439  1.9925
16554TIP3    H271078   1.994   3.641   3.137 -1.1596  1.2664 -0.9115
16555TIP3   OH271079   2.799   4.799   0.924  0.1308 -0.3242 -0.0025
16555TIP3    H171080   2.809   4.706   0.902  0.3598 -0.5832  1.1097
16555TIP3    H271081   2.888   4.834   0.921  0.0729 -0.1945 -0.1945
16556TIP3   OH271082   0.365   5.805   3.094  0.0276  0.0083  0.3172
16556TIP3    H171083   0.449   5.797   3.048 -0.0866  1.1680 -0.1202
16556TIP3    H271084   0.299   5.798   3.025 -0.2449 -0.8481  0.6531
16557TIP3   OH271085   1.027   3.745   1.755  0.1397 -0.4782 -0.2064
16557TIP3    H171086   0.985   3.660   1.741  0.9599 -1.0891  0.8377
16557TIP3    H271087   0.966   3.809   1.719 -1.3456 -1.3799  0.6402
16558TIP3   OH271088   5.900   2.038  14.686  0.3127  0.1235 -0.0822
16558TIP3    H171089   5.992   2.057  14.703 -0.2061  1.4532  1.4378
16558TIP3    H271090   5.881   2.082  14.603  0.6747  1.1508  0.3688
16559TIP3   OH271091   5.494   1.716   6.636 -0.4400  0.9362 -0.0692
16559TIP3    H171092   5.527   1.799   6.602  1.3317  0.2186 -0.2060
16559TIP3    H271093   5.558   1.690   6.702 -0.9184 -0.3814 -0.1008
16560TIP3   OH271094   5.854   2.775   2.111 -0.0219  0.2128  0.0783
16560TIP3    H171095   5.854   2.852   2.168 -0.3850  0.1227  0.2004
16560TIP3    H271096   5.922   2.719   2.147 -0.6766 -0.1286  0.8124
16561TIP3   OH271097   5.199   2.074  11.657 -0.0724 -0.0854  0.4802
16561TIP3    H171098   5.259   2.001  11.674 -0.0492 -0.3431 -0.6167
16561TIP3    H271099   5.134   2.038  11.596 -0.5231  0.5873  0.5531
16562TIP3   OH271100   4.047   5.311  12.262 -0.8312  0.1284 -0.0480
16562TIP3    H171101   4.029   5.356  12.344 -1.5900 -0.4286  0.1028
16562TIP3    H271102   3.974   5.251  12.251  0.6722 -1.9032  0.3474
16563TIP3   OH271103   5.376   4.136   2.987  0.0092 -0.2034 -0.0164
16563TIP3    H171104   5.281   4.139   3.000  0.0085 -0.6802  0.1047
16563TIP3    H271105   5.389   4.067   2.922  0.0102  2.1547 -2.7134
16564TIP3   OH271106   1.417   3.385  12.919 -0.0677 -0.1861 -0.0199
16564TIP3    H171107   1.470   3.430  12.853  0.2099 -2.0193 -1.1239
16564TIP3    H271108   1.456   3.410  13.003  1.0732  0.3422 -0.6881
16565TIP3   OH271109   2.278   6.433   6.148  0.6635 -0.6327 -0.2611
16565TIP3    H171110   2.298   6.343   6.172  0.9780 -0.6866 -0.7204
16565TIP3    H271111   2.354   6.463   6.099  0.7566  0.0303  0.2713
16566TIP3   OH271112   4.139   3.348   3.068 -0.2325 -0.0386  0.9111
16566TIP3    H171113   4.215   3.299   3.100  1.1785  1.2367 -0.3408
16566TIP3    H271114   4.113   3.302   2.988 -0.0354  0.1960  0.7099
16567TIP3   OH271115   4.923   0.545  16.184  0.0667 -0.3040 -0.4785
16567TIP3    H171116   4.933   0.619  16.244  0.1573 -1.8662  1.5461
16567TIP3    H271117   4.927   0.585  16.097  0.5825  2.0000  0.4989
16568TIP3   OH271118   5.854   4.296  16.923  0.3735 -0.3472 -0.0004
16568TIP3    H171119   5.805   4.313  17.003  1.8149  1.0857  0.6184
16568TIP3    H271120   5.945   4.309  16.947  0.7462  2.3563 -2.3476
16569TIP3   OH271121   2.350   4.576  11.618 -0.6843 -0.5861 -0.2372
16569TIP3    H171122   2.356   4.598  11.712  0.4540 -0.8522 -0.2272
16569TIP3    H271123   2.259   4.593  11.595 -0.6681  0.8350  0.5912
16570TIP3   OH271124   1.688   4.426  14.212  0.6258 -0.0847  1.0886
16570TIP3    H171125   1.698   4.424  14.117  0.7265 -2.1446  1.0999
16570TIP3    H271126   1.777   4.437  14.245  0.6153  0.4201  0.9571
16571TIP3   OH271127   2.088   3.444  16.678  0.0145  0.4981  0.1522
16571TIP3    H171128   2.159   3.402  16.630 -1.2029 -1.5366  0.0126
16571TIP3    H271129   2.008   3.416  16.633 -0.9575  1.7152  1.0368
16572TIP3   OH271130   3.087   1.891   6.809 -0.5920 -0.3432 -0.2726
16572TIP3    H171131   3.028   1.816   6.800 -1.0532 -0.1875  1.1889
16572TIP3    H271132   3.145   1.885   6.732 -0.7208 -2.0888 -0.2880
16573TIP3   OH271133   2.674   0.179  10.682  0.1901  0.2180 -0.5171
16573TIP3    H171134   2.609   0.112  10.703  1.2688 -0.5056  0.6620
16573TIP3    H271135   2.740   0.132  10.630  1.9171 -0.1954  1.8907
16574TIP3   OH271136   2.211   6.681  13.221  0.3184  0.1725 -0.0089
16574TIP3    H171137   2.169   6.732  13.291  3.0064  0.5629  1.4638
16574TIP3    H271138   2.265   6.745  13.175 -1.7856  0.0475 -2.9552
16575TIP3   OH271139   3.298   3.925   5.541  0.4042 -0.1560  0.5611
16575TIP3    H171140   3.331   3.867   5.610 -0.1296 -1.8304 -0.5410
16575TIP3    H271141   3.304   3.873   5.461 -2.2551  0.4728 -0.1208
16576TIP3   OH271142   5.772   4.641   1.547  0.4792  0.0143 -0.3143
16576TIP3    H171143   5.808   4.612   1.464  0.2916  1.4886 -0.9370
16576TIP3    H271144   5.778   4.564   1.604  3.0586 -0.2815 -0.8646
16577TIP3   OH271145   5.235   3.875   1.730  0.4047  0.4889  0.0493
16577TIP3    H171146   5.216   3.883   1.824 -0.5200 -1.6729  0.0990
16577TIP3    H271147   5.153   3.845   1.691  1.3885 -0.8791 -1.0722
16578TIP3   OH271148   1.892   2.822   4.321  0.4123  0.2033 -0.5518
16578TIP3    H171149   1.855   2.854   4.238 -0.7597  1.2908  0.3521
16578TIP3    H271150   1.864   2.887   4.386 -0.7929 -1.9060  1.1425
16579TIP3   OH271151   6.051   6.733  14.345 -0.3170  1.1067  0.5603
16579TIP3    H171152   5.960   6.715  14.321  0.1231  1.6505 -1.7203
16579TIP3    H271153   6.061   6.827  14.332  0.7088  0.9628  0.2108
16580TIP3   OH271154   0.660   4.442  16.623 -0.5223 -0.4996  0.3369
16580TIP3    H171155   0.726   4.372  16.625 -1.7824 -1.9381 -2.3652
16580TIP3    H271156   0.710   4.522  16.641  1.0057 -1.9843  3.3939
16581TIP3   OH271157   4.201   5.360   3.805 -0.2571  0.0787 -0.0482
16581TIP3    H171158   4.277   5.325   3.759 -0.1145  0.9883 -0.5102
16581TIP3    H271159   4.136   5.289   3.800  0.4199 -0.5678  0.0511
16582TIP3   OH271160   0.900   4.042  12.391  0.0426 -0.2279 -0.0472
16582TIP3    H171161   0.986   4.033  12.434 -0.9821 -0.1609  2.1621
16582TIP3    H271162   0.840   3.994  12.448 -1.2561 -1.1907 -2.1262
16583TIP3   OH271163   5.891   4.423  13.857 -0.0390 -0.6190 -0.7952
16583TIP3    H171164   5.860   4.490  13.918 -0.5517 -1.5705  0.0154
16583TIP3    H271165   5.965   4.464  13.812  2.7819 -1.0572  3.0127
16584TIP3   OH271166   5.215   1.929  15.797  0.3499  0.2135  0.0061
16584TIP3    H171167   5.229   1.854  15.854 -0.3133 -0.2624 -0.4419
16584TIP3    H271168   5.127   1.960  15.818  0.3642  0.4580 -0.2767
16585TIP3   OH271169   5.660   4.165   5.158  0.0535  0.2018  0.1090
16585TIP3    H171170   5.737   4.113   5.180 -0.3935 -0.7591 -0.5029
16585TIP3    H271171   5.692   4.255   5.152  1.3186 -0.3031 -1.1018
16586TIP3   OH271172   4.165   4.729   3.087 -0.3083  0.1271 -0.2264
16586TIP3    H171173   4.108   4.754   3.160 -0.1815  0.5731 -0.2728
16586TIP3    H271174   4.243   4.783   3.099 -0.8254  1.2241 -1.4318
16587TIP3   OH271175   1.668   1.325   5.167 -0.3668  0.0238 -0.6061
16587TIP3    H171176   1.694   1.410   5.204 -0.5498  0.3166 -1.1426
16587TIP3    H271177   1.744   1.269   5.181 -0.4549  0.1065  0.2696
16588TIP3   OH271178   2.957   1.599  13.681 -0.2178 -0.2309 -0.2127
16588TIP3    H171179   2.969   1.598  13.586 -1.6896 -0.5803 -0.4118
16588TIP3    H271180   2.916   1.684  13.699 -1.2695 -0.7550 -0.0793
16589TIP3   OH271181   3.917   3.518   1.889 -0.3477 -0.2504  0.5867
16589TIP3    H171182   3.930   3.609   1.862  0.5704 -0.4199  0.3901
16589TIP3    H271183   3.993   3.499   1.945 -1.5414 -0.3081  2.2310
16590TIP3   OH271184   5.704   6.159  11.671  0.1882 -0.1520  0.6013
16590TIP3    H171185   5.697   6.085  11.610 -0.0973  0.4694 -0.1423
16590TIP3    H271186   5.678   6.235  11.618 -1.0662  0.2786  1.7778
16591TIP3   OH271187   1.041   3.119   2.875  0.8863  0.6807  0.1348
16591TIP3    H171188   1.078   3.178   2.810  0.7732  0.2840 -0.2978
16591TIP3    H271189   1.077   3.033   2.852 -0.6851  0.1907 -0.6177
16592TIP3   OH271190   0.451   2.347  10.263  0.1410  0.6444 -0.1016
16592TIP3    H171191   0.505   2.357  10.341  1.7314  1.2522 -1.2133
16592TIP3    H271192   0.437   2.436  10.231  1.2822  0.3311 -1.6132
16593TIP3   OH271193   2.405   6.733  13.711 -0.3238  0.0986  0.3005
16593TIP3    H171194   2.441   6.655  13.754  1.3170  1.3028  1.2406
16593TIP3    H271195   2.365   6.700  13.631 -3.0130 -2.2012  2.3839
16594TIP3   OH271196   5.979   1.325   5.525 -0.2285 -0.7023 -0.6309
16594TIP3    H171197   6.058   1.379   5.520 -0.7662  0.1235 -0.4129
16594TIP3    H271198   6.006   1.248   5.575  0.7553 -1.0334 -1.6094
16595TIP3   OH271199   5.181   6.476   4.524  0.1364  0.3785 -0.1434
16595TIP3    H171200   5.175   6.525   4.442 -0.8855  0.0588 -0.2643
16595TIP3    H271201   5.107   6.416   4.522  0.8008 -0.4765  0.4716
16596TIP3   OH271202   4.484   3.281   5.508  0.1726 -0.0065 -0.3602
16596TIP3    H171203   4.465   3.210   5.446  0.1527 -0.9813  0.7352
16596TIP3    H271204   4.577   3.272   5.526  0.8468  2.0537 -2.3728
16597TIP3   OH271205   4.653   2.655  13.469 -0.1096  0.3064 -0.0500
16597TIP3    H171206   4.609   2.581  13.426 -0.7495  0.9583 -0.5400
16597TIP3    H271207   4.616   2.732  13.427  0.2133  0.9248  0.7814
16598TIP3   OH271208   5.934   3.156  11.881  0.0838 -0.3077 -0.3472
16598TIP3    H171209   5.977   3.075  11.854  0.6304  0.2452 -1.1681
16598TIP3    H271210   5.841   3.136  11.879  0.1668 -0.6395 -1.4890
16599TIP3   OH271211   2.265   4.701  15.272  0.2535 -0.0143 -0.6526
16599TIP3    H171212   2.214   4.709  15.352 -0.2707 -0.9584 -0.8673
16599TIP3    H271213   2.356   4.693  15.301 -0.0949 -2.4389  0.0148
16600TIP3   OH271214   0.310   5.069   0.739  0.4476  0.4888  0.0659
16600TIP3    H171215   0.283   5.127   0.810  0.1980  1.2952 -0.6765
16600TIP3    H271216   0.404   5.083   0.729  0.3315  0.9897 -0.3163
16601TIP3   OH271217   0.876   1.545   2.643  0.0384 -0.3566  0.0962
16601TIP3    H171218   0.870   1.558   2.549 -0.9491 -0.2948  0.1628
16601TIP3    H271219   0.965   1.575   2.665  0.4546 -0.8452 -0.8737
16602TIP3   OH271220   5.396   1.550  13.717 -0.4182  0.7067 -0.7194
16602TIP3    H171221   5.477   1.564  13.765 -0.3501 -0.9557 -0.2807
16602TIP3    H271222   5.331   1.602  13.763 -0.0323  0.3370  0.2701
16603TIP3   OH271223   0.769   3.937   5.453 -0.9412  0.6834  0.1766
16603TIP3    H171224   0.856   3.942   5.414 -1.0840  2.1841 -0.0235
16603TIP3    H271225   0.736   4.027   5.448 -1.7707  0.5133  1.9088
16604TIP3   OH271226   4.362   5.540   5.446 -0.3078 -0.2395  0.3698
16604TIP3    H171227   4.408   5.457   5.435  4.0792  2.1882 -3.2455
16604TIP3    H271228   4.413   5.588   5.510  1.5702  1.9059 -2.4804
16605TIP3   OH271229   1.130   0.102   1.039 -0.5784 -0.4952 -0.7795
16605TIP3    H171230   1.184   0.181   1.038 -1.7082  0.3467  0.6595
16605TIP3    H271231   1.117   0.080   0.947  0.7581  0.2873 -1.1759
16606TIP3   OH271232   5.672   0.494   0.720 -0.3323  0.4803 -0.6206
16606TIP3    H171233   5.630   0.451   0.795 -0.2765  0.2975 -0.6928
16606TIP3    H271234   5.632   0.451   0.644 -1.6009  1.7918 -0.7318
16607TIP3   OH271235   1.463   0.611   4.868  0.2008 -0.3560 -0.4527
16607TIP3    H171236   1.460   0.591   4.962 -1.0485  4.9544  0.9195
16607TIP3    H271237   1.378   0.584   4.835 -0.3559  0.0992  0.5723
16608TIP3   OH271238   1.690   2.577   0.717  0.3275 -0.6517  0.1602
16608TIP3    H171239   1.706   2.655   0.665  0.2588 -0.0919  0.9569
16608TIP3    H271240   1.718   2.505   0.661  1.7925  0.0362 -0.0448
16609TIP3   OH271241   2.743   0.992   4.405  0.3918  0.6249 -0.0588
16609TIP3    H171242   2.696   0.952   4.332 -1.6047 -0.4262  1.6828
16609TIP3    H271243   2.674   1.022   4.464  1.8505 -0.5819  2.4402
16610TIP3   OH271244   3.881   2.416   1.311 -0.0999  0.2528 -0.0150
16610TIP3    H171245   3.972   2.422   1.338 -0.1303 -0.6116  0.3108
16610TIP3    H271246   3.879   2.344   1.248 -0.4603  0.6575 -0.4841
16611TIP3   OH271247   1.519   5.667  16.987 -0.4470 -0.5680 -0.0354
16611TIP3    H171248   1.572   5.703  16.916 -0.7397  0.0281  0.0436
16611TIP3    H271249   1.522   5.733  17.056  0.7273 -1.5917  0.9625
16612TIP3   OH271250   2.156   0.632   2.914 -0.0607  0.1459 -0.1162
16612TIP3    H171251   2.177   0.669   2.829 -0.6208  1.1593  0.1803
16612TIP3    H271252   2.075   0.584   2.901 -1.7245  2.6325  0.4183
16613TIP3   OH271253   4.130   1.970   6.004  0.3596 -0.2852  0.0492
16613TIP3    H171254   4.054   2.005   5.958  0.6670 -1.0976 -1.1003
16613TIP3    H271255   4.199   2.035   5.990  0.1731 -0.0382  0.2515
16614TIP3   OH271256   6.099   4.814  14.226 -0.0781  0.1125  0.1284
16614TIP3    H171257   6.100   4.840  14.318 -0.8496 -0.4910  0.3143
16614TIP3    H271258   6.120   4.895  14.178  0.1863  0.4621  0.8171
16615TIP3   OH271259   6.444   3.528   1.256 -0.5551  0.0074  0.1445
16615TIP3    H171260   6.501   3.454   1.275 -0.5109  0.0624  0.2213
16615TIP3    H271261   6.372   3.489   1.205  0.4822  0.2451 -1.5597
16616TIP3   OH271262   0.858   1.172  14.710 -0.0611 -0.2813 -0.0088
16616TIP3    H171263   0.900   1.258  14.710  1.7133 -1.0603 -1.3878
16616TIP3    H271264   0.899   1.126  14.784  0.4665 -0.5572 -0.4616
16617TIP3   OH271265   2.775   1.116   3.324  0.4314 -0.0428 -0.6286
16617TIP3    H171266   2.712   1.165   3.272 -1.3334 -0.5256  0.9213
16617TIP3    H271267   2.775   1.160   3.409  1.5152 -0.5968 -0.3231
16618TIP3   OH271268   6.314   3.162  12.475  0.0849  0.5882  0.4258
16618TIP3    H171269   6.335   3.073  12.447 -0.0071  0.4026  0.9403
16618TIP3    H271270   6.343   3.218  12.402  1.3209  0.2500  0.6430
16619TIP3   OH271271   1.381   1.778   2.467 -0.3417  0.2080 -0.1439
16619TIP3    H171272   1.337   1.759   2.384  0.3627 -3.3245  0.1302
16619TIP3    H271273   1.321   1.838   2.513 -0.7911  2.2121 -3.0505
16620TIP3   OH271274   2.399   3.613  13.985 -0.2939 -0.4712 -0.0271
16620TIP3    H171275   2.344   3.546  13.944  0.6034 -1.6593  0.6362
16620TIP3    H271276   2.337   3.669  14.032 -1.1564 -0.2121 -1.4074
16621TIP3   OH271277   6.021   2.625  13.575  0.1928 -0.2831  0.7028
16621TIP3    H171278   6.020   2.533  13.547 -0.4273  0.2475 -1.1605
16621TIP3    H271279   6.014   2.621  13.670 -0.9837 -2.1442  0.5887
16622TIP3   OH271280   4.916   1.591  14.620 -0.6080 -0.1676 -0.2943
16622TIP3    H171281   4.834   1.542  14.630 -0.7009  0.0942  0.3037
16622TIP3    H271282   4.957   1.587  14.707  0.0775 -0.3986 -0.6245
16623TIP3   OH271283   0.062   2.469  14.158  0.4840 -0.4534  0.1400
16623TIP3    H171284   0.117   2.396  14.187  3.5893  1.4765 -0.3062
16623TIP3    H271285   0.097   2.545  14.206  0.7559  1.5469 -2.9170
16624TIP3   OH271286   6.519   1.204   3.507  0.5688  0.2461 -0.3904
16624TIP3    H171287   6.540   1.119   3.468  2.1278  0.5076 -0.1682
16624TIP3    H271288   6.588   1.262   3.477  0.1328  1.1761  0.3612
16625TIP3   OH271289   2.663   3.081  14.064 -0.1354  0.2774 -0.4859
16625TIP3    H171290   2.582   3.121  14.095 -0.4665 -0.8444  0.1570
16625TIP3    H271291   2.701   3.146  14.005 -0.7427  1.4462  0.3620
16626TIP3   OH271292   3.935   5.848  12.567 -0.4593 -0.0530  0.3101
16626TIP3    H171293   3.926   5.932  12.523  0.3134 -0.7269 -1.2218
16626TIP3    H271294   4.023   5.818  12.545  0.0228 -0.3960  2.4500
16627TIP3   OH271295   6.556   1.160   1.705 -0.1037 -0.2132  0.0075
16627TIP3    H171296   6.525   1.220   1.636  0.6604 -0.9889 -1.0456
16627TIP3    H271297   6.638   1.199   1.734  0.0962 -0.4242 -0.2641
16628TIP3   OH271298   4.067   4.412  13.135  0.0585  0.2269 -0.1641
16628TIP3    H171299   4.116   4.352  13.078  1.2121  0.0498  0.9758
16628TIP3    H271300   4.001   4.356  13.177  0.7299 -0.1458  0.4250
16629TIP3   OH271301   6.703   3.296  15.746  0.4767 -0.0033 -0.5886
16629TIP3    H171302   6.678   3.350  15.671  0.0335  0.9019  0.1949
16629TIP3    H271303   6.738   3.358  15.810 -1.1868 -0.4324  0.8279
16630TIP3   OH271304   4.525   0.928   2.050 -0.5543 -0.4486  0.1360
16630TIP3    H171305   4.531   0.932   2.145  0.1805  2.3726  0.0593
16630TIP3    H271306   4.609   0.890   2.023 -0.7480 -1.2198  0.6055
16631TIP3   OH271307   3.026   3.129   4.540 -0.1384 -0.1011  0.6008
16631TIP3    H171308   2.977   3.203   4.575  0.5191  0.8629 -0.4462
16631TIP3    H271309   3.100   3.118   4.600  0.3073  0.7503  0.2295
16632TIP3   OH271310   6.505   6.016  12.082 -0.1318  0.3613  0.2962
16632TIP3    H171311   6.429   6.074  12.074 -2.0373 -1.9877  0.2688
16632TIP3    H271312   6.495   5.955  12.009  1.7967 -0.0663  0.3440
16633TIP3   OH271313   0.849   4.100   4.737  0.6854 -0.2362 -0.1717
16633TIP3    H171314   0.880   4.031   4.677  1.0182  0.1422 -0.4386
16633TIP3    H271315   0.853   4.060   4.824 -0.8803 -1.1947 -0.4871
16634TIP3   OH271316   4.803   1.203   1.560 -0.0960 -0.0389  0.5362
16634TIP3    H171317   4.861   1.139   1.601  0.2811 -0.7323 -1.0096
16634TIP3    H271318   4.857   1.245   1.493 -0.9115  0.4859  0.1953
16635TIP3   OH271319   3.141   6.513  12.780 -0.1841  0.1876  0.6479
16635TIP3    H171320   3.074   6.506  12.711 -0.3043  0.9018  0.6799
16635TIP3    H271321   3.222   6.487  12.737 -0.4166 -0.3143  0.5021
16636TIP3   OH271322   1.596   3.944  13.666 -0.5072  0.2455 -0.1020
16636TIP3    H171323   1.669   3.988  13.623 -0.4392  0.3725  0.1377
16636TIP3    H271324   1.519   3.970  13.616 -0.4963  0.8330  0.1755
16637TIP3   OH271325   2.471   4.351   3.108 -0.0778 -0.0606  0.1012
16637TIP3    H171326   2.426   4.429   3.075 -0.3195 -0.2275  0.0281
16637TIP3    H271327   2.560   4.357   3.074 -0.2068 -0.0136 -0.2255
16638TIP3   OH271328   2.918   4.590   4.501 -0.4517  0.4844  0.1072
16638TIP3    H171329   2.944   4.631   4.418  0.3340 -0.3613 -0.0878
16638TIP3    H271330   2.872   4.510   4.474 -2.9411  1.7132  0.4524
16639TIP3   OH271331   6.599   0.277   2.121 -0.1011  0.1275  0.4956
16639TIP3    H171332   6.653   0.209   2.162  1.8450  1.2721 -0.0401
16639TIP3    H271333   6.545   0.229   2.059  0.1235 -1.1049  1.2053
16640TIP3   OH271334   5.597   4.976   0.071  0.5913 -0.1460 -0.1367
16640TIP3    H171335   5.654   5.053   0.069  2.5185 -1.4505  1.1127
16640TIP3    H271336   5.647   4.910   0.119 -0.9486 -2.2310 -1.2216
16641TIP3   OH271337   4.142   2.486  12.261  0.1242 -0.0522  0.1498
16641TIP3    H171338   4.102   2.419  12.317 -0.7472 -1.4354 -1.9826
16641TIP3    H271339   4.225   2.448  12.234  0.4992  0.5641  0.4255
16642TIP3   OH271340   4.423   4.780  13.007 -0.0513 -0.3662  0.2711
16642TIP3    H171341   4.479   4.824  12.945 -3.3474  1.6852 -1.5363
16642TIP3    H271342   4.471   4.782  13.090  2.1845  1.7866 -0.9814
16643TIP3   OH271343   4.224   4.849  16.096  0.1836  0.1683 -0.2811
16643TIP3    H171344   4.169   4.835  16.172  2.8937 -0.0607  1.7899
16643TIP3    H271345   4.184   4.923  16.051 -1.4034  0.4515  1.4611
16644TIP3   OH271346   6.305   4.621  16.240 -0.4408  0.3777  0.0187
16644TIP3    H171347   6.246   4.601  16.313  0.3505  2.3376  1.2648
16644TIP3    H271348   6.387   4.578  16.264 -0.7955 -0.8269 -0.8357
16645TIP3   OH271349   1.001   4.348  13.514 -0.2266 -0.0752  0.2481
16645TIP3    H171350   0.984   4.295  13.437 -0.1829  0.0731  0.1357
16645TIP3    H271351   1.059   4.418  13.483  0.6560 -0.6217  0.6463
16646TIP3   OH271352   2.345   5.175  15.112  0.2517 -0.4381 -0.1626
16646TIP3    H171353   2.304   5.177  15.026 -0.4918 -0.7110  0.1746
16646TIP3    H271354   2.420   5.116  15.102 -0.2631 -1.0553 -0.4405
16647TIP3   OH271355   0.797   6.742   4.401  0.5964  0.7160 -0.7454
16647TIP3    H171356   0.867   6.737   4.336  2.0122 -1.7458  0.8475
16647TIP3    H271357   0.776   6.651   4.421 -1.9217  1.4079  0.0849
16648TIP3   OH271358   1.376   5.405   2.081  0.2055 -0.2600  0.3967
16648TIP3    H171359   1.368   5.471   2.013 -0.4006 -0.9482 -0.2208
16648TIP3    H271360   1.376   5.454   2.163 -0.5910  0.4814 -0.0306
16649TIP3   OH271361   3.302   6.255   3.013  0.1429 -0.1611 -0.0653
16649TIP3    H171362   3.272   6.189   2.951 -1.2635  1.7684 -1.5586
16649TIP3    H271363   3.234   6.323   3.011  1.6347  1.4678  1.1827
16650TIP3   OH271364   0.158   1.253   4.789  0.6089 -0.0235 -0.2854
16650TIP3    H171365   0.101   1.193   4.836 -2.4356  2.1770 -0.8828
16650TIP3    H271366   0.122   1.258   4.701  2.8708  0.1143 -1.2683
16651TIP3   OH271367   0.242   4.614  12.484 -0.0484 -0.3488 -0.4970
16651TIP3    H171368   0.203   4.554  12.547  4.4147 -2.5145  0.6373
16651TIP3    H271369   0.268   4.558  12.410  0.2781  1.0274 -1.4769
16652TIP3   OH271370   5.347   2.839  17.111  1.1183 -0.5965 -0.0445
16652TIP3    H171371   5.294   2.760  17.124  0.4416 -0.0487  0.5691
16652TIP3    H271372   5.425   2.808  17.065  0.8980 -1.6377  0.2614
16653TIP3   OH271373   2.411   6.675   0.459 -0.2676 -0.0831 -0.0468
16653TIP3    H171374   2.362   6.631   0.528 -0.9456 -0.1395 -0.5592
16653TIP3    H271375   2.488   6.619   0.445 -0.0531 -0.0014  0.7417
16654TIP3   OH271376   2.771   5.114  12.422  0.1628  0.2750  0.4497
16654TIP3    H171377   2.794   5.207  12.431  0.9114  0.4990 -2.6440
16654TIP3    H271378   2.773   5.098  12.328  0.4869 -3.0227  0.9099
16655TIP3   OH271379   2.321   2.393   0.019 -0.0983 -0.1413  0.2577
16655TIP3    H171380   2.344   2.472  -0.030 -1.6199  0.3629  0.3039
16655TIP3    H271381   2.228   2.404   0.041 -0.6143 -2.3361 -0.5279
16656TIP3   OH271382   4.986   4.938  17.207 -0.3780  0.0039  0.1703
16656TIP3    H171383   4.928   5.014  17.202  0.8442  0.9619  0.3531
16656TIP3    H271384   5.056   4.957  17.145 -0.3686 -1.2641 -0.2384
16657TIP3   OH271385   1.495   5.608   3.618 -0.5266  0.0174  0.3871
16657TIP3    H171386   1.576   5.660   3.618 -1.1293  1.0261 -1.4774
16657TIP3    H271387   1.525   5.518   3.605  0.2798  0.4552 -0.8970
16658TIP3   OH271388   4.421   2.854   4.610  0.2848 -0.2610  0.0231
16658TIP3    H171389   4.457   2.816   4.530  2.5044 -1.5037  1.4952
16658TIP3    H271390   4.394   2.778   4.663  0.0627  0.4546  0.9732
16659TIP3   OH271391   1.846   6.200   1.167 -0.4547 -0.3767 -0.6819
16659TIP3    H171392   1.782   6.168   1.103  0.1330 -0.9910 -0.9835
16659TIP3    H271393   1.913   6.243   1.113 -1.5310  1.9955 -0.2525
16660TIP3   OH271394   2.305   0.205  13.747  0.7485  0.0584  0.4593
16660TIP3    H171395   2.343   0.117  13.743  1.2204  0.2157  1.2464
16660TIP3    H271396   2.216   0.192  13.779  0.1116 -0.3094 -1.3412
16661TIP3   OH271397   4.119   1.314   3.154  0.0837 -0.0475  0.0346
16661TIP3    H171398   4.213   1.311   3.169 -0.0863 -1.1410  1.0809
16661TIP3    H271399   4.101   1.242   3.093 -0.1197 -0.1691  0.2315
16662TIP3   OH271400   2.242   2.557  16.731  0.3182  0.1520  0.1503
16662TIP3    H171401   2.237   2.647  16.764 -1.8711 -0.0465  0.5323
16662TIP3    H271402   2.152   2.536  16.704  0.7167 -2.0127  0.2951
16663TIP3   OH271403   0.456   5.931  13.165  0.3448 -0.0000  0.1543
16663TIP3    H171404   0.513   5.952  13.091 -1.8347  1.7133 -1.1772
16663TIP3    H271405   0.448   6.013  13.214 -0.0338 -0.5207  0.9926
16664TIP3   OH271406   2.518   0.865  16.891  0.1040  0.2653  0.2962
16664TIP3    H171407   2.613   0.858  16.886  0.0737  0.5828 -1.5523
16664TIP3    H271408   2.502   0.945  16.941  0.7668 -0.4123  1.6300
16665TIP3   OH271409   5.403   1.134   1.529  0.2339 -0.3942  0.5143
16665TIP3    H171410   5.321   1.092   1.504  0.6630 -0.6464 -0.5199
16665TIP3    H271411   5.383   1.227   1.533 -0.1190 -0.4648  0.3420
16666TIP3   OH271412   1.311   4.706   5.081  0.0452 -0.2271 -0.1935
16666TIP3    H171413   1.277   4.626   5.122  1.0299 -0.6740 -0.2202
16666TIP3    H271414   1.248   4.725   5.011  0.1828 -1.3942 -0.6615
16667TIP3   OH271415   5.512   0.039   1.940  0.1455  0.2920  0.0545
16667TIP3    H171416   5.543  -0.029   2.000 -0.9511  0.6069  1.0290
16667TIP3    H271417   5.591   0.087   1.915  0.6925 -0.1677  0.8479
16668TIP3   OH271418   5.568   0.041  11.226  0.4964 -0.1572 -0.5662
16668TIP3    H171419   5.623   0.062  11.151  1.6369  2.0412  0.7766
16668TIP3    H271420   5.500   0.108  11.226 -0.9096 -1.5320 -0.9274
16669TIP3   OH271421   2.811   0.853  14.824 -0.5223 -0.5622  0.2792
16669TIP3    H171422   2.862   0.872  14.745  1.3724 -1.3555  1.2459
16669TIP3    H271423   2.838   0.765  14.849  0.1500  0.2627  2.6768
16670TIP3   OH271424   5.126   1.360   3.839 -0.3627 -0.2142  0.9754
16670TIP3    H171425   5.104   1.279   3.886 -2.2861  1.1191  2.5906
16670TIP3    H271426   5.047   1.414   3.848  0.2315  1.2267 -1.4990
16671TIP3   OH271427   1.090   0.426   2.489  0.1527  0.5500 -0.2389
16671TIP3    H171428   1.110   0.471   2.407 -1.1570  0.3026 -0.7171
16671TIP3    H271429   0.999   0.448   2.507  0.1969 -0.0154  0.7526
16672TIP3   OH271430   6.505   1.837  16.912 -0.1015 -0.2882 -0.0138
16672TIP3    H171431   6.591   1.856  16.950  0.2461 -1.6362 -0.0581
16672TIP3    H271432   6.448   1.823  16.987 -0.1802  0.1910  0.0152
16673TIP3   OH271433   1.103   0.965   2.203  0.0808 -0.0819 -0.4090
16673TIP3    H171434   1.046   0.999   2.272 -1.8462 -2.3020 -0.7586
16673TIP3    H271435   1.148   1.042   2.168  0.8407  1.2172  2.9621
16674TIP3   OH271436   5.344   2.074  16.092  0.7497 -0.0031  0.2432
16674TIP3    H171437   5.342   2.102  16.183  0.1967 -0.0821  0.2598
16674TIP3    H271438   5.360   1.980  16.096  1.1106  0.0558  0.2430
16675TIP3   OH271439   2.985   4.464   1.388  0.4578  0.3327 -0.3803
16675TIP3    H171440   2.895   4.496   1.395 -0.9536 -3.0444 -1.1098
16675TIP3    H271441   3.013   4.492   1.301  0.5071  2.1106  0.1584
16676TIP3   OH271442   4.579   1.572  15.820  0.1665  0.0142  0.6831
16676TIP3    H171443   4.632   1.540  15.747  0.1112 -0.8966  1.0245
16676TIP3    H271444   4.490   1.543  15.800  0.2287 -0.6749  1.3354
16677TIP3   OH271445   4.745   5.980   3.795 -0.6069  0.2291 -0.0384
16677TIP3    H171446   4.816   5.963   3.733 -0.6800 -0.6901  0.1098
16677TIP3    H271447   4.790   6.014   3.873 -0.4562  0.8219 -0.3828
16678TIP3   OH271448   5.021   0.658   5.569 -1.0444  0.1022  0.9592
16678TIP3    H171449   5.060   0.664   5.482 -0.9104  0.9812  1.0703
16678TIP3    H271450   5.070   0.588   5.612  0.0840  0.8257  0.9145
16679TIP3   OH271451   6.365   4.788  11.700  0.3657 -0.1005 -0.7005
16679TIP3    H171452   6.331   4.732  11.630 -0.4600 -1.3813  0.6629
16679TIP3    H271453   6.298   4.784  11.768  1.6411  0.1963  0.6192
16680TIP3   OH271454   4.372   0.970   5.152  0.4549 -0.1864  0.0818
16680TIP3    H171455   4.441   1.017   5.199 -0.5912  1.3623  0.1230
16680TIP3    H271456   4.309   0.945   5.219  0.9755 -1.6709  0.0540
16681TIP3   OH271457   6.747   5.884   2.872  0.7589  0.2223 -0.0386
16681TIP3    H171458   6.753   5.962   2.927  0.1281 -0.3779  0.9192
16681TIP3    H271459   6.681   5.907   2.806  0.2197  0.3476  0.5281
16682TIP3   OH271460   5.692   3.517   2.201  0.0595  0.2087 -0.0248
16682TIP3    H171461   5.689   3.457   2.275  2.2146  0.8206  0.6272
16682TIP3    H271462   5.720   3.463   2.127  0.5502  0.1013  0.2340
16683TIP3   OH271463   2.325   1.392  12.167 -0.4171  0.0851 -0.8484
16683TIP3    H171464   2.315   1.487  12.175 -0.1380  0.0436  0.0496
16683TIP3    H271465   2.369   1.365  12.247  0.1938 -0.7089 -1.4266
16684TIP3   OH271466   0.182   5.946   3.772  0.2348  0.0325 -0.2241
16684TIP3    H171467   0.103   5.907   3.809 -0.4983  0.9897 -0.7213
16684TIP3    H271468   0.250   5.880   3.783 -0.3960 -0.4034  1.1448
16685TIP3   OH271469   6.137   2.295   3.251  0.1620 -0.1886 -0.0316
16685TIP3    H171470   6.199   2.281   3.322  0.3843 -0.0068 -0.1893
16685TIP3    H271471   6.138   2.213   3.201  0.0520 -0.2933  0.1373
16686TIP3   OH271472   2.796   1.561  11.238 -0.2181 -0.4017 -0.1676
16686TIP3    H171473   2.791   1.483  11.183 -1.4921 -0.7664  0.4279
16686TIP3    H271474   2.772   1.530  11.326 -1.2112  0.7331 -0.0172
16687TIP3   OH271475   6.011   3.491  16.961 -0.5427 -0.1360  0.5461
16687TIP3    H171476   6.033   3.514  17.052 -1.5892 -0.5222  0.9046
16687TIP3    H271477   6.041   3.401  16.951  0.0741  0.0824  0.3187
16688TIP3   OH271478   6.227   1.818   2.436  0.5277  0.6777 -0.7818
16688TIP3    H171479   6.311   1.773   2.442 -0.1898 -0.5855  0.4910
16688TIP3    H271480   6.221   1.870   2.517 -0.5626 -0.5223 -0.0344
16689TIP3   OH271481   5.279   3.230  14.034 -0.0965  0.0552  0.0732
16689TIP3    H171482   5.298   3.237  14.128  0.2430 -1.4083  0.1433
16689TIP3    H271483   5.270   3.136  14.019 -2.3467  0.3686 -0.9487
16690TIP3   OH271484   2.173   0.865  11.087  0.2241  0.2654 -0.0379
16690TIP3    H171485   2.267   0.872  11.074  0.3920 -1.6586 -0.2782
16690TIP3    H271486   2.156   0.770  11.088 -1.5080  0.5178  1.4283
16691TIP3   OH271487   5.074   3.927   2.483  0.0453  0.0642  0.4564
16691TIP3    H171488   5.014   3.862   2.448 -0.7270  0.5981  0.7609
16691TIP3    H271489   5.133   3.947   2.411 -0.7674  0.2584 -0.1660
16692TIP3   OH271490   4.142   0.895  12.038 -0.0875  0.3832 -0.5904
16692TIP3    H171491   4.206   0.943  12.091 -0.7087  3.1339 -2.1485
16692TIP3    H271492   4.063   0.895  12.092 -0.3254  1.9566 -0.8806
16693TIP3   OH271493   6.634   5.902   6.127  0.3451  0.0812 -0.1415
16693TIP3    H171494   6.651   5.996   6.113 -0.8984  0.4732  0.7856
16693TIP3    H271495   6.540   5.897   6.143  0.5217 -1.2322  0.5989
16694TIP3   OH271496   0.854   1.731  16.745  0.4784 -0.0668 -0.3273
16694TIP3    H171497   0.896   1.676  16.811 -1.3404 -0.0959  0.8878
16694TIP3    H271498   0.900   1.711  16.664  2.1410 -0.7694  0.7345
16695TIP3   OH271499   2.505   3.357   3.430 -0.3869 -0.2122  0.3039
16695TIP3    H171500   2.509   3.429   3.368  0.1521 -0.3178  0.2147
16695TIP3    H271501   2.415   3.324   3.423 -0.8750  0.9296  0.9021
16696TIP3   OH271502   1.001   2.613   1.613  0.6067  0.5257 -0.2204
16696TIP3    H171503   0.990   2.520   1.595 -1.9599  0.5878  0.6769
16696TIP3    H271504   0.923   2.638   1.662  2.5781  2.5376  2.1671
16697TIP3   OH271505   4.205   3.069  16.332 -0.2477  0.1781 -0.7826
16697TIP3    H171506   4.248   2.994  16.292 -0.1699 -0.1169 -0.1521
16697TIP3    H271507   4.149   3.031  16.400  1.3089  0.7924  0.9333
16698TIP3   OH271508   2.837   4.862  13.031  0.2911 -0.0394  0.2891
16698TIP3    H171509   2.860   4.885  12.941 -1.0080 -1.5074 -0.4780
16698TIP3    H271510   2.919   4.835  13.071  0.8036  0.1502 -0.6139
16699TIP3   OH271511   1.917   0.022  14.011  0.4270  0.2605  0.3197
16699TIP3    H171512   1.973  -0.005  14.083  0.3211 -1.3925 -0.1829
16699TIP3    H271513   1.975   0.023  13.934  0.6411  2.4271  0.4533
16700TIP3   OH271514   0.931   5.251   4.021  0.3574 -0.4882  0.0104
16700TIP3    H171515   0.956   5.259   3.929  0.4613  0.5614  0.1152
16700TIP3    H271516   1.002   5.294   4.069  0.2848 -0.9864  0.5843
16701TIP3   OH271517   4.832   3.472   4.789 -0.4468 -0.1593 -0.0032
16701TIP3    H171518   4.784   3.553   4.805 -1.1491 -0.6148  0.2462
16701TIP3    H271519   4.803   3.412   4.858  1.2660 -0.1309  0.7978
16702TIP3   OH271520   6.656   0.719  17.146 -0.4523 -0.1365 -0.2019
16702TIP3    H171521   6.652   0.684  17.236 -1.2566  0.1642 -0.1190
16702TIP3    H271522   6.648   0.814  17.157  0.0840 -0.0474 -0.5526
16703TIP3   OH271523   3.724   1.206  14.499  0.1899 -0.7242  0.3481
16703TIP3    H171524   3.745   1.124  14.455 -0.6807 -0.1014 -1.3246
16703TIP3    H271525   3.632   1.221  14.479 -0.0522 -0.0433  1.8498
16704TIP3   OH271526   3.919   4.989   5.731 -0.0547  0.0846  0.4679
16704TIP3    H171527   3.880   4.906   5.761 -0.3148  0.0860  0.1415
16704TIP3    H271528   3.963   4.966   5.649 -0.6977  0.4005  0.0235
16705TIP3   OH271529   1.004   6.348  14.365 -0.0167  0.3142  0.0478
16705TIP3    H171530   0.977   6.411  14.432 -0.2100  2.1925 -1.7079
16705TIP3    H271531   0.924   6.303  14.340 -0.1087  0.2861  0.3834
16706TIP3   OH271532   1.287   5.509   2.981  0.2306 -0.4212  0.1433
16706TIP3    H171533   1.292   5.491   3.075  1.8731 -0.3821  0.1002
16706TIP3    H271534   1.370   5.474   2.946  0.8579  1.8866 -0.8649
16707TIP3   OH271535   1.664   5.331  16.480  0.4510 -0.0693 -0.1279
16707TIP3    H171536   1.640   5.271  16.409 -0.6111 -0.2688  0.3744
16707TIP3    H271537   1.618   5.296  16.556  0.8062  0.6969  0.4398
16708TIP3   OH271538   6.417   4.174  16.346 -0.1012  0.4891 -0.1793
16708TIP3    H171539   6.343   4.116  16.362  0.3746 -0.3139 -0.8240
16708TIP3    H271540   6.490   4.133  16.391  0.9924 -1.2065 -3.2382
16709TIP3   OH271541   1.006   3.947   6.029  0.0264 -0.5906 -0.1706
16709TIP3    H171542   1.100   3.949   6.047 -0.2410  0.7912  1.3616
16709TIP3    H271543   0.965   3.978   6.111 -1.8275 -2.1634 -0.4282
16710TIP3   OH271544   3.053   3.393   3.407 -0.1401 -0.6435  0.0796
16710TIP3    H171545   2.962   3.370   3.423 -0.5583 -0.3756 -1.6976
16710TIP3    H271546   3.104   3.333   3.461 -1.3742  0.0135  2.0494
16711TIP3   OH271547   3.742   4.310  14.749 -0.1790 -0.8342  0.2652
16711TIP3    H171548   3.651   4.289  14.773 -0.3035  0.2590  0.8333
16711TIP3    H271549   3.746   4.406  14.754  1.3884 -0.9285  1.6559
16712TIP3   OH271550   2.496   5.691  13.712  0.7075  0.4302  0.2233
16712TIP3    H171551   2.422   5.633  13.728  0.3428  1.0681  0.9512
16712TIP3    H271552   2.556   5.640  13.657 -0.2792 -0.0880 -0.4067
16713TIP3   OH271553   3.952   4.944   2.498 -0.3159 -0.5368  0.0234
16713TIP3    H171554   3.991   4.958   2.584 -1.8742  2.1564  0.4101
16713TIP3    H271555   4.012   4.988   2.437 -0.6588  0.0420  0.1014
16714TIP3   OH271556   0.312   0.264   3.152 -0.4532 -0.8980  0.5570
16714TIP3    H171557   0.241   0.327   3.140  1.3523  1.1213 -0.0531
16714TIP3    H271558   0.375   0.285   3.083  1.3684 -1.7541  1.8840
16715TIP3   OH271559   3.347   2.586   5.902  0.5898 -0.4665  0.7712
16715TIP3    H171560   3.437   2.555   5.905  0.3259 -1.3656 -0.2716
16715TIP3    H271561   3.304   2.545   5.977  0.8303 -0.7436  0.7564
16716TIP3   OH271562   2.278   3.363   3.712 -0.1473 -0.0543 -0.4237
16716TIP3    H171563   2.277   3.321   3.626  2.0916 -1.5068  0.1895
16716TIP3    H271564   2.239   3.298   3.771 -2.9192  1.4393 -0.4527
16717TIP3   OH271565   3.000   1.005   0.491  0.4190  0.0896  0.0390
16717TIP3    H171566   3.009   1.093   0.453 -0.2478  0.0565 -0.2263
16717TIP3    H271567   3.036   1.012   0.579  4.0594 -0.3539 -1.2292
16718TIP3   OH271568   2.223   3.349  11.609  0.3629 -0.2015  0.2240
16718TIP3    H171569   2.250   3.419  11.668 -0.9130  0.9633 -0.5138
16718TIP3    H271570   2.148   3.309  11.653  0.7163 -0.7221  0.3617
16719TIP3   OH271571   4.279   4.314   1.667  0.0408  0.1662 -0.4433
16719TIP3    H171572   4.211   4.357   1.616 -2.0713 -0.0405  1.9937
16719TIP3    H271573   4.286   4.366   1.747  1.5710 -0.7906  0.0923
16720TIP3   OH271574   1.779   0.506   0.209 -0.5745  0.4829  0.1361
16720TIP3    H171575   1.819   0.528   0.125 -1.3447  1.6979  0.0564
16720TIP3    H271576   1.852   0.489   0.267 -0.0305 -1.2616 -0.9737
16721TIP3   OH271577   6.406   6.233  15.241 -0.3706  0.1118  0.1851
16721TIP3    H171578   6.322   6.213  15.281  1.1034 -3.2858  2.0416
16721TIP3    H271579   6.419   6.164  15.175  1.1858  0.2106  0.3440
16722TIP3   OH271580   0.300   1.169  16.871 -0.1944 -0.1494  0.5354
16722TIP3    H171581   0.323   1.259  16.895 -0.0985 -0.4465  1.6101
16722TIP3    H271582   0.349   1.115  16.932  0.4180 -0.9789 -0.6522
16723TIP3   OH271583   3.856   5.968   2.302  0.3623  0.2212  0.1486
16723TIP3    H171584   3.765   5.981   2.275  0.1758  0.1135  0.7128
16723TIP3    H271585   3.896   6.054   2.294 -0.8748  1.3526  3.9127
16724TIP3   OH271586   5.078   1.650  13.182  0.5217 -0.6741 -0.0519
16724TIP3    H171587   5.006   1.661  13.120  1.8573  0.0391 -1.5645
16724TIP3    H271588   5.037   1.619  13.262 -1.3795 -0.8589 -1.0496
16725TIP3   OH271589   5.506   3.380  14.862 -0.2681 -0.5134  0.3514
16725TIP3    H171590   5.535   3.460  14.818  1.1206  0.5049  2.9378
16725TIP3    H271591   5.424   3.405  14.906  0.0619 -0.5561  0.9980
16726TIP3   OH271592   3.221   3.068   2.284  0.6294  0.0789  0.4313
16726TIP3    H171593   3.264   3.007   2.225 -1.4501  1.2452 -2.5484
16726TIP3    H271594   3.275   3.147   2.279 -0.7429  0.9936 -2.0272
16727TIP3   OH271595   2.151   0.964  16.896  0.1467 -0.2220  0.7568
16727TIP3    H171596   2.184   0.927  16.978 -0.6626  3.0635  2.7737
16727TIP3    H271597   2.071   0.914  16.877  0.4199 -1.1212  1.8748
16728TIP3   OH271598   5.453   2.984   4.031  0.2389  0.5479 -0.0363
16728TIP3    H171599   5.403   3.022   4.103  0.9850  0.5061  0.5196
16728TIP3    H271600   5.389   2.933   3.982 -0.5114  1.4910 -0.0673
16729TIP3   OH271601   1.205   2.192   4.685 -0.1524 -0.0339  0.4528
16729TIP3    H171602   1.207   2.224   4.594  1.4250  3.9192  1.6351
16729TIP3    H271603   1.112   2.186   4.706 -0.5493 -1.0943 -1.4032
16730TIP3   OH271604   0.767   2.993  10.803  0.0110 -0.3772 -0.6469
16730TIP3    H171605   0.759   3.069  10.745 -1.5168 -0.4477 -0.5678
16730TIP3    H271606   0.857   2.998  10.836 -0.8598  3.2369  1.8140
16731TIP3   OH271607   6.645   4.581   4.647  0.0669 -0.0912  0.0739
16731TIP3    H171608   6.658   4.621   4.732 -0.4802 -1.0779  0.6441
16731TIP3    H271609   6.579   4.513   4.662  0.3310 -0.6200 -1.0219
16732TIP3   OH271610   3.494   2.376  11.306 -0.1984  0.4726  0.3175
16732TIP3    H171611   3.450   2.328  11.237 -0.9575  0.0811  1.0603
16732TIP3    H271612   3.585   2.345  11.302 -0.6262 -0.8992  0.6600
16733TIP3   OH271613   5.328   6.259  14.233  0.0222 -0.5472 -0.4678
16733TIP3    H171614   5.331   6.279  14.326  2.1822 -0.2300 -0.5434
16733TIP3    H271615   5.361   6.338  14.190  1.0322 -1.3980 -1.3340
16734TIP3   OH271616   2.597   4.673   2.000  0.5214 -0.1822 -0.1639
16734TIP3    H171617   2.570   4.707   1.914  2.1044  3.8649  0.7189
16734TIP3    H271618   2.680   4.628   1.983  1.8407  2.2488 -0.6586
16735TIP3   OH271619   6.685   5.819   3.228 -0.3144  0.1782  0.8715
16735TIP3    H171620   6.680   5.914   3.240 -1.3276  0.2631 -0.0133
16735TIP3    H271621   6.608   5.798   3.174 -0.3378 -1.2024  1.4039
16736TIP3   OH271622   0.080   4.974  11.665 -0.2754  0.8184  0.1411
16736TIP3    H171623  -0.011   4.943  11.664 -0.1352  0.2424 -2.6384
16736TIP3    H271624   0.075   5.062  11.627  0.3671  0.6176 -0.4243
16737TIP3   OH271625   4.832   4.783   3.394  0.0758  0.2303 -0.3005
16737TIP3    H171626   4.833   4.689   3.375  0.6427  0.5505 -1.9814
16737TIP3    H271627   4.845   4.788   3.489  1.7129 -1.3431 -0.3953
16738TIP3   OH271628   6.073   4.645  16.704 -0.3492  0.1632  0.5062
16738TIP3    H171629   6.104   4.641  16.614  0.0538  2.5381  0.4666
16738TIP3    H271630   6.105   4.564  16.745 -2.3972 -2.0746 -1.9487
16739TIP3   OH271631   6.310   4.015  13.781 -0.0361 -0.0968  0.5257
16739TIP3    H171632   6.245   3.962  13.734  1.5035 -1.6101 -0.0306
16739TIP3    H271633   6.307   3.983  13.871 -0.6102  0.4078  0.6916
16740TIP3   OH271634   2.771   0.550   6.575 -0.1387  0.1192  0.3830
16740TIP3    H171635   2.865   0.531   6.579 -0.0729  0.3879  0.1031
16740TIP3    H271636   2.730   0.471   6.612  0.2364  0.4509  1.5537
16741TIP3   OH271637   4.903   6.249  15.722  0.2744  0.2348  0.0108
16741TIP3    H171638   4.953   6.324  15.691  1.4084 -0.1478  0.8589
16741TIP3    H271639   4.899   6.190  15.647  0.2975  0.6673 -0.3338
16742TIP3   OH271640   1.206   0.648  16.835  0.1886  0.3838 -0.1837
16742TIP3    H171641   1.118   0.640  16.871 -0.0339  0.2303 -0.7463
16742TIP3    H271642   1.234   0.558  16.819  0.4574  0.4310  0.0206
16743TIP3   OH271643   1.868   1.662   2.988 -0.5062  0.7862  0.0807
16743TIP3    H171644   1.828   1.575   2.984 -2.3478  1.6130 -0.8496
16743TIP3    H271645   1.942   1.656   2.927  0.1180 -0.4230  0.8971
16744TIP3   OH271646   4.661   1.270   4.120 -0.8507  0.3352 -0.1274
16744TIP3    H171647   4.676   1.318   4.201  0.1732 -1.8126  1.0290
16744TIP3    H271648   4.567   1.251   4.121 -0.9302  0.7239  0.3208
16745TIP3   OH271649   2.447   3.417  16.700 -0.0654  0.0990  0.0124
16745TIP3    H171650   2.444   3.450  16.789 -0.1624  0.2581 -0.0497
16745TIP3    H271651   2.508   3.343  16.703 -1.2373 -0.8715  0.5221
16746TIP3   OH271652   4.432   0.366   0.729 -0.3942  0.6419  0.3950
16746TIP3    H171653   4.337   0.378   0.719 -0.8039 -1.9382  0.4925
16746TIP3    H271654   4.470   0.449   0.700 -2.6191  1.2955 -0.8995
16747TIP3   OH271655   1.522   4.329   4.210  0.0036  0.3796 -0.1710
16747TIP3    H171656   1.432   4.358   4.197  0.3377  0.5607 -2.4970
16747TIP3    H271657   1.515   4.252   4.267 -1.7310 -0.2504 -1.1655
16748TIP3   OH271658   6.391   3.245   3.384  0.1896 -0.2237 -0.3673
16748TIP3    H171659   6.396   3.161   3.337  1.4705  0.7062 -2.0129
16748TIP3    H271660   6.454   3.236   3.455 -0.7036 -1.1268  0.3493
16749TIP3   OH271661   3.306   2.248   5.353  0.4843 -0.0575  0.0473
16749TIP3    H171662   3.261   2.190   5.414 -0.1133  2.0907  1.7926
16749TIP3    H271663   3.257   2.240   5.271  0.2695 -1.7632  0.3135
16750TIP3   OH271664   0.114   1.423  14.219 -0.4265  0.0078  0.1882
16750TIP3    H171665   0.027   1.389  14.199 -0.9918  0.6773  1.3706
16750TIP3    H271666   0.117   1.509  14.175 -0.0905 -0.3080 -0.4196
16751TIP3   OH271667   4.839   6.528  16.469 -0.5878 -0.1874  0.2781
16751TIP3    H171668   4.827   6.522  16.564 -1.5019 -0.1401  0.1661
16751TIP3    H271669   4.867   6.618  16.454  1.3664 -0.6708  0.6770
16752TIP3   OH271670   0.002   0.864   5.309  0.2039 -0.1234  0.4971
16752TIP3    H171671  -0.053   0.788   5.291 -0.9550  0.8387 -0.1249
16752TIP3    H271672   0.082   0.848   5.260 -1.5146  0.7907 -2.9128
16753TIP3   OH271673   2.980   2.817  15.435 -0.9168 -0.3035  0.6152
16753TIP3    H171674   2.915   2.768  15.484 -0.9369  0.3407  1.2473
16753TIP3    H271675   3.060   2.812  15.487  0.0633 -2.5011 -0.9599
16754TIP3   OH271676   2.868   1.757  13.093  0.3484 -0.0716  0.2783
16754TIP3    H171677   2.848   1.719  13.008 -0.6055  0.8939  0.0459
16754TIP3    H271678   2.917   1.837  13.073  1.0730 -0.4022  0.6921
16755TIP3   OH271679   3.986   1.662   5.977  0.1140  0.5101  0.1049
16755TIP3    H171680   4.050   1.731   5.992  0.5763  0.2008 -0.4126
16755TIP3    H271681   4.015   1.589   6.031  0.7959  0.0080 -0.9108
16756TIP3   OH271682   4.524   6.180   4.079 -0.1422 -0.3932  0.0049
16756TIP3    H171683   4.563   6.216   4.159 -2.1621 -0.8390  1.2742
16756TIP3    H271684   4.550   6.088   4.078 -1.0259 -0.6650  0.7914
16757TIP3   OH271685   1.627   2.130   5.402  0.6082 -0.1344 -0.7303
16757TIP3    H171686   1.557   2.067   5.418  0.1138  0.9134  1.5577
16757TIP3    H271687   1.693   2.081   5.354  1.1668 -3.0559  2.6635
16758TIP3   OH271688   6.593   4.171   2.842 -0.0240 -0.4206 -0.1659
16758TIP3    H171689   6.512   4.179   2.792 -0.5023 -1.8993  0.3107
16758TIP3    H271690   6.583   4.233   2.914  0.4967  1.4228 -1.6034
16759TIP3   OH271691   5.120   4.920   1.438  0.6920  0.6971  0.2907
16759TIP3    H171692   5.025   4.924   1.438  0.6582  0.2251  1.2547
16759TIP3    H271693   5.147   4.965   1.518  1.2117 -0.1223  0.5996
16760TIP3   OH271694   4.139   1.538  13.960 -0.6281  0.2662  0.3173
16760TIP3    H171695   4.079   1.521  13.888 -0.2053 -1.2660  0.2963
16760TIP3    H271696   4.127   1.464  14.020  2.0313 -0.7445 -0.2463
16761TIP3   OH271697   6.688   4.689  14.858  0.0084  0.5601 -0.3767
16761TIP3    H171698   6.646   4.706  14.942  1.4428  2.9310 -0.0441
16761TIP3    H271699   6.779   4.667  14.881 -0.0408 -0.6600 -1.2478
16762TIP3   OH271700   0.896   4.274   5.594 -0.1206  0.3706 -0.4529
16762TIP3    H171701   0.938   4.354   5.627 -0.9993  0.2223  1.1478
16762TIP3    H271702   0.948   4.203   5.632 -1.9491  0.1796  1.9018
16763TIP3   OH271703   5.065   6.549  13.907 -0.4703 -0.2978  0.4404
16763TIP3    H171704   5.099   6.604  13.978 -2.0735 -0.2591  1.2126
16763TIP3    H271705   5.140   6.497  13.880  0.1377 -0.4781  2.3250
16764TIP3   OH271706   0.321   0.363  11.829 -0.0963  0.2940  0.9346
16764TIP3    H171707   0.313   0.288  11.889 -3.0567  0.0753  0.4055
16764TIP3    H271708   0.363   0.327  11.751 -1.2218 -0.8121  0.7982
16765TIP3   OH271709   5.736   4.044   3.549  0.0329  0.5357 -0.0931
16765TIP3    H171710   5.653   4.065   3.505 -0.4670 -2.2715 -0.6803
16765TIP3    H271711   5.801   4.044   3.479 -0.2484 -1.1769 -0.3895
16766TIP3   OH271712   2.609   1.952   3.197 -0.4129  0.4020 -0.2131
16766TIP3    H171713   2.526   1.966   3.151 -0.4945  1.1928  0.1539
16766TIP3    H271714   2.619   1.857   3.200 -2.1867  0.1850  1.2223
16767TIP3   OH271715   1.378   1.320  13.805  0.4076  0.0461 -0.3046
16767TIP3    H171716   1.420   1.305  13.720  2.3672  0.4621  0.5306
16767TIP3    H271717   1.450   1.346  13.862 -1.1199  1.4136  1.0868
16768TIP3   OH271718   5.879   4.344  15.980 -0.3309  0.0022  0.2408
16768TIP3    H171719   5.863   4.429  16.020 -2.0497  0.2662 -0.8960
16768TIP3    H271720   5.791   4.310  15.960  0.2924 -2.1589  0.8776
16769TIP3   OH271721   1.751   3.126  13.240 -0.1878  0.9698  0.1361
16769TIP3    H171722   1.718   3.108  13.152  2.0765 -0.9795 -0.3963
16769TIP3    H271723   1.707   3.061  13.295 -0.3085  1.0706  0.1605
16770TIP3   OH271724   0.407   1.465   3.827 -0.2835  0.5875 -0.0920
16770TIP3    H171725   0.470   1.475   3.899 -0.0865  0.5789 -0.2618
16770TIP3    H271726   0.368   1.551   3.817  1.1714  1.1553 -1.3302
16771TIP3   OH271727   0.112   4.158  15.656 -0.0156 -0.2854 -0.2479
16771TIP3    H171728   0.194   4.208  15.646  0.2662 -0.1978  1.9314
16771TIP3    H271729   0.054   4.218  15.704 -0.2139 -1.4705  1.0477
16772TIP3   OH271730   1.296   4.682  14.401  0.9303 -0.0378 -0.5085
16772TIP3    H171731   1.373   4.682  14.344  1.3021 -0.4980 -0.0112
16772TIP3    H271732   1.222   4.689  14.341  1.3221 -0.4515 -1.0502
16773TIP3   OH271733   6.603   3.193  15.084 -0.3752 -0.9625 -0.5643
16773TIP3    H171734   6.523   3.181  15.034  0.8804 -2.4889 -2.3401
16773TIP3    H271735   6.591   3.276  15.130 -2.2797 -0.3206 -2.1083
16774TIP3   OH271736   1.551   2.438  16.798  0.4777  0.4553  0.0097
16774TIP3    H171737   1.478   2.377  16.783 -0.1327  1.0295  0.5849
16774TIP3    H271738   1.569   2.476  16.712  1.9378 -1.6810 -0.7199
16775TIP3   OH271739   5.160   2.307  14.671 -0.1655  0.1593 -0.5437
16775TIP3    H171740   5.094   2.264  14.616 -0.0647 -0.9536  0.1824
16775TIP3    H271741   5.239   2.253  14.660 -0.2783 -0.3891  1.0609
16776TIP3   OH271742   0.560   0.890   3.979 -0.4225 -0.2179  0.1383
16776TIP3    H171743   0.468   0.863   3.977 -1.0473  1.6981 -2.6872
16776TIP3    H271744   0.607   0.817   3.940 -0.6816 -1.2413  1.6605
16777TIP3   OH271745   5.410   0.522  16.048 -0.2649  0.5463  0.6023
16777TIP3    H171746   5.370   0.586  15.989  0.0818  0.1013 -0.1179
16777TIP3    H271747   5.391   0.556  16.136  0.9890  2.3146  0.2352
16778TIP3   OH271748   0.195   6.425   0.460 -0.5679  0.7413 -0.2471
16778TIP3    H171749   0.222   6.514   0.482 -0.6057  0.6303  0.2603
16778TIP3    H271750   0.107   6.435   0.424 -0.5260  0.9200 -0.3027
16779TIP3   OH271751   0.291   3.478  13.181  0.1917 -0.5979  0.0407
16779TIP3    H171752   0.324   3.408  13.238  0.0929  0.7841  1.9103
16779TIP3    H271753   0.363   3.540  13.176 -0.1299 -0.2712 -0.6376
16780TIP3   OH271754   6.405   3.383   1.541 -0.0487 -0.1943 -0.0509
16780TIP3    H171755   6.397   3.295   1.504 -0.5604 -0.3636  0.4387
16780TIP3    H271756   6.369   3.374   1.629 -1.0620  0.7484 -0.3616
16781TIP3   OH271757   4.433   6.555  12.995  0.1232 -0.2821 -0.3667
16781TIP3    H171758   4.493   6.501  12.944  0.5924  0.8787 -1.0837
16781TIP3    H271759   4.484   6.631  13.021 -1.2106  1.1411 -1.6800
16782TIP3   OH271760   5.009   1.199   0.844  0.1659 -0.5385 -0.6019
16782TIP3    H171761   5.028   1.122   0.791 -0.2587 -1.0839  0.0280
16782TIP3    H271762   4.921   1.184   0.879 -0.0126  0.3324 -0.6459
16783TIP3   OH271763   5.407   0.042  10.590 -0.5063 -0.0960 -0.2539
16783TIP3    H171764   5.489   0.004  10.620 -0.1337  1.1860  0.4081
16783TIP3    H271765   5.403   0.128  10.632 -2.2455 -0.1814 -0.1601
16784TIP3   OH271766   6.141   0.456  11.769  0.2271  0.3251  0.0910
16784TIP3    H171767   6.107   0.437  11.856  1.4978  2.6543  1.1704
16784TIP3    H271768   6.236   0.447  11.777  0.3226 -0.4427 -1.3704
16785TIP3   OH271769   0.739   4.128   3.674  0.2706  0.1488 -0.0567
16785TIP3    H171770   0.825   4.135   3.633  0.0745  1.9890 -0.2332
16785TIP3    H271771   0.742   4.191   3.746 -0.5222 -0.6841  0.7414
16786TIP3   OH271772   2.926   6.340  13.459 -0.2073 -0.0254  0.0733
16786TIP3    H171773   2.856   6.378  13.510 -0.6849 -0.4757 -0.2358
16786TIP3    H271774   2.885   6.267  13.413  0.5157 -0.4419  0.0774
16787TIP3   OH271775   4.555   2.991  14.357 -0.1636 -0.6817 -0.0594
16787TIP3    H171776   4.548   2.994  14.262  0.4092  0.2745 -0.0782
16787TIP3    H271777   4.616   3.061  14.380 -0.0993 -1.0558  0.9955
16788TIP3   OH271778   5.131   6.327  16.236  0.6047 -0.0905 -0.0169
16788TIP3    H171779   5.070   6.329  16.309  2.7401  2.6546  1.9219
16788TIP3    H271780   5.182   6.247  16.249  0.1598 -0.2532  0.7837
16789TIP3   OH271781   0.075   4.285   3.801  0.4069  0.0183  0.3173
16789TIP3    H171782   0.068   4.269   3.895 -0.7887  0.0536  0.2419
16789TIP3    H271783   0.137   4.218   3.770  0.8890  0.0700  1.1310
16790TIP3   OH271784   6.522   2.789   0.853  0.0800 -0.2894 -0.9887
16790TIP3    H171785   6.489   2.879   0.857  0.3196 -0.2445  1.1315
16790TIP3    H271786   6.616   2.797   0.867  0.0194 -0.9019 -0.1492
16791TIP3   OH271787   4.248   1.211  16.610 -0.3954  0.1760  0.1563
16791TIP3    H171788   4.167   1.262  16.617 -0.1997  0.5518 -0.2529
16791TIP3    H271789   4.276   1.222  16.519 -0.0146 -0.1548  0.2294
16792TIP3   OH271790   4.769   4.545   4.689 -0.2762  0.2381 -0.7542
16792TIP3    H171791   4.680   4.556   4.654 -0.0149 -0.3586 -1.6357
16792TIP3    H271792   4.822   4.523   4.613  0.4330 -0.4742 -0.0638
16793TIP3   OH271793   0.825   2.883   3.503  0.3884 -0.6842 -0.2345
16793TIP3    H171794   0.784   2.964   3.533  2.0745  0.2846 -0.3859
16793TIP3    H271795   0.831   2.891   3.408 -0.4890 -1.5459 -0.3869
16794TIP3   OH271796   1.678   2.119   2.797  0.2881  0.1976 -0.0253
16794TIP3    H171797   1.666   2.069   2.878 -1.5687  0.0757 -0.3410
16794TIP3    H271798   1.746   2.071   2.750 -1.1580 -1.8557 -0.1487
16795TIP3   OH271799   2.604   0.984  13.551 -0.1106 -0.5567  0.1368
16795TIP3    H171800   2.642   0.905  13.589 -1.4690 -1.0654  0.5092
16795TIP3    H271801   2.539   0.952  13.489  0.6935  0.2778 -1.1882
16796TIP3   OH271802   5.313   5.719  16.726  0.7422 -0.6376 -0.2592
16796TIP3    H171803   5.391   5.720  16.671  0.1291  0.6461 -1.1370
16796TIP3    H271804   5.247   5.674  16.674  0.0637  0.8720 -0.7611
16797TIP3   OH271805   2.251   0.324   6.294  0.0860 -0.1471  0.0095
16797TIP3    H171806   2.169   0.276   6.283 -0.7133  1.2429 -0.3449
16797TIP3    H271807   2.305   0.267   6.347 -0.9953 -1.2409 -0.0215
16798TIP3   OH271808   1.497   1.462  15.647  0.5052  0.1575  0.1969
16798TIP3    H171809   1.423   1.436  15.592 -0.4126 -0.5900  1.7004
16798TIP3    H271810   1.468   1.543  15.690  0.4309 -0.2721  0.9827
16799TIP3   OH271811   0.349   2.966   3.894 -0.0256  0.3156 -0.8191
16799TIP3    H171812   0.353   2.966   3.989 -0.9791 -1.3869 -0.7351
16799TIP3    H271813   0.363   3.057   3.869  2.2722  0.5020  0.8233
16800TIP3   OH271814   6.009   3.325  17.192 -0.5718 -1.1825  0.2889
16800TIP3    H171815   5.916   3.306  17.203 -0.6868 -1.5734 -1.1327
16800TIP3    H271816   6.043   3.251  17.143  0.4809 -0.9867  0.6920
16801TIP3   OH271817   4.594   2.141  12.570  0.3292  0.1332 -0.1994
16801TIP3    H171818   4.588   2.236  12.564  0.3962  0.0877 -1.0243
16801TIP3    H271819   4.684   2.121  12.546  0.6804 -0.0573  1.1728
16802TIP3   OH271820   2.156   0.526  13.645 -0.1922  0.5577  0.2986
16802TIP3    H171821   2.156   0.430  13.644  0.6931  0.5159  1.6333
16802TIP3    H271822   2.063   0.550  13.640 -0.3505 -0.2277 -3.3645
16803TIP3   OH271823   5.620   6.793   0.740 -0.0402 -0.2821 -0.2285
16803TIP3    H171824   5.687   6.827   0.799 -0.7519 -0.7359  0.8976
16803TIP3    H271825   5.668   6.751   0.670  0.8523 -0.2194  0.3293
16804TIP3   OH271826   2.366   6.024   4.583  0.1740 -0.1098 -0.5115
16804TIP3    H171827   2.337   6.004   4.672 -1.4415 -3.3869 -1.6200
16804TIP3    H271828   2.400   6.113   4.589  0.5162 -0.3154  3.4292
16805TIP3   OH271829   5.771   0.691  11.643 -0.0071  0.3851  0.0624
16805TIP3    H171830   5.805   0.708  11.731 -0.6469 -1.0047  0.6136
16805TIP3    H271831   5.738   0.776  11.614 -0.0157  0.8213  1.2737
16806TIP3   OH271832   3.568   3.550  15.032  0.0087  0.0081  0.0186
16806TIP3    H171833   3.618   3.541  14.951  0.1018  0.6142  0.0024
16806TIP3    H271834   3.491   3.496  15.018 -1.2679  2.0590 -1.5219
16807TIP3   OH271835   5.007   2.862  13.893 -0.0249 -0.1773 -0.2348
16807TIP3    H171836   4.920   2.897  13.873  1.0879  1.6255 -2.2973
16807TIP3    H271837   5.013   2.781  13.842 -0.3424 -0.1199 -0.3605
16808TIP3   OH271838   3.060   5.097  14.379  0.7248  0.4932  0.3011
16808TIP3    H171839   3.062   5.038  14.454 -1.2425 -0.2759 -0.1820
16808TIP3    H271840   3.112   5.053  14.311 -0.6624 -0.6882 -0.0260
16809TIP3   OH271841   5.229   3.958   1.416 -0.0748 -0.3216  0.4118
16809TIP3    H171842   5.226   3.959   1.512 -1.9891 -1.2096  0.4107
16809TIP3    H271843   5.233   3.864   1.394 -1.6951 -0.2463 -0.3607
16810TIP3   OH271844   3.109   0.984   0.780 -0.2434  0.0794  0.3283
16810TIP3    H171845   3.074   0.915   0.836  1.2343 -0.5117  0.5663
16810TIP3    H271846   3.197   1.001   0.814  0.8571 -0.5289 -1.9581
16811TIP3   OH271847   6.462   0.428   1.714 -0.0708  0.9645  0.2099
16811TIP3    H171848   6.521   0.473   1.774  0.0111  2.7368 -1.0847
16811TIP3    H271849   6.428   0.498   1.658 -2.3216 -0.2012  0.0021
16812TIP3   OH271850   1.602   5.357   3.607 -0.2214 -0.3419 -0.1247
16812TIP3    H171851   1.675   5.375   3.666 -1.1312 -1.6959  1.5452
16812TIP3    H271852   1.636   5.291   3.547  0.1135 -0.5289  0.2622
16813TIP3   OH271853   4.858   3.913   1.547  0.2938 -0.0718 -0.3276
16813TIP3    H171854   4.856   3.934   1.454  0.7663  1.8130  0.0399
16813TIP3    H271855   4.892   3.992   1.589  0.0018 -0.8374  1.4648
16814TIP3   OH271856   4.540   2.455   2.629 -1.0013  0.2632  0.0157
16814TIP3    H171857   4.587   2.522   2.579  0.1576  0.3180  1.1000
16814TIP3    H271858   4.513   2.390   2.565  2.9964 -1.1975 -0.4729
16815TIP3   OH271859   0.305   0.058   0.823 -0.1665  0.1150  0.7076
16815TIP3    H171860   0.340   0.132   0.772  0.3755 -1.0354 -0.6640
16815TIP3    H271861   0.211   0.057   0.802  0.1840 -0.8376 -0.9869
16816TIP3   OH271862   1.004   1.223  13.469 -0.0899 -0.3475 -0.2397
16816TIP3    H171863   0.977   1.136  13.438 -1.7354  0.4416 -1.1162
16816TIP3    H271864   0.990   1.219  13.564  0.4061 -1.2124 -0.1901
16817TIP3   OH271865   3.931   1.195   6.661  0.3728  0.0847  0.4270
16817TIP3    H171866   4.015   1.242   6.660  0.4056  0.0148 -0.4947
16817TIP3    H271867   3.874   1.246   6.603 -0.8981  1.3122  2.6137
16818TIP3   OH271868   5.628   5.599   1.521 -0.0424 -0.4562  0.0290
16818TIP3    H171869   5.647   5.601   1.428  1.3749 -4.1564  0.0594
16818TIP3    H271870   5.559   5.533   1.530 -0.3633  0.0469  1.5902
16819TIP3   OH271871   1.170   3.202   1.606  0.7869  0.2401  0.2770
16819TIP3    H171872   1.078   3.217   1.625  0.6000  1.0981 -1.1798
16819TIP3    H271873   1.210   3.289   1.612  1.2068  0.1100 -0.5485
16820TIP3   OH271874   5.681   1.064   5.080 -0.0820 -0.1519 -0.3094
16820TIP3    H171875   5.623   1.073   5.155 -2.2227  1.3666 -2.0159
16820TIP3    H271876   5.715   1.152   5.066  1.8767 -0.8107  0.0022
16821TIP3   OH271877   4.995   4.182  12.214 -0.6182  0.1542 -0.5961
16821TIP3    H171878   4.909   4.169  12.174  0.1212  0.3810 -2.3429
16821TIP3    H271879   4.987   4.266  12.259 -0.9692  0.7928 -1.7931
16822TIP3   OH271880   0.263   1.691   5.967 -0.3468  0.0491  0.0554
16822TIP3    H171881   0.262   1.781   5.999  1.3435  0.7838 -1.7217
16822TIP3    H271882   0.245   1.637   6.044 -0.3100  1.8580  1.3856
16823TIP3   OH271883   4.165   1.602  13.243  0.5075  0.5991 -0.5208
16823TIP3    H171884   4.234   1.664  13.218  0.6579  0.4914 -0.3712
16823TIP3    H271885   4.197   1.560  13.322  0.0344  0.9273 -0.1477
16824TIP3   OH271886   2.827   5.849   6.127  1.0248  0.3305  0.5399
16824TIP3    H171887   2.832   5.899   6.045  1.6320 -0.0955  0.3050
16824TIP3    H271888   2.734   5.834   6.141  0.9015  0.6258  0.0591
16825TIP3   OH271889   6.507   5.712   4.568 -0.0282 -0.0927  0.4908
16825TIP3    H171890   6.534   5.620   4.562 -2.0461 -0.6822 -0.4773
16825TIP3    H271891   6.478   5.733   4.479  0.5775  1.5705  0.6619
16826TIP3   OH271892   5.671   1.246  14.330  0.3744 -0.3949 -0.2874
16826TIP3    H171893   5.586   1.263  14.290  0.7303  0.7264 -0.6048
16826TIP3    H271894   5.705   1.171  14.281  0.2263  0.1218 -1.2110
16827TIP3   OH271895   1.306   5.342  15.700  0.6526 -0.2227 -0.6348
16827TIP3    H171896   1.368   5.285  15.744 -0.8528 -1.2617  0.1887
16827TIP3    H271897   1.221   5.300  15.711 -0.3879  1.7051 -0.7881
16828TIP3   OH271898   6.351   2.325   1.088 -0.3232 -0.0750  0.2605
16828TIP3    H171899   6.390   2.368   1.012  3.2910 -1.4279  1.1299
16828TIP3    H271900   6.387   2.237   1.086 -2.1937 -0.9660  2.1807
16829TIP3   OH271901   3.675   6.202   3.258  0.5604 -0.1688  0.3568
16829TIP3    H171902   3.728   6.211   3.337 -0.6881 -1.2497  1.3514
16829TIP3    H271903   3.617   6.278   3.259  0.2631 -0.3990  0.7040
16830TIP3   OH271904   1.623   2.055  16.826  0.2712 -0.1270 -0.0701
16830TIP3    H171905   1.602   2.071  16.918  0.0301 -0.7361 -0.0137
16830TIP3    H271906   1.540   2.026  16.788  0.8104 -1.7711 -0.0374
16831TIP3   OH271907   2.196   0.489  17.123  0.1485 -0.2062 -0.3145
16831TIP3    H171908   2.236   0.428  17.185 -0.7279  0.8608  1.3789
16831TIP3    H271909   2.260   0.559  17.114  0.5220 -0.6296 -1.1128
16832TIP3   OH271910   5.487   1.285  11.719 -0.4076  0.6840 -0.5058
16832TIP3    H171911   5.400   1.323  11.729 -0.5834  0.5155 -1.2812
16832TIP3    H271912   5.517   1.317  11.634 -0.9457 -1.5568 -1.6487
16833TIP3   OH271913   5.527   0.516   1.415 -0.0040 -0.6970  0.3607
16833TIP3    H171914   5.574   0.447   1.462 -0.9270 -1.1891  0.6079
16833TIP3    H271915   5.579   0.595   1.427  1.5735 -1.5264 -0.7043
16834TIP3   OH271916   1.899   6.056  12.871 -0.1743 -0.0728 -0.0598
16834TIP3    H171917   1.856   6.103  12.799  0.6576 -0.1672 -0.6391
16834TIP3    H271918   1.838   6.064  12.944 -2.4271 -2.3641 -1.4844
16835TIP3   OH271919   5.222   6.470  13.301 -0.1400  0.2095 -0.4478
16835TIP3    H171920   5.185   6.393  13.257  2.5149 -1.4630  0.0553
16835TIP3    H271921   5.263   6.520  13.230  1.5278 -0.9230 -0.3211
16836TIP3   OH271922   2.322   2.259  11.798 -0.2918  1.1268  0.2772
16836TIP3    H171923   2.310   2.313  11.876 -0.1094  2.2029 -0.4193
16836TIP3    H271924   2.267   2.301  11.732  1.2392  1.5313 -0.7877
16837TIP3   OH271925   6.389   3.174   5.716  0.0923  0.4106  0.1176
16837TIP3    H171926   6.420   3.200   5.803  1.3024  1.3750 -0.5715
16837TIP3    H271927   6.383   3.256   5.667  0.3105 -0.2174 -0.9822
16838TIP3   OH271928   3.776   5.413  15.257  0.5692  0.1167  0.2114
16838TIP3    H171929   3.682   5.399  15.247  0.6831 -0.3622 -0.1805
16838TIP3    H271930   3.797   5.374  15.342  0.6666 -1.0749 -0.3375
16839TIP3   OH271931   4.229   5.650  14.622 -0.3060 -0.4045  0.3706
16839TIP3    H171932   4.264   5.576  14.572 -0.4756  0.0589 -0.4553
16839TIP3    H271933   4.136   5.652  14.599 -0.1691  0.4700 -0.1501
16840TIP3   OH271934   0.919   2.416  11.914  0.0507  0.5749 -0.3177
16840TIP3    H171935   0.965   2.438  11.832 -0.4695 -1.1288 -1.1034
16840TIP3    H271936   0.846   2.361  11.886 -0.2067  0.0558  1.3089
16841TIP3   OH271937   4.760   5.842  14.072  0.5703 -0.0015 -0.1657
16841TIP3    H171938   4.729   5.759  14.037  1.7264 -1.2598  1.6576
16841TIP3    H271939   4.768   5.898  13.994 -0.2254 -1.5526 -1.4424
16842TIP3   OH271940   1.012   4.735  15.791 -0.0784 -0.2655  0.8832
16842TIP3    H171941   0.954   4.679  15.842 -0.3811 -2.2002 -1.4363
16842TIP3    H271942   1.062   4.675  15.736  1.1699  1.6261 -0.1695
16843TIP3   OH271943   4.945   5.822  13.273 -0.2650  0.0587 -0.6830
16843TIP3    H171944   4.994   5.804  13.193  2.1389 -1.7796  1.0230
16843TIP3    H271945   4.954   5.741  13.325  0.0553  1.8352  2.2493
16844TIP3   OH271946   2.457   1.921  14.963 -0.4874 -0.1304 -0.3064
16844TIP3    H171947   2.545   1.958  14.960 -1.1747  1.6925  0.5690
16844TIP3    H271948   2.445   1.880  14.878  0.8817  0.4026 -0.7767
16845TIP3   OH271949   2.499   0.128  15.767 -0.0281  0.2063  0.2406
16845TIP3    H171950   2.476   0.042  15.801  1.0887 -0.1253  0.2055
16845TIP3    H271951   2.516   0.113  15.674  0.1597  0.4587  0.2323
16846TIP3   OH271952   1.398   1.759   3.359 -0.0635 -0.5078 -0.7937
16846TIP3    H171953   1.333   1.816   3.318  1.4878  0.6167 -1.8032
16846TIP3    H271954   1.346   1.696   3.409 -1.9021  0.6378 -1.1482
16847TIP3   OH271955   5.942   0.104  16.220  0.6086 -0.0892  0.1163
16847TIP3    H171956   5.951   0.135  16.130  3.0891  2.0185  0.9644
16847TIP3    H271957   5.921   0.183  16.271  1.5586 -0.7729  1.6576
16848TIP3   OH271958   3.442   2.357  16.457  0.5111 -0.1255  0.4262
16848TIP3    H171959   3.530   2.346  16.420  0.6700 -0.8553  1.0079
16848TIP3    H271960   3.440   2.448  16.487  0.8650  0.0642 -0.1090
16849TIP3   OH271961   1.148   3.358  12.919  0.4345  0.1066  0.6374
16849TIP3    H171962   1.127   3.276  12.875  0.3647 -0.2833  1.3757
16849TIP3    H271963   1.243   3.362  12.920  0.4347  0.2156  0.2804
16850TIP3   OH271964   4.368   2.238   2.809  0.6376 -0.1375  0.3398
16850TIP3    H171965   4.283   2.279   2.826  0.4274 -1.0152  1.4697
16850TIP3    H271966   4.417   2.305   2.760  0.1295  1.2703  1.6696
16851TIP3   OH271967   3.955   2.968   1.662 -0.2828 -0.2071 -0.0387
16851TIP3    H171968   3.875   2.956   1.611  0.2303 -0.4177 -0.8049
16851TIP3    H271969   3.987   3.054   1.635  0.3006 -0.5652 -0.5307
16852TIP3   OH271970   5.671   6.304  13.335  0.0497 -0.5591  0.8508
16852TIP3    H171971   5.576   6.300  13.340 -0.2614  1.7113 -1.2648
16852TIP3    H271972   5.698   6.217  13.306 -1.5491 -0.7832 -0.0391
16853TIP3   OH271973   3.068   2.732  16.727  0.0582  0.6270 -0.0795
16853TIP3    H171974   3.034   2.664  16.668 -1.6372  1.7075 -0.3962
16853TIP3    H271975   3.127   2.784  16.672  0.2112  0.3122 -0.2175
16854TIP3   OH271976   4.078   5.107   4.647  0.4800 -0.2428 -0.1145
16854TIP3    H171977   4.006   5.051   4.617  1.1788 -1.4500  0.3886
16854TIP3    H271978   4.096   5.076   4.736  1.0563  0.6235  0.0725
16855TIP3   OH271979   6.689   1.898  14.690  0.0454  0.2671 -0.4160
16855TIP3    H171980   6.630   1.845  14.636 -0.5282 -0.5087  0.9046
16855TIP3    H271981   6.632   1.963  14.730  0.4167  0.6705 -0.5419
16856TIP3   OH271982   2.952   6.234   5.440 -0.9046  0.1227  0.2574
16856TIP3    H171983   3.031   6.269   5.399 -0.6533  0.8324  1.2899
16856TIP3    H271984   2.880   6.267   5.387 -0.6066  1.2676  0.5434
16857TIP3   OH271985   3.526   4.305  14.897 -0.6912 -0.1335  1.0224
16857TIP3    H171986   3.460   4.369  14.923  2.3228  3.1870  1.1397
16857TIP3    H271987   3.588   4.304  14.970  0.7110 -1.2310 -0.1191
16858TIP3   OH271988   0.379   2.773   4.590 -0.4524 -1.0642  0.2439
16858TIP3    H171989   0.295   2.817   4.594 -1.7825 -2.8591 -3.5589
16858TIP3    H271990   0.365   2.690   4.634 -0.8543 -1.5109 -0.6910
16859TIP3   OH271991   1.180   6.272  12.786  0.4466 -0.0212 -0.1379
16859TIP3    H171992   1.225   6.290  12.704  0.7782  0.4244  0.1396
16859TIP3    H271993   1.141   6.355  12.811  1.1657  0.0985  0.6462
16860TIP3   OH271994   5.024   1.212   2.945  0.4117  0.4907 -0.9852
16860TIP3    H171995   5.054   1.193   3.034  1.4317  0.5313 -1.3083
16860TIP3    H271996   4.956   1.147   2.928 -0.5126  1.1145  0.1781
16861TIP3   OH271997   3.258   4.213  14.735 -0.0186  0.6364  0.0985
16861TIP3    H171998   3.314   4.244  14.807  0.1091 -0.7759  0.6359
16861TIP3    H271999   3.233   4.125  14.761 -2.0938  1.0447 -0.3929
16862TIP3   OH272000   3.006   1.558  17.074 -0.3928  0.4389  0.3547
16862TIP3    H172001   3.048   1.504  17.140 -1.5706 -0.3555  0.4857
16862TIP3    H272002   3.078   1.596  17.024  0.5212  0.8313  1.9033
16863TIP3   OH272003   1.679   3.795  14.349  0.0532  0.2651 -0.2927
16863TIP3    H172004   1.751   3.800  14.286  0.5561 -1.8894  0.0462
16863TIP3    H272005   1.612   3.742  14.306  0.0415 -0.4908  0.6251
16864TIP3   OH272006   3.556   5.705   4.595  0.0234  0.2881  0.0769
16864TIP3    H172007   3.553   5.610   4.608 -1.9184  0.4489  1.3440
16864TIP3    H272008   3.466   5.734   4.612  0.5487  2.3562 -0.3634
16865TIP3   OH272009   5.243   4.786  14.071  0.0193 -0.0289 -0.1267
16865TIP3    H172010   5.163   4.828  14.039  1.2959  2.6258 -0.1527
16865TIP3    H272011   5.275   4.845  14.139  3.3449  0.5694 -1.9542
16866TIP3   OH272012   2.262   4.202  12.247  0.6243 -0.3938  0.1927
16866TIP3    H172013   2.173   4.237  12.253  0.6692 -0.2845  0.2193
16866TIP3    H272014   2.317   4.268  12.289  0.5276 -1.2635  1.7565
16867TIP3   OH272015   2.191   2.147  13.992  0.0554 -0.4890 -0.4787
16867TIP3    H172016   2.162   2.150  14.083 -0.2459  0.4349 -0.5932
16867TIP3    H272017   2.165   2.232  13.956 -0.2034 -1.0060 -1.5377
16868TIP3   OH272018   5.539   0.541   2.265 -0.4732  0.6416  0.4995
16868TIP3    H172019   5.533   0.570   2.356  0.6873 -0.2769  0.8930
16868TIP3    H272020   5.461   0.487   2.252  0.8869 -1.8695  1.9864
16869TIP3   OH272021   3.091   3.699  11.543  0.4541 -0.6810 -0.1811
16869TIP3    H172022   3.160   3.751  11.502  0.3358  0.0990  0.5838
16869TIP3    H272023   3.136   3.621  11.576  1.2744  0.4415  1.5207
16870TIP3   OH272024   1.744   1.731   2.016  0.2875 -0.4933 -0.0403
16870TIP3    H172025   1.771   1.822   2.007 -1.4136  0.0831  0.3102
16870TIP3    H272026   1.733   1.700   1.926  0.8378 -0.3363 -0.1594
16871TIP3   OH272027   1.551   6.253   3.799 -0.0816  0.0473  0.0159
16871TIP3    H172028   1.572   6.278   3.889  1.1015  2.3764 -0.8372
16871TIP3    H272029   1.618   6.189   3.776  1.0193  1.1283  0.0930
16872TIP3   OH272030   2.292   1.305  16.242  0.1428  0.1577 -0.6450
16872TIP3    H172031   2.224   1.269  16.298 -2.2094  0.4137 -3.1189
16872TIP3    H272032   2.292   1.399  16.261 -2.1876  0.6138 -2.3981
16873TIP3   OH272033   4.222   6.425  12.326  0.1769 -0.2215 -0.0442
16873TIP3    H172034   4.129   6.448  12.328 -0.0255 -1.0504  1.2364
16873TIP3    H272035   4.268   6.508  12.335 -0.4157  0.2492 -1.1790
16874TIP3   OH272036   3.311   2.467  11.461 -0.0199 -0.0966 -0.2500
16874TIP3    H172037   3.390   2.454  11.409  0.6071  0.8484  0.4233
16874TIP3    H272038   3.294   2.383  11.503  1.0634 -0.1173  0.1703
16875TIP3   OH272039   1.769   3.441  13.244  0.6809  0.3927 -0.0203
16875TIP3    H172040   1.775   3.453  13.149  0.6074  1.7223  0.1219
16875TIP3    H272041   1.811   3.356  13.260 -0.3364 -0.4167 -1.3504
16876TIP3   OH272042   4.205   0.272  16.929  0.1206 -0.4694 -0.1515
16876TIP3    H172043   4.225   0.253  16.837 -0.9910  0.0664 -0.5143
16876TIP3    H272044   4.250   0.354  16.947  0.6090 -0.7404 -0.1113
16877TIP3   OH272045   1.545   1.842  12.531  0.3192  0.5475  0.0518
16877TIP3    H172046   1.476   1.892  12.488  0.0109  4.1508  4.1153
16877TIP3    H272047   1.518   1.750  12.522 -1.7028  1.3223 -3.5898
16878TIP3   OH272048   2.528   3.997   0.076 -0.5862 -0.1855  0.3396
16878TIP3    H172049   2.541   4.066   0.010 -0.9973 -1.1799 -0.8105
16878TIP3    H272050   2.442   4.015   0.113 -1.4046 -0.9592 -1.0915
16879TIP3   OH272051   4.543   0.838  13.715 -0.1590  0.1567 -0.0284
16879TIP3    H172052   4.508   0.832  13.804  0.5535 -0.8491  0.2082
16879TIP3    H272053   4.562   0.931  13.703 -0.0709  0.2785  0.9580
16880TIP3   OH272054   3.407   0.533  15.546  0.3408  0.5984 -0.2619
16880TIP3    H172055   3.383   0.461  15.604  0.0795  0.0538 -1.0375
16880TIP3    H272056   3.337   0.537  15.481  1.6715 -0.2275 -1.8252
16881TIP3   OH272057   5.519   3.420   2.459  0.0819  0.3265  0.2576
16881TIP3    H172058   5.508   3.420   2.554 -0.3490  0.3970  0.2063
16881TIP3    H272059   5.522   3.327   2.435  1.6008  0.2827  0.4982
16882TIP3   OH272060   3.832   1.260   5.917 -0.2012 -0.0836 -0.1854
16882TIP3    H172061   3.737   1.258   5.929 -0.1103 -0.1048  0.5627
16882TIP3    H272062   3.862   1.175   5.949  0.1188  0.0906 -0.0226
16883TIP3   OH272063   3.871   2.687  17.146  0.1255 -0.7566  0.6667
16883TIP3    H172064   3.916   2.771  17.146  1.3622 -1.3852  0.5597
16883TIP3    H272065   3.818   2.688  17.225 -1.6395  0.9876 -0.4513
16884TIP3   OH272066   3.020   3.918   5.641 -0.1184  0.4175  0.0733
16884TIP3    H172067   3.102   3.921   5.592 -0.2694 -1.2269 -0.3338
16884TIP3    H272068   3.048   3.908   5.732  0.1402  1.0138  0.0633
16885TIP3   OH272069   1.969   0.467  12.866 -0.1938 -0.1935  0.4249
16885TIP3    H172070   2.052   0.420  12.859 -0.6474 -0.9755  0.1822
16885TIP3    H272071   1.982   0.547  12.814  0.7157  0.1557  1.1640
16886TIP3   OH272072   1.286   3.377  15.059 -0.0722 -0.1597 -0.2796
16886TIP3    H172073   1.281   3.330  14.976  1.6420 -0.2803 -0.3566
16886TIP3    H272074   1.266   3.310  15.125 -2.1502  0.0961 -0.5772
16887TIP3   OH272075   4.503   3.530  13.932 -0.2392  0.0245  0.2898
16887TIP3    H172076   4.425   3.486  13.898  0.7155  0.0198 -2.0729
16887TIP3    H272077   4.521   3.599  13.868  2.0293 -0.3411  0.4724
16888TIP3   OH272078   2.341   5.421  14.653 -0.0114  0.0835  0.1030
16888TIP3    H172079   2.279   5.397  14.584  0.0571  0.1106  0.0321
16888TIP3    H272080   2.418   5.454  14.606 -0.0208  0.2367  0.1954
16889TIP3   OH272081   0.856   2.587  12.396 -0.5438 -0.0325  0.2453
16889TIP3    H172082   0.788   2.522  12.416 -1.1638  0.4772 -0.1752
16889TIP3    H272083   0.905   2.595  12.478 -0.3725 -1.1193  0.2668
16890TIP3   OH272084   3.157   6.435  12.106 -0.1711 -0.2495  0.0417
16890TIP3    H172085   3.073   6.462  12.144  0.1348  0.2176  0.3997
16890TIP3    H272086   3.165   6.486  12.026 -1.0173 -1.5483 -0.9096
16891TIP3   OH272087   3.799   6.546  14.566 -0.5077  0.5463  0.2986
16891TIP3    H172088   3.861   6.525  14.496  1.5622 -1.2710  2.4779
16891TIP3    H272089   3.777   6.461  14.605 -3.3734  1.2808  0.4869
16892TIP3   OH272090   4.057   4.653  13.255  0.1217  0.2204  0.4888
16892TIP3    H172091   4.068   4.565  13.219 -0.3417  0.9017 -1.4904
16892TIP3    H272092   4.119   4.707  13.205 -0.5641  1.2332  0.6939
16893TIP3   OH272093   2.905   0.657  13.313 -0.3230 -0.4321 -0.9885
16893TIP3    H172094   2.989   0.667  13.358 -0.5107 -0.5991 -0.5954
16893TIP3    H272095   2.913   0.574  13.266 -0.7168 -1.1011  0.0684
16894TIP3   OH272096   6.677   0.253  13.388  0.1366 -0.2777 -0.0613
16894TIP3    H172097   6.587   0.280  13.404  0.1146 -0.5915  0.3530
16894TIP3    H272098   6.699   0.292  13.303  0.2525  1.4175  0.6916
16895TIP3   OH272099   0.492   6.472  10.840 -0.4613  0.2617  0.6391
16895TIP3    H172100   0.568   6.455  10.784 -0.4843 -0.7325  0.8912
16895TIP3    H272101   0.474   6.566  10.829 -0.0804  0.2148 -0.5292
16896TIP3   OH272102   1.414   0.878   0.358 -0.1680 -0.5485  0.4744
16896TIP3    H172103   1.379   0.815   0.295 -0.4078  1.1475 -1.1794
16896TIP3    H272104   1.495   0.839   0.390 -1.4627 -2.7284  1.3108
16897TIP3   OH272105   5.337   2.516  15.205 -0.7364  0.6120  0.2785
16897TIP3    H172106   5.369   2.573  15.135 -1.3326 -0.1467 -0.6267
16897TIP3    H272107   5.408   2.518  15.270  0.0876  0.8767 -0.5925
16898TIP3   OH272108   5.626   0.411  11.008 -0.2169 -0.0873 -0.8036
16898TIP3    H172109   5.681   0.489  11.000 -0.4793  0.0175 -1.7345
16898TIP3    H272110   5.538   0.442  10.986 -0.3376 -0.6293 -1.1052
16899TIP3   OH272111   4.160   0.870   2.553  0.1271  0.0103  0.4239
16899TIP3    H172112   4.128   0.856   2.464  1.1039  2.0985 -0.3304
16899TIP3    H272113   4.252   0.846   2.550  0.0018 -0.5814  1.0764
16900TIP3   OH272114   4.894   5.979   0.931 -0.3575  0.2989 -0.0843
16900TIP3    H172115   4.840   6.029   0.870 -0.8220 -0.2467 -0.1255
16900TIP3    H272116   4.972   6.033   0.944 -0.2835  0.4465 -1.0985
16901TIP3   OH272117   3.743   3.112  13.792 -0.0057 -0.5119  0.1791
16901TIP3    H172118   3.679   3.161  13.741  0.1720 -0.1757  0.2818
16901TIP3    H272119   3.823   3.115  13.739  0.5057  0.8142  1.0057
16902TIP3   OH272120   1.949   3.365   6.178 -0.4555  0.4002 -0.1607
16902TIP3    H172121   1.951   3.439   6.119  2.6190  0.2408 -0.3898
16902TIP3    H272122   1.929   3.403   6.264 -1.8993  1.0266 -0.7436
16903TIP3   OH272123   0.676   6.256   4.093  0.1267  0.1777 -0.1114
16903TIP3    H172124   0.764   6.230   4.065 -0.0179  1.2836 -1.6696
16903TIP3    H272125   0.669   6.348   4.068 -1.3754  0.1869  0.2789
16904TIP3   OH272126   4.847   3.952   1.276  0.7552 -0.0310  0.0114
16904TIP3    H172127   4.906   3.937   1.203  1.2633  0.4917  0.3108
16904TIP3    H272128   4.814   4.041   1.264  0.0972 -0.2826 -0.1016
16905TIP3   OH272129   3.651   2.149   2.809 -0.1186 -0.0512 -1.0327
16905TIP3    H172130   3.703   2.229   2.813  2.1966 -1.2679 -3.6510
16905TIP3    H272131   3.570   2.176   2.765 -0.2576  1.1738 -0.0916
16906TIP3   OH272132   3.794   5.664   1.662 -0.1232  0.1506 -0.2274
16906TIP3    H172133   3.749   5.686   1.744  1.1266 -2.0414  1.1500
16906TIP3    H272134   3.728   5.615   1.612 -0.8773  1.4535 -0.5472
16907TIP3   OH272135   2.077   6.537   0.338 -0.1923 -0.1251  0.5049
16907TIP3    H172136   1.989   6.571   0.324 -0.7006 -2.0926 -1.6081
16907TIP3    H272137   2.090   6.542   0.433 -1.6257  2.3239  0.6433
16908TIP3   OH272138   0.693   0.950   2.351 -0.1480  0.0421 -0.0537
16908TIP3    H172139   0.713   0.865   2.389  0.9829  0.6065  0.6396
16908TIP3    H272140   0.601   0.966   2.374 -0.6442 -1.3485 -0.9306
16909TIP3   OH272141   6.785   2.124  14.466 -0.1070 -0.5757 -0.4308
16909TIP3    H172142   6.791   2.204  14.517  0.9643 -0.0220 -1.4003
16909TIP3    H272143   6.695   2.093  14.482 -0.0234 -0.0607  1.2049
16910TIP3   OH272144   1.747   2.821  11.090 -0.7966  0.4433  0.3083
16910TIP3    H172145   1.743   2.772  11.008 -1.6014  1.0755 -0.0459
16910TIP3    H272146   1.840   2.842  11.101 -0.4970 -0.8335  0.2873
16911TIP3   OH272147   2.886   0.235   5.557 -0.0449 -0.0502  0.1911
16911TIP3    H172148   2.870   0.166   5.621 -0.3223  1.8735  2.3452
16911TIP3    H272149   2.981   0.238   5.548 -0.0978 -2.0620 -1.5824
16912TIP3   OH272150   5.629   2.251   5.431 -0.0743 -0.1697  0.7599
16912TIP3    H172151   5.635   2.302   5.512  0.6333 -1.3709  1.5029
16912TIP3    H272152   5.537   2.254   5.407 -0.1695  0.8119  1.1966
16913TIP3   OH272153   1.046   1.843   5.956 -0.0699 -0.5272  0.6472
16913TIP3    H172154   1.131   1.803   5.971  0.1024 -1.0504 -1.4143
16913TIP3    H272155   0.999   1.832   6.038  1.4925 -1.1282  1.4913
16914TIP3   OH272156   2.380   6.254   3.848 -0.1135 -0.7156 -0.1476
16914TIP3    H172157   2.347   6.320   3.909  0.6577 -1.0440  0.6470
16914TIP3    H272158   2.307   6.193   3.836  0.1302 -1.3730  1.4964
16915TIP3   OH272159   5.859   2.660  11.643 -0.4769  0.4871  0.1650
16915TIP3    H172160   5.826   2.747  11.625 -1.0202  0.1097 -0.7030
16915TIP3    H272161   5.949   2.674  11.673 -0.9573  1.4193  1.2546
16916TIP3   OH272162   2.167   5.063   1.738 -0.3168 -0.1548  0.1924
16916TIP3    H172163   2.151   5.008   1.815 -0.5028  0.8379  0.8842
16916TIP3    H272164   2.080   5.080   1.702 -0.1483 -1.6249 -0.9824
16917TIP3   OH272165   6.611   2.129   1.830 -0.3189 -0.1722 -0.7110
16917TIP3    H172166   6.622   2.189   1.756  2.8517  0.0087 -0.2341
16917TIP3    H272167   6.644   2.045   1.798  0.2755 -0.3069  0.2258
16918TIP3   OH272168   2.862   2.476   2.593 -0.6456 -0.3500  0.5422
16918TIP3    H172169   2.835   2.392   2.555  0.9931 -0.8190  0.3345
16918TIP3    H272170   2.916   2.517   2.525 -1.8966  1.1722  0.4050
16919TIP3   OH272171   2.455   2.639  13.530  0.2359 -0.2737 -0.5113
16919TIP3    H172172   2.526   2.687  13.572  0.2958  0.5572 -1.5267
16919TIP3    H272173   2.378   2.694  13.542 -0.3042 -1.2403  0.7172
16920TIP3   OH272174   5.836   0.914   5.590 -0.6793 -0.0175 -0.1390
16920TIP3    H172175   5.921   0.951   5.566  0.5967 -2.1133  0.8323
16920TIP3    H272176   5.806   0.869   5.510  0.7616 -2.0405  0.3776
16921TIP3   OH272177   3.334   6.078  14.966 -0.2214 -0.1363 -0.2062
16921TIP3    H172178   3.289   6.046  14.887 -0.8663 -0.5500  0.3199
16921TIP3    H272179   3.419   6.036  14.964 -0.4318 -0.5603 -0.4065
16922TIP3   OH272180   4.521   1.936  15.800 -0.5160 -0.0549 -0.3196
16922TIP3    H172181   4.577   1.958  15.874  0.1132 -1.1750 -0.4362
16922TIP3    H272182   4.551   1.992  15.729  1.1238 -1.2639 -0.6462
16923TIP3   OH272183   2.655   0.901   5.320  0.0540 -0.4094  0.0396
16923TIP3    H172184   2.674   0.808   5.310 -0.1987 -0.4846  0.2672
16923TIP3    H272185   2.735   0.945   5.291  0.5962 -0.7223  1.0375
16924TIP3   OH272186   0.660   2.159   5.144 -0.1254 -0.5940  0.0869
16924TIP3    H172187   0.662   2.218   5.219 -1.3665  0.1410 -0.4401
16924TIP3    H272188   0.569   2.132   5.136 -0.5058  1.1841 -2.5335
16925TIP3   OH272189   4.692   1.487  12.649  0.2548 -0.0198 -0.1941
16925TIP3    H172190   4.614   1.460  12.600  0.0027 -0.9232  0.6834
16925TIP3    H272191   4.658   1.541  12.720  0.4228 -0.3546  0.1462
16926TIP3   OH272192   6.131   1.583  15.041  0.0454  0.1446 -0.5158
16926TIP3    H172193   6.059   1.531  15.005 -1.0896  0.3395  1.3967
16926TIP3    H272194   6.207   1.557  14.988 -0.2436 -4.1445  0.7426
16927TIP3   OH272195   4.732   4.473  13.914  0.0876 -0.2653  0.1109
16927TIP3    H172196   4.680   4.551  13.895  0.0378 -0.2319  0.3890
16927TIP3    H272197   4.674   4.418  13.967 -0.2522 -0.9377 -0.9185
16928TIP3   OH272198   6.673   4.105  12.283  0.1594  0.5653 -0.5176
16928TIP3    H172199   6.640   4.017  12.300 -2.3832  1.5830  0.3189
16928TIP3    H272200   6.766   4.093  12.265 -0.1193 -2.2721 -0.4822
16929TIP3   OH272201   6.259   1.098   4.702  0.7522 -0.3246  0.1670
16929TIP3    H172202   6.211   1.015   4.698  0.1493 -0.1501  2.5001
16929TIP3    H272203   6.226   1.142   4.780  1.7850  1.6825 -0.4521
16930TIP3   OH272204   4.434   6.284   6.397 -0.2100 -0.4916  0.0485
16930TIP3    H172205   4.408   6.355   6.456  0.8921  0.3987 -0.4946
16930TIP3    H272206   4.402   6.204   6.439 -1.3271  0.3075  0.7599
16931TIP3   OH272207   3.449   5.084  12.444  0.1069  0.4966 -0.7829
16931TIP3    H172208   3.408   5.055  12.362  2.3309  1.6628 -2.4270
16931TIP3    H272209   3.543   5.077  12.427  0.6495  0.8748  1.6760
16932TIP3   OH272210   1.460   2.884   2.364 -0.1338  0.4319 -0.4968
16932TIP3    H172211   1.439   2.926   2.281 -0.8133  0.0826 -0.5118
16932TIP3    H272212   1.535   2.828   2.344 -1.1749 -0.7609 -1.2485
16933TIP3   OH272213   0.861   5.859   0.816  0.4306 -0.0718 -0.1961
16933TIP3    H172214   0.776   5.861   0.860 -0.2980 -0.7843 -1.5001
16933TIP3    H272215   0.888   5.950   0.812  0.9324 -0.0293  2.4087
16934TIP3   OH272216   2.909   5.428  14.978  0.2880  0.5651 -0.1501
16934TIP3    H172217   2.859   5.508  14.963 -3.1122 -1.5946 -1.3515
16934TIP3    H272218   2.889   5.403  15.068  1.2114  0.9188  0.1668
16935TIP3   OH272219   1.791   0.752   3.216  0.0974  0.2164  0.1912
16935TIP3    H172220   1.741   0.756   3.297 -1.9243 -0.2108 -0.9517
16935TIP3    H272221   1.824   0.662   3.212 -0.3105  0.0638  0.2624
16936TIP3   OH272222   6.045   6.416   0.872  0.3474 -0.0677  0.3803
16936TIP3    H172223   6.079   6.387   0.787 -3.1328 -0.2837 -1.0827
16936TIP3    H272224   6.020   6.507   0.858  0.6691  0.2107  1.5163
16937TIP3   OH272225   2.760   5.674   4.350  0.1792  0.3468 -0.3853
16937TIP3    H172226   2.831   5.639   4.296 -0.3416  0.2641 -1.0219
16937TIP3    H272227   2.730   5.751   4.302  1.4137  1.8067  1.0607
16938TIP3   OH272228   4.360   4.853  11.544  0.9040 -0.3136  0.0444
16938TIP3    H172229   4.276   4.820  11.578  0.7819 -0.7979 -0.6958
16938TIP3    H272230   4.343   4.944  11.522  0.3116 -0.6292 -0.8885
16939TIP3   OH272231   3.173   1.283   6.093 -0.3363  0.5442 -0.2768
16939TIP3    H172232   3.088   1.239   6.086 -0.9331  1.4508  0.8702
16939TIP3    H272233   3.181   1.303   6.186  0.7380  1.2547 -0.5128
16940TIP3   OH272234   3.388   4.768  15.215 -0.1177 -0.4965  0.0053
16940TIP3    H172235   3.357   4.848  15.174  1.3543  0.0607 -0.1062
16940TIP3    H272236   3.377   4.782  15.309 -0.5176 -0.4599 -0.0469
16941TIP3   OH272237   1.983   0.389   1.124 -0.1225  0.0440  0.1904
16941TIP3    H172238   1.914   0.375   1.189 -0.1478  0.2548  0.2095
16941TIP3    H272239   2.032   0.307   1.123  1.4896  0.8875  2.3673
16942TIP3   OH272240   5.808   1.165  13.536 -0.1016  0.5153  0.6625
16942TIP3    H172241   5.891   1.145  13.493 -0.5218  1.8266 -0.8529
16942TIP3    H272242   5.777   1.080  13.568  0.4692 -0.4741 -1.2475
16943TIP3   OH272243   6.314   1.922  12.395  0.1825  0.1876  0.3067
16943TIP3    H172244   6.275   1.877  12.320  0.7078 -0.5739  0.4722
16943TIP3    H272245   6.374   1.985  12.357  1.1426 -0.8305  0.0624
16944TIP3   OH272246   3.306   2.585   2.938  0.1121  0.3123  0.1872
16944TIP3    H172247   3.211   2.572   2.940  0.0104  0.2514 -2.3736
16944TIP3    H272248   3.326   2.626   3.022 -2.0905 -0.1594  1.0088
16945TIP3   OH272249   5.633   5.456   1.830 -0.0021  0.3545  0.4077
16945TIP3    H172250   5.712   5.401   1.829 -0.6984 -0.7154  1.5771
16945TIP3    H272251   5.582   5.425   1.756  0.7962  1.2722 -0.5535
16946TIP3   OH272252   0.169   3.185  16.322  0.7082 -0.2881 -0.5081
16946TIP3    H172253   0.148   3.182  16.415  0.4089  0.1314 -0.5595
16946TIP3    H272254   0.214   3.102  16.305 -2.5528 -2.2130 -0.7885
16947TIP3   OH272255   2.945   3.078  11.646  0.4313 -0.1934 -0.2066
16947TIP3    H172256   2.940   2.986  11.669 -1.0083  0.1600  1.0807
16947TIP3    H272257   2.910   3.083  11.556  0.0038 -0.8410 -0.0828
16948TIP3   OH272258   1.646   4.040  12.736  0.1192 -0.0750  0.2287
16948TIP3    H172259   1.652   4.109  12.670 -0.1093  0.4270  0.7271
16948TIP3    H272260   1.662   3.959  12.687 -1.6898  0.1075 -0.7805
16949TIP3   OH272261   3.331   1.593  10.830 -0.2525  0.3428  0.3142
16949TIP3    H172262   3.376   1.604  10.746  0.7167  1.2321  0.9224
16949TIP3    H272263   3.325   1.681  10.867  2.5966 -0.3194  2.7786
16950TIP3   OH272264   3.472   5.812  11.667 -0.8623 -0.1774  0.8768
16950TIP3    H172265   3.531   5.801  11.593 -2.4008 -0.9470 -0.2883
16950TIP3    H272266   3.521   5.779  11.742  0.6351  0.3899  0.1854
16951TIP3   OH272267   4.513   2.888  11.955 -0.3109  0.2550  0.0956
16951TIP3    H172268   4.480   2.896  12.044  0.2063 -0.4055  0.3573
16951TIP3    H272269   4.549   2.975  11.935 -0.8732  0.5489  0.3411
16952TIP3   OH272270   2.837   4.911   2.518  0.1788 -0.2296  0.2554
16952TIP3    H172271   2.877   4.997   2.501 -0.5467  0.0295 -0.1951
16952TIP3    H272272   2.834   4.869   2.433 -1.0748  0.0129  0.1596
16953TIP3   OH272273   5.374   2.882   6.577 -0.0438 -0.0946  0.5459
16953TIP3    H172274   5.413   2.968   6.565  1.8498 -0.8620  0.7734
16953TIP3    H272275   5.449   2.823   6.586 -1.2649 -1.8789 -0.3771
16954TIP3   OH272276   2.858   5.501   0.645 -0.4345  0.2617  0.2479
16954TIP3    H172277   2.804   5.544   0.578 -0.6972 -0.1493  0.1948
16954TIP3    H272278   2.860   5.564   0.717  0.0514  0.8127 -0.2326
16955TIP3   OH272279   5.851   4.575  10.966  0.4244  0.1501  0.2015
16955TIP3    H172280   5.913   4.581  10.894  1.3014 -0.8310  0.8574
16955TIP3    H272281   5.897   4.611  11.042  1.3722 -3.2241  1.3921
16956TIP3   OH272282   2.629   3.136   0.348  0.4226 -0.2589  0.9862
16956TIP3    H172283   2.649   3.175   0.434 -1.2150  2.2011  0.3576
16956TIP3    H272284   2.548   3.088   0.362 -0.0760  0.4972  0.7591
16957TIP3   OH272285   5.701   6.001  11.462  0.1649 -0.4096 -0.2342
16957TIP3    H172286   5.645   5.969  11.392  1.0051 -0.1023 -1.0663
16957TIP3    H272287   5.787   5.962  11.444  0.1877 -1.0902  1.1649
16958TIP3   OH272288   0.993   5.129  15.369 -0.2148 -0.6036  0.1722
16958TIP3    H172289   1.081   5.122  15.405 -0.5937 -1.1428  1.0342
16958TIP3    H272290   0.941   5.166  15.441 -0.5555  0.3979 -0.5643
16959TIP3   OH272291   5.909   3.921   3.302  0.4171  0.0889 -0.0994
16959TIP3    H172292   5.829   3.922   3.250  1.0505  1.9045 -1.1011
16959TIP3    H272293   5.954   3.841   3.276 -1.1292 -1.0654  0.6307
16960TIP3   OH272294   1.988   4.674  13.135  0.0964  0.3421 -0.5604
16960TIP3    H172295   1.910   4.668  13.081  0.9850 -0.4047 -1.8120
16960TIP3    H272296   1.968   4.743  13.199 -1.5260  0.2279 -0.9025
16961TIP3   OH272297   4.869   5.447   4.076 -0.0179 -1.0196  0.2280
16961TIP3    H172298   4.878   5.411   3.988  0.0161 -0.8651  0.1672
16961TIP3    H272299   4.940   5.511   4.082  1.0871 -2.2738  0.9887
16962TIP3   OH272300   5.370   5.985  14.498  0.5226 -0.1319  0.2604
16962TIP3    H172301   5.423   5.937  14.434  0.4470 -2.1502  1.6119
16962TIP3    H272302   5.377   5.933  14.579 -1.5738  0.8224  1.1354
16963TIP3   OH272303   4.727   2.459  15.726  0.2811 -0.7307  0.0775
16963TIP3    H172304   4.821   2.479  15.729  0.3920 -1.2841  0.4511
16963TIP3    H272305   4.706   2.457  15.633  0.2819  0.9917  0.0113
16964TIP3   OH272306   6.506   2.150  16.511  0.2796 -0.7808 -0.0355
16964TIP3    H172307   6.428   2.177  16.465  1.2875 -1.6932 -2.4336
16964TIP3    H272308   6.481   2.067  16.554  0.3255 -1.9717 -2.1864
16965TIP3   OH272309   3.292   2.816  12.336  0.3832  0.1978 -0.3658
16965TIP3    H172310   3.373   2.810  12.386  0.4881  0.2185 -0.5317
16965TIP3    H272311   3.225   2.779  12.394  0.5705 -0.1410 -0.3616
16966TIP3   OH272312   0.024   4.608  15.177  0.1915 -0.2248 -0.1029
16966TIP3    H172313   0.047   4.667  15.249  0.0961  0.2053 -0.4192
16966TIP3    H272314  -0.056   4.647  15.140  0.0978 -0.5868 -0.2795
16967TIP3   OH272315   6.371   4.602  16.867 -0.7271 -0.2254  0.9019
16967TIP3    H172316   6.423   4.682  16.860 -1.2432  0.1364  1.1229
16967TIP3    H272317   6.280   4.631  16.854 -0.7337 -1.1321 -1.5594
16968TIP3   OH272318   5.123   0.827   3.792 -0.3927  0.3013 -0.0555
16968TIP3    H172319   5.046   0.884   3.792 -0.0997  0.7442 -1.3924
16968TIP3    H272320   5.197   0.887   3.804 -0.0850  0.2328 -1.4126
16969TIP3   OH272321   3.077   6.679  16.349  0.4731  0.0556  0.1692
16969TIP3    H172322   3.164   6.656  16.315  0.3580 -0.4436  0.2176
16969TIP3    H272323   3.095   6.731  16.427  0.7339  0.4202 -0.1269
16970TIP3   OH272324   4.935   1.620  13.941 -0.7294  0.0720  0.1348
16970TIP3    H172325   4.927   1.701  13.991 -1.0397 -0.7823  1.5102
16970TIP3    H272326   4.877   1.558  13.985  1.3197 -1.6203  0.6403
16971TIP3   OH272327   0.968   6.748  16.832 -0.1245  0.1963 -0.3366
16971TIP3    H172328   0.965   6.656  16.858 -1.7041  0.1128 -0.7533
16971TIP3    H272329   0.963   6.746  16.737  0.4700  0.7064 -0.3874
16972TIP3   OH272330   2.999   1.949  12.912  0.2247 -0.2436 -0.1202
16972TIP3    H172331   2.998   2.017  12.845  2.5418 -0.3355 -0.3400
16972TIP3    H272332   3.043   1.875  12.870 -0.4824 -1.1832  0.7443
16973TIP3   OH272333   1.812   0.583   1.626 -0.1190 -0.4822  0.0747
16973TIP3    H172334   1.739   0.524   1.642  0.1434 -1.0006 -0.5657
16973TIP3    H272335   1.772   0.667   1.605 -0.5421 -0.8565 -0.6365
16974TIP3   OH272336   1.291   2.982   2.136  0.6596 -0.5896  0.1840
16974TIP3    H172337   1.224   3.047   2.158  1.0245  0.6617 -2.0354
16974TIP3    H272338   1.269   2.905   2.188 -0.5564  0.8799  1.9599
16975TIP3   OH272339   4.057   3.876  15.069 -0.6377  0.0968  1.0309
16975TIP3    H172340   4.024   3.787  15.056  2.4924 -1.1567  0.5303
16975TIP3    H272341   4.067   3.911  14.981 -2.7506  1.3932  1.2531
16976TIP3   OH272342   5.787   1.232   0.401 -0.2804  0.4745  0.3455
16976TIP3    H172343   5.799   1.146   0.442 -1.9180 -1.1806 -2.3826
16976TIP3    H272344   5.719   1.274   0.454 -1.8543 -1.3157 -0.1650
16977TIP3   OH272345   4.191   3.687   1.407 -0.3373  0.1251 -0.4576
16977TIP3    H172346   4.270   3.741   1.405  1.3444 -2.1654  0.3670
16977TIP3    H272347   4.146   3.711   1.488  0.8431 -0.2968  0.3346
16978TIP3   OH272348   6.116   1.011  15.264 -0.1741  0.2531  0.2653
16978TIP3    H172349   6.154   0.928  15.289  2.6541  1.6063  0.8581
16978TIP3    H272350   6.092   1.000  15.172  3.4397 -0.2184 -0.7375
16979TIP3   OH272351   4.286   3.158   1.134  0.2148 -0.2603  0.0178
16979TIP3    H172352   4.249   3.143   1.047 -0.5021  0.1193  0.2513
16979TIP3    H272353   4.231   3.226   1.173  0.2314 -0.7628  0.9569
16980TIP3   OH272354   3.585   4.991   3.953  0.1768 -0.4898  0.0407
16980TIP3    H172355   3.547   4.938   4.022  0.6367 -2.9478 -1.4609
16980TIP3    H272356   3.576   4.938   3.874  2.4236  0.8478 -1.2272
16981TIP3   OH272357   2.241   0.732   3.208  0.2722 -0.6334 -0.0461
16981TIP3    H172358   2.289   0.676   3.146 -0.7335 -0.2097 -1.2523
16981TIP3    H272359   2.183   0.784   3.153 -0.8496 -0.4123  1.2816
16982TIP3   OH272360   1.062   1.389  15.757  0.3323  0.7634 -0.2123
16982TIP3    H172361   0.992   1.452  15.776 -0.8192  0.0140 -1.7515
16982TIP3    H272362   1.022   1.303  15.772  1.3979  0.3330  0.2985
16983TIP3   OH272363   2.683   1.178   2.805 -0.5770 -0.1164  0.5012
16983TIP3    H172364   2.763   1.208   2.848  0.6639 -2.6072  0.1499
16983TIP3    H272365   2.634   1.132   2.873 -0.6117 -0.5035  0.2240
16984TIP3   OH272366   3.243   2.374   1.842  0.3397 -0.4362 -0.2867
16984TIP3    H172367   3.176   2.309   1.824  0.3350 -0.5918  0.2709
16984TIP3    H272368   3.233   2.394   1.935  0.5060  0.1732 -0.3965
16985TIP3   OH272369   1.034   5.590  17.111 -0.0767  0.3273  0.2221
16985TIP3    H172370   1.001   5.530  17.045  1.3100 -0.1036 -0.1099
16985TIP3    H272371   1.112   5.629  17.072  1.4010 -0.7128  1.9224
16986TIP3   OH272372   2.338   2.757   0.900  0.0897  0.0324  0.7435
16986TIP3    H172373   2.410   2.732   0.842  0.2044 -0.1710  0.9703
16986TIP3    H272374   2.353   2.850   0.919  0.4542 -0.0792  1.0142
16987TIP3   OH272375   5.087   5.353  12.359 -0.3489  0.0559 -0.1095
16987TIP3    H172376   5.111   5.260  12.356  0.4248  0.2719 -2.1803
16987TIP3    H272377   5.161   5.399  12.320 -1.0878  1.4858  0.0826
16988TIP3   OH272378   1.275   2.838  14.814 -0.0642 -0.0137  0.7215
16988TIP3    H172379   1.333   2.806  14.883  0.8722 -0.3719 -0.2050
16988TIP3    H272380   1.329   2.900  14.765 -0.9770  0.8769  0.7863
16989TIP3   OH272381   3.243   4.727   1.387 -1.0331  0.2971 -0.2161
16989TIP3    H172382   3.254   4.649   1.332  1.0468 -0.1550  0.7536
16989TIP3    H272383   3.261   4.801   1.329 -1.6551 -0.0095 -0.8099
16990TIP3   OH272384   4.746   1.438   2.288  0.2841  0.6119 -0.2169
16990TIP3    H172385   4.672   1.448   2.229 -1.4233 -2.1425  1.2265
16990TIP3    H272386   4.761   1.525   2.324 -0.1097  1.8781 -2.8937
16991TIP3   OH272387   2.164   3.846  16.281  0.0955  0.2027  0.1702
16991TIP3    H172388   2.078   3.860  16.240  0.0399 -1.2117 -0.2410
16991TIP3    H272389   2.225   3.843  16.207  0.2389 -0.6166  0.3149
16992TIP3   OH272390   3.051   5.765  14.162 -0.0990 -0.1581  0.0901
16992TIP3    H172391   3.137   5.798  14.186  0.6162 -1.9899  0.2080
16992TIP3    H272392   3.058   5.748  14.068 -0.7841  0.9083 -0.1727
16993TIP3   OH272393   4.708   6.411   0.992 -0.7305 -0.2466  0.0604
16993TIP3    H172394   4.691   6.453   0.907  0.4529 -1.2299 -0.7009
16993TIP3    H272395   4.804   6.403   0.996 -0.8124 -0.8867  1.1651
16994TIP3   OH272396   3.192   6.662   6.249  0.4367 -0.6391  0.3509
16994TIP3    H172397   3.242   6.589   6.286 -0.1169 -0.3052  1.8145
16994TIP3    H272398   3.230   6.740   6.290 -0.5386 -0.3027  0.6391
16995TIP3   OH272399   0.334   2.805  11.697  0.9605 -0.1092  0.6260
16995TIP3    H172400   0.405   2.849  11.742  0.6934  1.9549 -0.8495
16995TIP3    H272401   0.373   2.725  11.662  2.0214  0.0011  1.5138
16996TIP3   OH272402   0.505   3.920  15.971 -0.1807 -0.8518  0.2077
16996TIP3    H172403   0.594   3.896  15.944 -0.0651  0.4291 -0.6713
16996TIP3    H272404   0.465   3.954  15.891 -1.7203 -2.0759  0.4295
16997TIP3   OH272405   6.233   0.474   2.580 -0.1438  0.0231  0.0548
16997TIP3    H172406   6.240   0.430   2.665  1.0239  0.2458  0.0981
16997TIP3    H272407   6.176   0.418   2.528 -0.2098 -0.5430  0.7304
16998TIP3   OH272408   2.789   1.196  14.466  0.2641  0.1237 -0.0688
16998TIP3    H172409   2.744   1.173  14.548 -0.0938 -0.5107 -0.4422
16998TIP3    H272410   2.841   1.119  14.445  0.5540  0.3836 -0.3119
16999TIP3   OH272411   4.743   1.476   5.475 -0.0857 -0.3630  0.1771
16999TIP3    H172412   4.660   1.522   5.481 -0.2757  0.0760 -3.6181
16999TIP3    H272413   4.781   1.483   5.563 -3.0921  1.1740  1.4835
17000TIP3   OH272414   6.270   1.360   2.100  0.1180  0.4270 -0.2831
17000TIP3    H172415   6.190   1.316   2.132 -0.0515  0.3547 -0.7914
17000TIP3    H272416   6.340   1.326   2.156  0.0043 -0.5850 -0.7373
17001TIP3   OH272417   1.963   3.686  12.999 -0.2389  0.2637  0.1206
17001TIP3    H172418   1.942   3.650  12.913  2.5266 -0.0575 -0.5027
17001TIP3    H272419   2.003   3.771  12.979 -0.7182  0.7532  1.1918
17002TIP3   OH272420   2.015   6.435  12.299  0.7261  0.1601 -0.5090
17002TIP3    H172421   1.963   6.499  12.347 -0.1619  1.0589 -2.5802
17002TIP3    H272422   2.104   6.472  12.300  0.6444  0.3562  0.0874
17003TIP3   OH272423   0.595   5.342  15.282 -0.4054 -0.0258 -0.0704
17003TIP3    H172424   0.641   5.295  15.351  0.5792 -1.2258 -1.4957
17003TIP3    H272425   0.606   5.435  15.305 -0.8206 -0.3953  1.7888
17004TIP3   OH272426   2.413   5.642  12.586  0.1359 -0.0499 -0.2035
17004TIP3    H172427   2.352   5.576  12.553 -0.3119  1.4128 -2.4838
17004TIP3    H272428   2.496   5.622  12.543  0.9495 -1.1240  1.7407
17005TIP3   OH272429   0.399   6.537   5.729  0.7093 -0.4737 -0.2812
17005TIP3    H172430   0.353   6.616   5.699  1.9959 -0.0265 -1.1327
17005TIP3    H272431   0.452   6.567   5.803 -1.9025 -1.4275  2.1586
17006TIP3   OH272432   0.018   0.752  11.922  0.0399  0.3692  0.4014
17006TIP3    H172433   0.013   0.846  11.942 -1.1403  0.4270 -0.1154
17006TIP3    H272434  -0.073   0.724  11.916  0.3848 -0.6345 -0.2946
17007TIP3   OH272435   0.011   6.243  14.783  0.6101  0.3091  0.4905
17007TIP3    H172436  -0.036   6.242  14.699 -0.3598  3.2908  0.8837
17007TIP3    H272437  -0.042   6.187  14.840  1.1061 -1.4921 -0.7241
17008TIP3   OH272438   4.108   0.885  12.504  0.2188  0.3070 -0.2747
17008TIP3    H172439   4.027   0.838  12.485  0.2022 -0.1729  0.8471
17008TIP3    H272440   4.085   0.944  12.576  1.1216 -0.7071  0.8902
17009TIP3   OH272441   0.727   4.307  16.006  0.3201  0.1924  0.5090
17009TIP3    H172442   0.632   4.301  16.022  0.5764  0.2627  2.2525
17009TIP3    H272443   0.766   4.261  16.080  1.6694  0.5832  0.0546
17010TIP3   OH272444   4.135   1.159   5.675 -0.6089 -0.0831  0.6692
17010TIP3    H172445   4.092   1.222   5.618  0.5069 -1.6095 -2.0466
17010TIP3    H272446   4.219   1.200   5.697 -0.9557  0.4284  1.0611
17011TIP3   OH272447   6.585   6.550  16.097  0.5686  0.3358  0.5699
17011TIP3    H172448   6.639   6.616  16.054  1.7267 -0.4256  0.8031
17011TIP3    H272449   6.602   6.470  16.048 -0.8160  0.1771  0.2899
17012TIP3   OH272450   0.447   5.709  15.039 -0.0397  0.2087 -0.1215
17012TIP3    H172451   0.503   5.785  15.025 -1.0856  1.0755  0.2107
17012TIP3    H272452   0.491   5.637  14.994  0.6552  1.1520 -0.9920
17013TIP3   OH272453   3.070   2.332   4.661 -0.3491  0.3827  0.5972
17013TIP3    H172454   3.101   2.423   4.667 -0.5089  0.4802  0.0256
17013TIP3    H272455   3.045   2.322   4.569 -1.4936  0.1370  0.9226
17014TIP3   OH272456   2.900   4.459   4.116  0.5158  0.5960 -0.0142
17014TIP3    H172457   2.973   4.508   4.077  0.5638  0.6627  0.1582
17014TIP3    H272458   2.843   4.439   4.042  1.7595 -1.3380 -0.5226
17015TIP3   OH272459   2.195   1.578   4.239 -0.3499 -0.2815 -0.5326
17015TIP3    H172460   2.259   1.603   4.172 -2.0664  0.7081 -1.8805
17015TIP3    H272461   2.180   1.658   4.289 -1.3308 -0.1966 -0.9416
17016TIP3   OH272462   1.621   6.671  10.529 -0.2690  0.4673  0.4734
17016TIP3    H172463   1.703   6.656  10.481  0.3053 -1.3352  1.8899
17016TIP3    H272464   1.587   6.753  10.494  1.7574  0.8725 -0.6987
17017TIP3   OH272465   2.125   2.116  12.428 -0.1114 -0.2392  0.4167
17017TIP3    H172466   2.042   2.072  12.411  0.9564 -2.0963 -0.1921
17017TIP3    H272467   2.181   2.050  12.468  1.3392  0.7420  0.1202
17018TIP3   OH272468   6.069   5.512  13.154 -0.3963 -0.3115 -0.2419
17018TIP3    H172469   6.137   5.449  13.173  1.7394  0.6087 -3.9053
17018TIP3    H272470   6.093   5.589  13.206 -0.1541 -0.8227  0.4252
17019TIP3   OH272471   3.645   0.020   2.973 -0.3101 -0.1428 -0.1956
17019TIP3    H172472   3.690   0.055   2.897 -0.0732  3.8065  1.4782
17019TIP3    H272473   3.552   0.028   2.952 -0.2445  0.8854 -0.1693
17020TIP3   OH272474   4.766   0.063  16.454 -0.1338  0.6453  0.9254
17020TIP3    H172475   4.734   0.062  16.544 -0.4221 -0.1999  0.8188
17020TIP3    H272476   4.689   0.041  16.401  0.0088  1.2323  0.4614
17021TIP3   OH272477   4.667   0.660  13.565 -0.0300 -0.1672  0.7470
17021TIP3    H172478   4.588   0.607  13.557 -0.5266  0.5054  1.2033
17021TIP3    H272479   4.636   0.748  13.584  0.8471 -0.1289  2.1347
17022TIP3   OH272480   5.669   5.722  12.660 -0.3572 -0.1351  0.2157
17022TIP3    H172481   5.683   5.739  12.567  1.1182  0.4200  0.5060
17022TIP3    H272482   5.742   5.664  12.685 -0.2042  0.4511  1.2046
17023TIP3   OH272483   2.555   6.383   3.381  0.2868 -0.6754 -0.3854
17023TIP3    H172484   2.561   6.479   3.386  0.9947 -0.6931 -0.7691
17023TIP3    H272485   2.515   6.358   3.464  1.4825 -0.1461  0.3825
17024TIP3   OH272486   5.989   6.497   3.632  0.4335 -0.1305 -0.5017
17024TIP3    H172487   5.893   6.492   3.631  0.2612  1.9912  0.2151
17024TIP3    H272488   6.013   6.528   3.545  0.3237  0.8013 -0.2126
17025TIP3   OH272489   4.905   4.907   4.617  0.3286 -0.7691  0.0359
17025TIP3    H172490   4.855   4.985   4.595  0.3144 -0.2906  1.6842
17025TIP3    H272491   4.992   4.923   4.580  0.6426  0.5247  1.2583
17026TIP3   OH272492   5.521   2.114   0.077  0.2280 -0.2340  0.5836
17026TIP3    H172493   5.451   2.049   0.068 -0.8798  0.7755  1.5679
17026TIP3    H272494   5.531   2.150  -0.011 -1.8888  0.9506  0.7496
17027TIP3   OH272495   2.525   1.340  11.779  0.0870 -0.4801 -0.1468
17027TIP3    H172496   2.483   1.259  11.809  0.2299 -0.8496 -0.9171
17027TIP3    H272497   2.497   1.406  11.842 -0.7614 -0.9412 -0.0210
17028TIP3   OH272498   3.386   1.233  12.632  0.3596  0.5371 -0.2704
17028TIP3    H172499   3.370   1.325  12.654 -1.7581  0.4257 -1.0827
17028TIP3    H272500   3.379   1.187  12.715 -1.9725  0.7601 -0.2855
17029TIP3   OH272501   5.402   6.750  13.451 -0.3959  0.1790  0.2249
17029TIP3    H172502   5.467   6.683  13.430 -0.9115 -0.1151 -0.5013
17029TIP3    H272503   5.334   6.738  13.384 -0.9334  0.8278  0.6478
17030TIP3   OH272504   0.103   4.518   2.881 -0.1623 -0.0295 -0.2990
17030TIP3    H172505   0.092   4.482   2.969  0.3240  0.9206  0.1649
17030TIP3    H272506   0.164   4.591   2.893 -0.7929  0.6720 -1.2725
17031TIP3   OH272507   1.063   5.199   5.184  0.7346  0.6427  0.3270
17031TIP3    H172508   1.117   5.272   5.152  0.4995  1.0954  0.9520
17031TIP3    H272509   1.126   5.129   5.201  0.7476 -0.1290 -2.4226
17032TIP3   OH272510   1.564   4.727   0.277  0.1174  0.2670  0.8406
17032TIP3    H172511   1.540   4.754   0.365  0.6504  0.3905  0.9517
17032TIP3    H272512   1.516   4.787   0.219  0.6047  0.8874  1.0679
17033TIP3   OH272513   2.118   0.213  12.527 -0.1037  0.9176  0.4216
17033TIP3    H172514   2.051   0.262  12.478 -0.6479  0.6973  0.9298
17033TIP3    H272515   2.144   0.273  12.598 -0.3478  0.6963  0.6994
17034TIP3   OH272516   0.810   1.876   3.751  0.3200 -0.1416 -0.0294
17034TIP3    H172517   0.876   1.811   3.775 -0.3421 -0.7321  0.2305
17034TIP3    H272518   0.741   1.866   3.817  0.4240  1.1566  0.2842
17035TIP3   OH272519   4.552   0.146   0.592  0.1631  0.2609 -0.0301
17035TIP3    H172520   4.571   0.069   0.646 -2.9419 -0.9679 -0.4908
17035TIP3    H272521   4.514   0.209   0.653 -0.9893 -0.1403 -0.3234
17036TIP3   OH272522   2.895   2.117   5.506  0.0512 -0.1213 -0.4478
17036TIP3    H172523   2.895   2.113   5.410 -1.7849  2.5533 -0.6510
17036TIP3    H272524   2.803   2.120   5.530  0.4712 -1.2417  1.4988
17037TIP3   OH272525   3.892   6.667   0.350 -0.3007  0.0622  0.0134
17037TIP3    H172526   3.933   6.653   0.435 -1.1576 -0.4117  0.3642
17037TIP3    H272527   3.859   6.757   0.354 -0.0940  0.1360  0.0755
17038TIP3   OH272528   6.498   0.464   2.849 -0.1644 -0.2300 -0.2428
17038TIP3    H172529   6.486   0.529   2.919  2.4164 -0.2706  0.3509
17038TIP3    H272530   6.521   0.517   2.773 -1.8179 -0.2641 -0.7991
17039TIP3   OH272531   0.396   3.996   6.373 -0.5036  0.2433 -0.1247
17039TIP3    H172532   0.475   4.034   6.336 -0.7565  0.0276 -0.9011
17039TIP3    H272533   0.329   4.010   6.306 -1.0616  0.2005  0.4189
17040TIP3   OH272534   0.891   2.972   1.448  0.0195  0.3085  0.5249
17040TIP3    H172535   0.801   2.980   1.479  0.5412  0.5973  2.0436
17040TIP3    H272536   0.914   2.881   1.467 -0.1082  0.0824 -0.3547
17041TIP3   OH272537   0.010   5.866   4.485  0.4167  0.0498 -0.3611
17041TIP3    H172538  -0.015   5.852   4.394 -0.8121 -0.4678  0.0309
17041TIP3    H272539  -0.022   5.954   4.505  0.1100 -0.0810 -0.2590
17042TIP3   OH272540   2.442   6.066  16.870  0.0907  0.2343 -0.0011
17042TIP3    H172541   2.475   6.154  16.886 -0.7980  0.3623  1.2875
17042TIP3    H272542   2.519   6.016  16.844  0.4207  1.6281 -1.9056
17043TIP3   OH272543   4.905   5.604  13.413  0.3918  0.1321  0.8398
17043TIP3    H172544   4.826   5.572  13.369  1.5059  0.7466 -1.8491
17043TIP3    H272545   4.942   5.526  13.455  0.3737 -1.0757 -1.2252
17044TIP3   OH272546   0.813   5.963  15.900 -0.2028 -0.0020 -0.0443
17044TIP3    H172547   0.759   5.999  15.969  0.5930 -0.2442  0.7226
17044TIP3    H272548   0.863   5.893  15.942 -1.6938 -2.0449 -1.4751
17045TIP3   OH272549   1.353   1.423  12.882  0.1965  0.3825 -0.1815
17045TIP3    H172550   1.445   1.406  12.860 -0.1968 -0.0898 -1.5865
17045TIP3    H272551   1.312   1.444  12.798 -1.1515 -0.2375  0.2907
17046TIP3   OH272552   5.764   6.345  15.944 -0.3813  0.2467 -0.1011
17046TIP3    H172553   5.714   6.358  16.024 -1.8215 -2.1964 -0.4925
17046TIP3    H272554   5.788   6.252  15.945  1.4769  0.6274 -1.4820
17047TIP3   OH272555   0.531   5.846   5.073 -0.0717  0.0789  0.2062
17047TIP3    H172556   0.604   5.866   5.015  0.0101  0.6660  0.5034
17047TIP3    H272557   0.511   5.754   5.056 -0.5863  0.4413 -1.3401
17048TIP3   OH272558   6.443   4.068  11.005  0.0845  0.6811  0.3026
17048TIP3    H172559   6.395   4.039  11.082  2.1595  1.1906  1.8942
17048TIP3    H272560   6.436   4.163  11.006 -0.8478  0.6409 -0.8429
17049TIP3   OH272561   6.188   5.141  16.765  0.7014  0.8637 -0.0487
17049TIP3    H172562   6.227   5.228  16.757  0.3456  1.1745  1.3643
17049TIP3    H272563   6.101   5.150  16.726  1.0494  0.8401 -0.8632
17050TIP3   OH272564   2.275   1.116   1.994  0.3234  0.2463  0.2936
17050TIP3    H172565   2.185   1.148   1.993 -0.1567 -0.9609 -2.2486
17050TIP3    H272566   2.319   1.166   1.926  1.2078 -0.1244  0.5794
17051TIP3   OH272567   5.291   6.353   3.464  0.2427  0.0764  0.0572
17051TIP3    H172568   5.235   6.340   3.541 -0.5803  0.8998 -0.3861
17051TIP3    H272569   5.261   6.435   3.426  2.0821  0.8056  0.0750
17052TIP3   OH272570   3.000   5.934   3.754  0.3760  0.1196  0.7808
17052TIP3    H172571   2.921   5.952   3.703  0.5511  0.5543  0.6524
17052TIP3    H272572   3.020   6.018   3.797  1.0926  0.1787  0.3487
17053TIP3   OH272573   2.389   3.050  13.092  0.0572  0.3060 -0.5482
17053TIP3    H172574   2.313   3.059  13.149  1.1317 -0.6759  1.1326
17053TIP3    H272575   2.399   3.136  13.051 -0.5061  1.2105  1.1205
17054TIP3   OH272576   5.399   3.066   3.527 -0.2213  0.1983  0.3344
17054TIP3    H172577   5.413   2.993   3.467  1.5078  1.3508 -0.7558
17054TIP3    H272578   5.327   3.037   3.583 -1.1090 -1.4260 -1.4976
17055TIP3   OH272579   1.929   0.918   0.611 -0.4864 -0.5034  0.0588
17055TIP3    H172580   1.920   1.014   0.614  0.6315 -0.3636 -0.5738
17055TIP3    H272581   1.957   0.894   0.699  0.0078 -0.1532  0.0011
17056TIP3   OH272582   3.048   4.589   2.840  0.6644 -0.2684  0.3131
17056TIP3    H172583   3.035   4.683   2.823  1.1115 -0.4518 -1.1801
17056TIP3    H272584   3.138   4.573   2.815  0.6258 -1.0935  0.6779
17057TIP3   OH272585   4.732   3.501  16.151  0.5140  0.0405  0.1717
17057TIP3    H172586   4.780   3.463  16.079 -1.0423  1.0058 -1.4600
17057TIP3    H272587   4.757   3.449  16.227  2.5636 -0.6991 -0.9398
17058TIP3   OH272588   4.015   0.557   1.809 -0.2016 -0.2014  0.3101
17058TIP3    H172589   3.960   0.603   1.746 -1.0860  0.9875  1.8725
17058TIP3    H272590   4.002   0.465   1.790  0.6149  0.1249 -2.0902
17059TIP3   OH272591   6.718   6.699  16.388 -0.3980  0.3328 -0.5335
17059TIP3    H172592   6.727   6.607  16.413 -0.1425  0.6061  0.4247
17059TIP3    H272593   6.625   6.710  16.371 -0.2351 -0.4916 -2.3297
17060TIP3   OH272594   6.318   2.037   3.177 -1.3850 -0.4837 -0.4794
17060TIP3    H172595   6.412   2.043   3.197 -1.0003  0.7118 -2.3220
17060TIP3    H272596   6.313   1.972   3.107 -2.1308 -1.5382  0.5300
17061TIP3   OH272597   2.227   0.574   2.108  0.5161  0.2466 -0.0797
17061TIP3    H172598   2.218   0.651   2.051  0.0464  0.3228  0.0882
17061TIP3    H272599   2.235   0.500   2.048 -0.6017  0.2541 -0.2583
17062TIP3   OH272600   1.535   4.241   2.444 -0.0887 -0.0707  0.5525
17062TIP3    H172601   1.608   4.181   2.457  1.8155  1.7737 -0.9412
17062TIP3    H272602   1.463   4.185   2.415  1.3454 -1.7057 -0.0408
17063TIP3   OH272603   2.450   6.483   5.040  0.1012 -0.0213  0.4502
17063TIP3    H172604   2.423   6.564   5.083  1.1314  0.5373  0.0931
17063TIP3    H272605   2.460   6.507   4.948  2.0361 -0.0952  0.5927
17064TIP3   OH272606   6.015   2.763   1.859  0.3693  0.1140  0.3373
17064TIP3    H172607   6.091   2.712   1.888  3.7500  5.2506  1.9798
17064TIP3    H272608   5.981   2.802   1.940 -0.8351  1.8020 -0.9141
17065TIP3   OH272609   4.007   0.440  14.368  0.4156 -0.3195 -0.1279
17065TIP3    H172610   4.015   0.534  14.349 -2.1697 -0.2354 -1.1562
17065TIP3    H272611   4.015   0.435  14.463 -0.1399  1.0570  0.0209
17066TIP3   OH272612   6.381   3.476  14.835  0.3125  0.4492  0.0679
17066TIP3    H172613   6.446   3.545  14.847 -0.7382  1.2920  1.1758
17066TIP3    H272614   6.301   3.522  14.811 -0.5046 -0.3311  1.2167
17067TIP3   OH272615   2.904   0.364   2.327 -0.5278  0.0019  0.1054
17067TIP3    H172616   2.840   0.364   2.256  0.9995  0.0816 -1.3317
17067TIP3    H272617   2.884   0.443   2.377 -1.7467 -0.1566 -0.0884
17068TIP3   OH272618   5.736   0.049   5.731 -0.1594  0.1569  0.0033
17068TIP3    H172619   5.716  -0.028   5.678  0.1574 -1.0593  1.5934
17068TIP3    H272620   5.656   0.065   5.781  0.4097 -0.3286  1.0869
17069TIP3   OH272621   2.155   5.431  14.417 -0.3127 -0.2640 -0.4139
17069TIP3    H172622   2.111   5.370  14.476  0.0867 -0.8134 -0.6780
17069TIP3    H272623   2.119   5.516  14.440 -2.8929 -0.8480 -1.7629
17070TIP3   OH272624   1.309   3.878   1.245  0.2758  0.3198  0.4136
17070TIP3    H172625   1.346   3.892   1.158 -1.4611 -0.5206 -0.5163
17070TIP3    H272626   1.377   3.830   1.293 -0.0715 -2.5527 -1.7079
17071TIP3   OH272627   1.770   1.586   1.119 -0.3957 -0.3070 -0.1636
17071TIP3    H172628   1.729   1.522   1.177  0.5855 -0.7537  0.0586
17071TIP3    H272629   1.740   1.671   1.150  0.8899 -0.4626  1.6686
17072TIP3   OH272630   5.303   5.825   1.567  0.5894  0.4431  0.5133
17072TIP3    H172631   5.225   5.776   1.594  0.6909 -1.4202 -2.2113
17072TIP3    H272632   5.269   5.903   1.523  0.2002 -0.4700 -0.8608
17073TIP3   OH272633   6.748   0.421  12.626 -0.0726  0.3694  0.6202
17073TIP3    H172634   6.663   0.398  12.664 -0.4782 -0.8199 -0.8880
17073TIP3    H272635   6.728   0.442  12.535  1.5003 -2.1958 -0.4040
17074TIP3   OH272636   3.935   3.344  14.299  0.7237 -0.0000  0.4374
17074TIP3    H172637   3.918   3.261  14.253 -2.3427 -1.3198  3.4645
17074TIP3    H272638   4.014   3.327  14.351  0.2090 -1.0534  0.9194
17075TIP3   OH272639   1.439   6.375  15.705  0.6995 -0.3679  0.3366
17075TIP3    H172640   1.388   6.300  15.676 -0.0617  0.7651 -1.3981
17075TIP3    H272641   1.523   6.365  15.660 -0.3354  1.1650 -2.1659
17076TIP3   OH272642   1.779   1.076  13.140 -0.2330 -0.3330 -0.1539
17076TIP3    H172643   1.780   1.062  13.045 -0.2138 -1.0004 -0.0564
17076TIP3    H272644   1.737   0.998  13.176  0.4823 -0.4528  0.4467
17077TIP3   OH272645   4.062   2.802  16.116 -0.1322 -0.1130 -0.0850
17077TIP3    H172646   4.008   2.768  16.045  1.6171 -2.2669 -0.4864
17077TIP3    H272647   4.084   2.891  16.088 -2.6781  0.5264 -0.2932
17078TIP3   OH272648   1.322   0.730   5.185 -0.3396 -0.1937  0.1577
17078TIP3    H172649   1.255   0.764   5.243 -0.4193 -0.3709  0.1703
17078TIP3    H272650   1.394   0.793   5.191 -0.7396  0.3072 -0.3162
17079TIP3   OH272651   6.201   3.338   5.320  0.3396  0.5199  0.2395
17079TIP3    H172652   6.192   3.245   5.339  1.0297  0.5672  0.8466
17079TIP3    H272653   6.295   3.356   5.329  0.1196  1.4310  0.9196
17080TIP3   OH272654   1.013   1.650  10.282  0.9739 -0.0850  0.5317
17080TIP3    H172655   1.086   1.615  10.230  1.8073  1.5158  0.5546
17080TIP3    H272656   1.053   1.719  10.335 -0.3263 -0.0659  1.5367
17081TIP3   OH272657   6.640   1.008  13.891  0.1002 -0.4846 -0.4513
17081TIP3    H172658   6.581   0.939  13.923 -2.9870  1.9345 -0.3485
17081TIP3    H272659   6.658   1.061  13.969 -0.7621  0.8961 -1.1451
17082TIP3   OH272660   6.441   4.636  15.776 -0.7839 -0.1434  0.0618
17082TIP3    H172661   6.529   4.623  15.740  0.0325  1.0079  1.5086
17082TIP3    H272662   6.420   4.553  15.818  0.4650  0.1540  1.3680
17083TIP3   OH272663   4.945   4.469  12.929  0.1152  0.2459 -0.8546
17083TIP3    H172664   4.879   4.405  12.904  0.1357  0.4352 -1.3905
17083TIP3    H272665   4.925   4.489  13.021 -0.0644 -0.3104 -0.7705
17084TIP3   OH272666   4.477   6.085   1.309  0.3547 -0.4441  0.3814
17084TIP3    H172667   4.500   6.097   1.401 -2.1108  0.7613  0.9296
17084TIP3    H272668   4.549   6.126   1.261  0.6508  0.8610  1.8559
17085TIP3   OH272669   4.994   3.791  14.223 -0.0763 -0.6126  0.1633
17085TIP3    H172670   5.004   3.840  14.141 -1.4836  1.5396  1.2124
17085TIP3    H272671   5.082   3.785  14.259  0.1215  1.4960  0.1520
17086TIP3   OH272672   1.000   5.675  13.725 -0.7509  0.3172 -0.2885
17086TIP3    H172673   0.978   5.734  13.652 -2.0145  0.3497  0.0911
17086TIP3    H272674   0.955   5.593  13.703 -0.1363 -0.0736 -0.1275
17087TIP3   OH272675   5.652   5.243   4.210  0.3419  0.1791 -0.6862
17087TIP3    H172676   5.615   5.298   4.279  0.9911 -1.0827  0.7309
17087TIP3    H272677   5.619   5.281   4.129 -0.9342  1.3674  0.3340
17088TIP3   OH272678   0.491   4.978   0.089 -0.0623 -0.2829  0.4507
17088TIP3    H172679   0.444   4.904   0.052  0.0596  0.2596 -0.8244
17088TIP3    H272680   0.489   4.963   0.184 -0.8789 -1.3965  0.2685
17089TIP3   OH272681   1.237   0.915   3.126 -0.3859 -0.3983  0.6351
17089TIP3    H172682   1.155   0.934   3.080  0.3535  0.1581 -0.4874
17089TIP3    H272683   1.233   0.967   3.206 -0.9263 -0.0094  0.3607
17090TIP3   OH272684   2.905   0.785  12.302 -0.1430 -0.2129 -0.0054
17090TIP3    H172685   2.882   0.739  12.383 -0.4666  0.3511  0.2328
17090TIP3    H272686   2.872   0.874  12.316 -3.5845 -0.9387 -2.1919
17091TIP3   OH272687   5.872   0.774  15.046 -0.1355 -0.5395  0.6063
17091TIP3    H172688   5.877   0.691  14.999  1.0617 -0.7437  1.0675
17091TIP3    H272689   5.869   0.840  14.977 -0.6518 -0.9363  0.2373
17092TIP3   OH272690   1.765   1.149   4.770 -0.3494 -0.4733  0.2363
17092TIP3    H172691   1.761   1.234   4.813 -2.2029 -0.2785 -0.2060
17092TIP3    H272692   1.689   1.101   4.804 -0.7125 -1.0417 -1.2864
17093TIP3   OH272693   5.387   6.232  16.457  0.1324  0.0314 -0.4619
17093TIP3    H172694   5.332   6.306  16.481  1.4796  0.4355  1.5845
17093TIP3    H272695   5.476   6.262  16.471  0.7317 -1.8378  0.0722
17094TIP3   OH272696   1.481   0.455  11.211  0.5410 -0.9243 -0.1942
17094TIP3    H172697   1.453   0.411  11.291 -1.1463  0.6764  0.1520
17094TIP3    H272698   1.436   0.408  11.141 -1.2542  0.1801  0.1719
17095TIP3   OH272699   1.521   3.556   1.383 -1.2971  0.2637  0.3255
17095TIP3    H172700   1.468   3.587   1.457  0.6668  0.0415  1.9244
17095TIP3    H272701   1.610   3.582   1.405 -0.2662 -2.1277 -0.6694
17096TIP3   OH272702   6.433   4.843   0.862  0.5305  0.2874 -0.0742
17096TIP3    H172703   6.363   4.845   0.928  1.1671 -1.6678  0.7254
17096TIP3    H272704   6.490   4.916   0.885 -0.6857  1.2747 -0.1188
17097TIP3   OH272705   4.638   1.892   2.616 -0.3619  0.2002 -0.0008
17097TIP3    H172706   4.709   1.925   2.560 -0.5728  1.0536  0.2195
17097TIP3    H272707   4.632   1.955   2.687 -0.9749 -0.1649  0.2790
17098TIP3   OH272708   3.542   4.615  16.526  0.4044  0.4234 -0.8074
17098TIP3    H172709   3.612   4.603  16.462  0.9483  1.0616 -0.3519
17098TIP3    H272710   3.535   4.710  16.536  0.0664  0.3428 -0.2073
17099TIP3   OH272711   2.532   6.453  11.247  0.0948  0.5565 -0.5441
17099TIP3    H172712   2.510   6.464  11.155 -0.6069 -0.2366 -0.4888
17099TIP3    H272713   2.447   6.456  11.292  0.2120 -0.9846 -0.1475
17100TIP3   OH272714   3.566   2.988  15.231 -0.2168  0.4903 -0.3143
17100TIP3    H172715   3.524   2.903  15.249  1.5059 -0.3557 -0.0463
17100TIP3    H272716   3.536   3.011  15.143 -0.2882 -0.6832 -0.6206
17101TIP3   OH272717   5.080   4.599   0.161  0.2389 -0.1041 -0.6859
17101TIP3    H172718   5.132   4.670   0.125  0.0430  1.8579  2.4701
17101TIP3    H272719   4.991   4.615   0.130  0.1527  1.2616  0.1891
17102TIP3   OH272720   1.153   0.483   2.238 -0.1424 -0.4315  0.0296
17102TIP3    H172721   1.235   0.518   2.203 -0.3336 -0.6217 -0.6211
17102TIP3    H272722   1.085   0.534   2.194 -0.3922  1.9920  2.9032
17103TIP3   OH272723   6.649   2.680   4.173 -0.3110 -0.4392  0.1910
17103TIP3    H172724   6.637   2.727   4.256 -1.2423 -2.9552  1.5910
17103TIP3    H272725   6.611   2.594   4.189  1.7343 -1.8714 -2.0582
17104TIP3   OH272726   1.969   6.443  14.570 -0.3835  0.2505 -0.4319
17104TIP3    H172727   1.919   6.447  14.488 -2.2141  1.0884  0.6656
17104TIP3    H272728   1.970   6.533  14.601 -1.4864 -0.3311  1.4498
17105TIP3   OH272729   1.834   6.093   0.621 -0.0788 -0.2650 -0.1749
17105TIP3    H172730   1.908   6.139   0.582  0.1588  0.9417  1.5597
17105TIP3    H272731   1.851   6.000   0.602  1.1714  0.0946 -0.9449
17106TIP3   OH272732   3.172   5.243   3.709  0.3355  0.6205 -0.3226
17106TIP3    H172733   3.193   5.150   3.718 -1.3527 -0.0050 -2.0841
17106TIP3    H272734   3.166   5.275   3.799 -2.3397 -1.8279  0.5480
17107TIP3   OH272735   3.931   0.208   0.108  0.1729  0.0692 -0.3760
17107TIP3    H172736   3.981   0.177   0.183  0.1628  0.9330  0.0026
17107TIP3    H272737   3.979   0.175   0.032  0.4054 -0.4746  0.0007
17108TIP3   OH272738   1.608   6.193   4.622 -0.3271  0.2395 -0.3531
17108TIP3    H172739   1.542   6.125   4.618  0.5703 -0.6984  0.2847
17108TIP3    H272740   1.664   6.168   4.696 -0.0331  1.7205 -0.0331
17109TIP3   OH272741   3.874   0.189  13.385 -0.0649 -0.4339 -0.2062
17109TIP3    H172742   3.954   0.181  13.437  1.5180  1.1884 -2.2537
17109TIP3    H272743   3.871   0.109  13.332  1.0413  0.1361 -1.1705
17110TIP3   OH272744   2.958   4.765  15.079  0.4657 -0.0208  0.3898
17110TIP3    H172745   3.014   4.776  15.156  0.6766  0.9118  0.1297
17110TIP3    H272746   2.923   4.853  15.063 -2.3843 -0.8572  1.4823
17111TIP3   OH272747   0.566   5.086  12.483  0.0703  1.1939  0.1284
17111TIP3    H172748   0.650   5.043  12.466  0.6085 -0.0936  4.7014
17111TIP3    H272749   0.505   5.045  12.423  1.9941 -0.6517 -0.6990
17112TIP3   OH272750   1.247   2.126   2.948 -0.0898  0.2825 -0.0969
17112TIP3    H172751   1.318   2.176   2.909 -1.2373  0.6384 -1.8784
17112TIP3    H272752   1.194   2.191   2.994 -0.5532  0.4295 -0.8186
17113TIP3   OH272753   2.209   2.777  13.563 -0.3581  0.3156 -0.3385
17113TIP3    H172754   2.174   2.763  13.475 -2.8815  3.5716 -0.0437
17113TIP3    H272755   2.234   2.869  13.565  2.3322 -0.3299  1.5893
17114TIP3   OH272756   2.063   4.558  16.839  0.0141  0.0027  0.5680
17114TIP3    H172757   2.154   4.529  16.844  0.2990  0.8303  0.3411
17114TIP3    H272758   2.025   4.504  16.769  0.2767 -0.4714  0.7864
17115TIP3   OH272759   2.459   0.471  15.053 -0.8457 -0.0682  0.1304
17115TIP3    H172760   2.447   0.534  14.982  0.1974  0.7995  0.6861
17115TIP3    H272761   2.425   0.516  15.130 -0.5303 -0.3753  0.4467
17116TIP3   OH272762   3.694   4.599  15.564 -0.0186 -0.1079 -0.2317
17116TIP3    H172763   3.605   4.575  15.590  0.7481 -1.5964  1.1234
17116TIP3    H272764   3.743   4.601  15.645  0.8852  2.2952 -0.7612
17117TIP3   OH272765   3.888   1.409   3.701  0.2230 -0.6521  0.1680
17117TIP3    H172766   3.878   1.503   3.710 -2.1169 -0.8956  0.8467
17117TIP3    H272767   3.971   1.397   3.655  0.6167  1.7088  0.1755
17118TIP3   OH272768   3.254   5.464   1.168 -0.5642  0.0228 -0.3899
17118TIP3    H172769   3.161   5.448   1.185 -0.9086  2.2273  0.1660
17118TIP3    H272770   3.256   5.506   1.082  0.0714 -1.0797 -0.9366
17119TIP3   OH272771   0.402   2.575   5.897  0.0296 -0.0374 -0.2255
17119TIP3    H172772   0.455   2.643   5.855  1.5452 -1.8384 -1.4339
17119TIP3    H272773   0.407   2.594   5.990 -0.6613  2.1917 -0.5902
17120TIP3   OH272774   0.573   3.099  11.277  0.1043 -0.3404 -0.0638
17120TIP3    H172775   0.529   3.025  11.320  2.1561 -0.5390  1.8755
17120TIP3    H272776   0.523   3.176  11.303 -1.7927 -0.9191 -1.7403
17121TIP3   OH272777   2.337   3.441   0.003 -0.4253  0.0932  0.1350
17121TIP3    H172778   2.252   3.400  -0.014 -0.8205  1.1801 -0.5472
17121TIP3    H272779   2.320   3.505   0.072  0.0041 -0.2242  0.5414
17122TIP3   OH272780   1.806   6.491   2.858 -0.0942 -0.3108 -0.5370
17122TIP3    H172781   1.806   6.396   2.848 -0.7473 -0.3763  0.0207
17122TIP3    H272782   1.725   6.511   2.904  1.3592  0.2291  1.9929
17123TIP3   OH272783   6.075   0.249   1.997 -0.3677 -0.1110 -0.0495
17123TIP3    H172784   6.137   0.313   2.032 -0.5273  0.4525 -0.7727
17123TIP3    H272785   5.990   0.277   2.033 -0.6294  0.8473 -1.3598
17124TIP3   OH272786   4.682   1.583   0.872  0.0179  0.0631  0.6662
17124TIP3    H172787   4.696   1.670   0.910 -2.4215  0.3526  1.0864
17124TIP3    H272788   4.687   1.523   0.947 -0.9513  0.1768  0.8311
17125TIP3   OH272789   3.701   5.102  16.136 -0.4937 -0.0434 -0.4076
17125TIP3    H172790   3.748   5.043  16.078 -0.2212  0.8224 -1.0862
17125TIP3    H272791   3.610   5.074  16.130 -0.2588 -0.8851 -0.1118
17126TIP3   OH272792   3.310   4.311   1.930 -0.1103  0.1639 -0.4323
17126TIP3    H172793   3.284   4.227   1.967  3.1698 -0.3983  1.0190
17126TIP3    H272794   3.317   4.369   2.006 -0.3424  1.1453 -1.1488
17127TIP3   OH272795   0.178   2.678  14.400  0.2469  0.1949 -0.2509
17127TIP3    H172796   0.104   2.714  14.449  2.0983  0.2501  2.7689
17127TIP3    H272797   0.206   2.751  14.344 -1.1559  0.5915 -0.4830
17128TIP3   OH272798   0.009   0.515   3.348  0.0360 -0.3831 -0.1316
17128TIP3    H172799  -0.006   0.519   3.443 -0.1129  1.2638 -0.2109
17128TIP3    H272800  -0.011   0.424   3.326 -2.3744 -0.2189  1.0167
17129TIP3   OH272801   6.731   6.073   5.253 -0.9950  0.1972  0.1240
17129TIP3    H172802   6.636   6.072   5.270 -0.9095 -0.8619  0.6387
17129TIP3    H272803   6.770   6.097   5.337 -0.7456 -0.9332  0.3432
17130TIP3   OH272804   5.679   6.720  14.440  0.3904 -0.2156 -0.4826
17130TIP3    H172805   5.635   6.805  14.441  1.1400  0.2097  1.6790
17130TIP3    H272806   5.704   6.707  14.349 -0.8232  1.3002 -1.0707
17131TIP3   OH272807   3.277   1.924  16.100 -0.1777  0.6051 -0.4399
17131TIP3    H172808   3.305   1.841  16.138 -0.5876  0.5078 -0.3514
17131TIP3    H272809   3.262   1.981  16.175 -0.2036  0.6633 -0.4890
17132TIP3   OH272810   6.020   5.400   5.715 -0.1354  0.7709 -0.2381
17132TIP3    H172811   5.949   5.354   5.759  0.4343 -2.3776 -2.2307
17132TIP3    H272812   6.099   5.373   5.762 -0.0195  2.7890  0.8319
17133TIP3   OH272813   0.013   3.565   4.603 -0.4194  0.4684 -0.5918
17133TIP3    H172814   0.071   3.604   4.538 -0.0220  0.9997  0.0606
17133TIP3    H272815  -0.075   3.594   4.577 -0.2376  0.8828 -0.7598
17134TIP3   OH272816   3.367   4.431   0.953  0.1358 -0.1643 -0.0446
17134TIP3    H172817   3.321   4.395   1.029  0.4022  2.5101  1.5174
17134TIP3    H272818   3.302   4.432   0.883 -0.4705 -1.5981  0.4653
17135TIP3   OH272819   2.601   6.661  13.348  0.0599  0.2446 -0.0957
17135TIP3    H172820   2.516   6.659  13.391 -0.8390  1.5875 -1.6588
17135TIP3    H272821   2.582   6.641  13.256  1.4640  0.3185 -0.4311
17136TIP3   OH272822   1.752   3.578   0.014 -0.0932 -0.7369  0.0551
17136TIP3    H172823   1.843   3.600  -0.004 -0.4089 -0.2940 -1.0819
17136TIP3    H272824   1.730   3.510  -0.049 -0.6104 -0.7135  0.2001
17137TIP3   OH272825   2.210   5.059   4.896 -0.0605 -0.2510 -0.0694
17137TIP3    H172826   2.294   5.051   4.850 -0.1677  0.6349 -0.4624
17137TIP3    H272827   2.160   5.121   4.842  0.0431  1.3399  1.5672
17138TIP3   OH272828   0.467   5.165   4.628  0.2467  0.1772 -0.1283
17138TIP3    H172829   0.440   5.218   4.554 -0.4275  1.2900  0.8768
17138TIP3    H272830   0.536   5.108   4.594  1.6523  2.3232 -1.0590
17139TIP3   OH272831   0.100   1.800  13.055  0.0726  0.7087  0.7080
17139TIP3    H172832   0.036   1.825  12.988  0.3099 -1.6322 -0.5148
17139TIP3    H272833   0.058   1.727  13.101  0.9365  0.6683  1.4451
17140TIP3   OH272834   4.966   2.710   1.142  0.2114 -0.4860 -0.3307
17140TIP3    H172835   4.946   2.751   1.226  1.7433 -1.7453  0.7174
17140TIP3    H272836   4.987   2.783   1.084  0.3934  0.3596  0.7591
17141TIP3   OH272837   2.426   0.488   1.113  0.0784  0.1931 -0.0485
17141TIP3    H172838   2.353   0.497   1.175  0.3155  1.6073  0.0601
17141TIP3    H272839   2.423   0.568   1.061  0.9986 -0.1522 -0.6524
17142TIP3   OH272840   0.834   5.961   4.601  0.0983  0.2653  0.0530
17142TIP3    H172841   0.783   5.880   4.607  1.5247 -0.6247  0.6696
17142TIP3    H272842   0.869   5.959   4.512  0.6615 -0.1361  0.2796
17143TIP3   OH272843   0.370   2.800   1.126 -0.4742  0.0332  0.5929
17143TIP3    H172844   0.352   2.768   1.038  0.4117  1.3853 -0.1127
17143TIP3    H272845   0.346   2.727   1.183 -1.2803 -0.7884 -0.7356
17144TIP3   OH272846   0.133   5.472  15.017  0.1748 -0.5498  0.5532
17144TIP3    H172847   0.150   5.565  15.001 -1.5420  0.0257  1.7084
17144TIP3    H272848   0.191   5.449  15.089  1.7254 -0.8420 -0.7271
17145TIP3   OH272849   0.113   1.390  15.791  0.1432  0.2931  0.0492
17145TIP3    H172850   0.067   1.320  15.745 -1.0959  0.6474  0.7106
17145TIP3    H272851   0.204   1.359  15.797 -0.3861 -1.2986  0.3972
17146TIP3   OH272852   5.159   4.265   3.707  0.6622  0.0487  0.0280
17146TIP3    H172853   5.116   4.236   3.788 -1.4542  0.3838 -0.9115
17146TIP3    H272854   5.115   4.347   3.685  0.9582 -0.2084 -1.6545
17147TIP3   OH272855   4.210   5.848  12.862 -0.3838  0.4404  0.7457
17147TIP3    H172856   4.236   5.904  12.789 -1.2142 -0.5864 -0.3641
17147TIP3    H272857   4.240   5.761  12.838 -1.2210 -0.0241  1.3221
17148TIP3   OH272858   5.140   6.579  11.701 -0.1298  0.4997  0.6506
17148TIP3    H172859   5.229   6.600  11.730  0.4949 -2.0686  0.8148
17148TIP3    H272860   5.151   6.509  11.637 -2.0188  0.3561  0.4237
17149TIP3   OH272861   6.125   2.532   4.923 -0.2600 -0.4527  0.5947
17149TIP3    H172862   6.116   2.625   4.946  0.7913 -0.1357 -0.1953
17149TIP3    H272863   6.138   2.532   4.828 -0.7396 -1.4526  0.5219
17150TIP3   OH272864   3.541   0.931  14.759  0.1629 -0.1764  0.0083
17150TIP3    H172865   3.565   1.020  14.786 -2.2996 -0.0262  2.0190
17150TIP3    H272866   3.480   0.944  14.687  1.3261 -0.3743 -1.0609
17151TIP3   OH272867   1.752   5.349   0.973  0.4600 -0.2250  0.2141
17151TIP3    H172868   1.662   5.334   0.945  0.6306  0.8283 -1.0190
17151TIP3    H272869   1.748   5.432   1.021  0.8280  0.0473 -0.2171
17152TIP3   OH272870   4.484   4.131  12.157 -0.0192  0.0335 -0.5873
17152TIP3    H172871   4.531   4.154  12.077 -1.2991  0.7358 -1.1764
17152TIP3    H272872   4.478   4.214  12.206 -0.1728 -0.1566 -0.2782
17153TIP3   OH272873   0.967   5.812  13.499  0.3845 -0.4667  0.1281
17153TIP3    H172874   0.950   5.739  13.440  1.3522 -0.1781 -0.5324
17153TIP3    H272875   0.944   5.890  13.449  0.7042 -0.2462  0.3138
17154TIP3   OH272876   5.153   6.543   0.027 -0.6481 -0.2162  0.4740
17154TIP3    H172877   5.155   6.525   0.121 -1.4652  0.1772  0.5742
17154TIP3    H272878   5.207   6.474  -0.012  1.4254  0.7867  1.4065
17155TIP3   OH272879   2.758   1.314  10.798  0.4724  0.5220 -0.0570
17155TIP3    H172880   2.712   1.231  10.790 -1.0087  0.9540  2.7579
17155TIP3    H272881   2.708   1.375  10.744  1.4729 -0.2948 -2.0062
17156TIP3   OH272882   5.107   3.259  12.405 -0.2789 -0.1889 -0.1857
17156TIP3    H172883   5.069   3.334  12.450 -1.3416 -0.3995 -0.7014
17156TIP3    H272884   5.070   3.262  12.317  1.2910 -0.1277 -0.8856
17157TIP3   OH272885   0.881   4.151  11.296  0.5459 -0.0829 -0.0012
17157TIP3    H172886   0.902   4.199  11.216  0.0155 -0.6340 -0.4820
17157TIP3    H272887   0.786   4.155  11.301  0.6167  0.6625  1.0626
17158TIP3   OH272888   3.008   0.476   2.937  0.2165  0.3213  0.1459
17158TIP3    H172889   3.074   0.409   2.916  0.2439 -0.3662  2.1653
17158TIP3    H272890   3.040   0.555   2.893  1.1790 -0.5374 -0.7788
17159TIP3   OH272891   6.014   3.276   2.041  0.0554  0.3028  0.4840
17159TIP3    H172892   6.019   3.344   2.108 -0.3063  1.7291 -0.8733
17159TIP3    H272893   5.920   3.264   2.024  0.1629  1.3554 -1.0771
17160TIP3   OH272894   0.994   4.347   5.348  0.1003  0.4781 -0.0200
17160TIP3    H172895   1.041   4.428   5.366 -1.3901  1.0446  1.6024
17160TIP3    H272896   0.941   4.332   5.426 -0.5682 -1.4327 -0.7727
17161TIP3   OH272897   5.267   3.383  16.356  0.0769 -0.4167  0.0609
17161TIP3    H172898   5.227   3.468  16.374 -0.4653 -0.6870  0.1423
17161TIP3    H272899   5.312   3.396  16.273  0.8509  0.2387  0.5694
17162TIP3   OH272900   4.546   5.464  12.915  0.1647  0.5467  0.1841
17162TIP3    H172901   4.496   5.529  12.964  1.5999  2.4042 -0.6889
17162TIP3    H272902   4.480   5.411  12.871 -1.0656  1.0408  1.3733
17163TIP3   OH272903   2.498   0.738  14.311  0.4796 -0.3370 -0.0135
17163TIP3    H172904   2.543   0.738  14.395 -1.1164  0.2043  0.8776
17163TIP3    H272905   2.517   0.824  14.274  0.0501 -0.0363  0.4497
17164TIP3   OH272906   5.026   3.069  14.780 -0.2621 -0.0341 -0.8753
17164TIP3    H172907   5.011   2.997  14.841 -2.1681  1.5160  0.6520
17164TIP3    H272908   5.121   3.077  14.775 -0.0265 -0.7663  1.2674
17165TIP3   OH272909   0.927   4.853  11.513 -0.4765  0.0298 -0.0765
17165TIP3    H172910   0.911   4.938  11.554  0.0259 -0.0753  0.3496
17165TIP3    H272911   0.931   4.872  11.419 -0.7189  0.4205 -0.0098
17166TIP3   OH272912   1.855   3.619  15.226 -0.3918 -0.0631  0.1308
17166TIP3    H172913   1.902   3.638  15.145  1.3512 -0.6573  0.9600
17166TIP3    H272914   1.880   3.690  15.285 -1.8028  0.4717  0.1270
17167TIP3   OH272915   0.259   3.767  17.058  0.0292  0.7994  0.1816
17167TIP3    H172916   0.175   3.731  17.029  1.1104 -1.0090 -0.8990
17167TIP3    H272917   0.244   3.861  17.065 -1.9885  0.5507 -0.3304
17168TIP3   OH272918   2.815   2.115  13.330  0.7918 -0.1601 -0.0039
17168TIP3    H172919   2.781   2.129  13.242  1.3456  1.1593 -0.0218
17168TIP3    H272920   2.909   2.130  13.322  0.9344 -0.6464  0.6906
17169TIP3   OH272921   3.527   1.887  10.778  0.2011  0.3243  0.1176
17169TIP3    H172922   3.593   1.956  10.767 -0.8615  1.3975  0.3618
17169TIP3    H272923   3.535   1.834  10.698  0.8801  0.8560 -0.1780
17170TIP3   OH272924   4.939   5.355   3.502 -0.0269 -0.4448  0.2555
17170TIP3    H172925   4.882   5.429   3.522 -0.3237 -1.1623  2.2887
17170TIP3    H272926   4.902   5.282   3.552  1.2450 -1.5652 -0.3568
17171TIP3   OH272927   3.316   1.282   2.245 -0.1504 -0.9344 -0.4146
17171TIP3    H172928   3.382   1.227   2.203  1.5339 -0.8422  1.9181
17171TIP3    H272929   3.340   1.371   2.220 -0.2388 -0.9825 -0.6759
17172TIP3   OH272930   6.215   6.437   4.477  0.5131  0.6307 -0.5124
17172TIP3    H172931   6.218   6.489   4.558  2.1141  0.2183 -0.2700
17172TIP3    H272932   6.181   6.498   4.411  0.1278  1.2731  0.2533
17173TIP3   OH272933   5.154   6.169   5.081  0.4775 -0.2026 -0.5221
17173TIP3    H172934   5.183   6.088   5.123 -1.0142 -1.2225 -1.3439
17173TIP3    H272935   5.135   6.144   4.991  0.9805  1.3225 -1.0760
17174TIP3   OH272936   4.949   2.186   0.448 -0.7605  0.3754 -0.0987
17174TIP3    H172937   4.908   2.228   0.523 -0.1382  0.1785  0.3573
17174TIP3    H272938   5.021   2.135   0.485  0.6889  1.6734 -0.9954
17175TIP3   OH272939   2.215   1.666  14.746 -0.7386 -0.1031 -0.1533
17175TIP3    H172940   2.295   1.715  14.727 -0.0870 -1.0313  0.1339
17175TIP3    H272941   2.144   1.723  14.714 -0.0963  1.5419  1.1843
17176TIP3   OH272942   0.501   5.870  13.984  0.6304  0.4562  0.5200
17176TIP3    H172943   0.480   5.953  13.940  0.4549  0.4962  0.6734
17176TIP3    H272944   0.575   5.892  14.040  0.4066  0.5826  0.7717
17177TIP3   OH272945   1.722   6.356  16.919 -0.4971  0.0300  0.2188
17177TIP3    H172946   1.802   6.407  16.928 -1.5805  1.7224  0.6726
17177TIP3    H272947   1.752   6.265  16.922  1.4185  0.6062  0.1343
17178TIP3   OH272948   2.426   6.333   0.977  0.0080  0.0937  0.2300
17178TIP3    H172949   2.495   6.398   0.989  0.3745 -0.3412  0.5338
17178TIP3    H272950   2.468   6.250   0.999 -0.8250 -0.0940  1.1890
17179TIP3   OH272951   4.860   6.630  14.552 -1.0714 -0.1911  0.1624
17179TIP3    H172952   4.853   6.705  14.493  1.0348 -1.3638 -1.6937
17179TIP3    H272953   4.943   6.644  14.598 -0.1813 -1.8275 -0.8996
17180TIP3   OH272954   2.094   3.165   5.213 -0.6277  0.1733  0.0141
17180TIP3    H172955   2.074   3.170   5.307 -0.6844  0.8277 -0.0283
17180TIP3    H272956   2.187   3.145   5.209 -0.5384  0.5545  0.2064
17181TIP3   OH272957   4.662   6.432   3.083  0.1586 -0.1843  0.3747
17181TIP3    H172958   4.629   6.492   3.150  0.7003 -1.9497  2.3717
17181TIP3    H272959   4.751   6.412   3.112  1.9128  1.8315 -2.9799
17182TIP3   OH272960   2.866   5.690  16.304  0.0645 -0.8757  0.2486
17182TIP3    H172961   2.923   5.613  16.307  0.6253 -0.7053 -2.6446
17182TIP3    H272962   2.905   5.746  16.236 -0.3882  1.9534  2.1300
17183TIP3   OH272963   4.512   1.954  11.614  0.0486  0.7417  0.2163
17183TIP3    H172964   4.487   2.036  11.656 -1.7957  0.8584 -0.9783
17183TIP3    H272965   4.552   1.980  11.531  0.4297  0.4655  0.3145
17184TIP3   OH272966   3.227   6.700  15.361  0.1441  0.3152 -0.4866
17184TIP3    H172967   3.289   6.772  15.370  1.2622 -0.6644  0.0791
17184TIP3    H272968   3.191   6.688  15.449 -1.0066  0.9788 -0.8435
17185TIP3   OH272969   5.867   6.565   2.304 -0.3939 -0.3855 -0.4835
17185TIP3    H172970   5.944   6.523   2.265 -0.6026 -1.0884 -0.1634
17185TIP3    H272971   5.824   6.495   2.353  0.2634  0.6256  1.6566
17186TIP3   OH272972   0.049   0.116   4.456 -0.1716 -0.7455 -0.5531
17186TIP3    H172973   0.136   0.155   4.442  0.1070 -1.4421 -0.8281
17186TIP3    H272974  -0.012   0.179   4.418  0.3987 -1.4269 -2.7630
17187TIP3   OH272975   3.728   5.573   2.374  0.0045 -0.0328 -0.0637
17187TIP3    H172976   3.799   5.564   2.310 -0.2139 -0.3575 -0.2623
17187TIP3    H272977   3.768   5.621   2.447  0.9123 -1.6270  0.5359
17188TIP3   OH272978   1.505   5.975   5.867 -0.2165  0.2739  0.0860
17188TIP3    H172979   1.555   6.043   5.823  0.4383 -1.1005 -1.4022
17188TIP3    H272980   1.415   5.990   5.840 -0.2748  1.2806  0.7906
17189TIP3   OH272981   3.039   1.125  10.963 -0.3095  0.0235  0.2233
17189TIP3    H172982   3.074   1.211  10.942 -0.6801  0.0385 -0.3559
17189TIP3    H272983   2.953   1.142  11.001 -0.7447 -0.1128 -0.6624
17190TIP3   OH272984   6.690   5.169  13.148  0.5291 -0.4539  0.0655
17190TIP3    H172985   6.750   5.096  13.139  0.0524 -0.9738  0.9326
17190TIP3    H272986   6.719   5.214  13.228 -1.4999 -2.0079  1.8196
17191TIP3   OH272987   0.306   2.551  16.687 -0.1886  0.6921  0.3380
17191TIP3    H172988   0.352   2.635  16.700 -0.6105  0.9228  0.3476
17191TIP3    H272989   0.370   2.496  16.641 -0.3383  1.4568 -0.8467
17192TIP3   OH272990   6.642   5.448  11.458 -0.3048  0.4811 -0.5156
17192TIP3    H172991   6.726   5.417  11.493  0.2695  1.1657 -1.2194
17192TIP3    H272992   6.590   5.369  11.445  0.6304 -0.0633 -1.0508
17193TIP3   OH272993   3.007   2.049   1.154  0.4064 -0.6756  0.3255
17193TIP3    H172994   3.052   2.124   1.116  0.9293 -0.8142  0.6531
17193TIP3    H272995   2.957   2.011   1.082 -0.4382  0.4141  0.3245
17194TIP3   OH272996   3.714   1.788   4.892  0.2896 -0.6387 -0.2531
17194TIP3    H172997   3.785   1.724   4.901  0.9699  0.2115  0.6801
17194TIP3    H272998   3.691   1.810   4.983 -0.9971 -0.6991 -0.5479
17195TIP3   OH272999   4.755   1.484  16.264  0.5952 -0.2526 -0.1614
17195TIP3    H173000   4.829   1.513  16.317  1.7074 -2.1062 -0.6410
17195TIP3    H273001   4.702   1.563  16.252  1.9055  0.8677  1.1109
17196TIP3   OH273002   5.000   0.359  13.396 -0.3828  0.5772  0.1203
17196TIP3    H173003   4.967   0.404  13.474  0.1358  1.5719 -0.2020
17196TIP3    H273004   4.927   0.361  13.334 -0.3557  1.0450  0.0945
17197TIP3   OH273005   0.657   2.109   4.082  0.3015 -0.1473 -0.1045
17197TIP3    H173006   0.615   2.096   4.167 -0.4496  0.5689 -0.3552
17197TIP3    H273007   0.590   2.087   4.018 -0.6269  3.3957 -0.5491
17198TIP3   OH273008   2.938   3.689  14.782  0.7635 -0.0915 -0.1640
17198TIP3    H173009   2.950   3.738  14.863 -1.2278  1.2878 -0.6482
17198TIP3    H273010   3.028   3.673  14.751  1.5245  2.4702  0.4848
17199TIP3   OH273011   1.953   4.631   5.827  0.1215  0.4319 -0.1796
17199TIP3    H173012   1.914   4.713   5.797  0.1588  1.1604  1.6180
17199TIP3    H273013   1.885   4.590   5.879  1.0898  0.8387  1.4830
17200TIP3   OH273014   1.740   6.606   5.895  0.1391 -0.8120 -0.1706
17200TIP3    H173015   1.673   6.609   5.826 -1.5793  0.6588  1.4322
17200TIP3    H273016   1.770   6.696   5.903 -1.8146 -0.2752  2.8269
17201TIP3   OH273017   6.643   4.965  12.422 -0.3785  0.2924  0.0566
17201TIP3    H173018   6.695   4.977  12.343 -0.6031  0.2840 -0.0916
17201TIP3    H273019   6.565   4.917  12.393  0.6605 -1.9184  0.6786
17202TIP3   OH273020   0.738   0.005   1.041  0.0564  0.4437  0.2165
17202TIP3    H173021   0.727  -0.054   1.115 -0.6246  0.7513  0.3737
17202TIP3    H273022   0.653   0.050   1.034  0.8784  2.1535  0.7722
17203TIP3   OH273023   2.445   5.368   0.981 -0.0683 -0.2502 -0.4479
17203TIP3    H173024   2.393   5.449   0.973  2.3039  1.8778  3.0711
17203TIP3    H273025   2.390   5.310   1.033  0.1028  1.1183  1.3481
17204TIP3   OH273026   1.473   3.034   3.535 -0.3410  0.1385  0.3976
17204TIP3    H173027   1.485   2.976   3.460 -1.6896 -0.6900  0.8033
17204TIP3    H273028   1.525   3.112   3.513 -0.5261 -0.1772 -1.2966
17205TIP3   OH273029   4.435   5.269  15.948  0.4049 -0.0423 -0.0701
17205TIP3    H173030   4.504   5.271  16.015  1.1645 -2.5678 -0.6686
17205TIP3    H273031   4.480   5.289  15.866  0.7050 -2.6455 -0.6081
17206TIP3   OH273032   6.655   6.652   3.563 -0.0812  0.7286 -0.0460
17206TIP3    H173033   6.705   6.649   3.482 -1.3097  1.5883 -0.8535
17206TIP3    H273034   6.698   6.720   3.615  0.3837  0.5428 -0.1801
17207TIP3   OH273035   4.458   4.338  13.709 -0.5752 -0.0631 -0.9599
17207TIP3    H173036   4.423   4.427  13.715 -0.3187 -0.0105 -0.1407
17207TIP3    H273037   4.475   4.313  13.800 -2.2542 -1.5994 -1.0164
17208TIP3   OH273038   2.321   0.358  13.156 -0.1818  0.4559 -0.3832
17208TIP3    H173039   2.307   0.453  13.158  0.4450  0.5478  0.8221
17208TIP3    H273040   2.233   0.320  13.162 -0.3754  0.9827  0.3373
17209TIP3   OH273041   1.268   0.591  14.650  0.0380  0.5162  0.0131
17209TIP3    H173042   1.230   0.503  14.651  0.4066  0.3594  0.3758
17209TIP3    H273043   1.362   0.576  14.646  0.0607  0.8996 -1.5870
17210TIP3   OH273044   0.722   6.032  14.416 -1.1786 -0.1143 -0.5290
17210TIP3    H173045   0.641   5.984  14.432 -0.1375 -1.4749  0.9358
17210TIP3    H273046   0.699   6.124  14.430 -2.2998 -0.5418  0.5735
17211TIP3   OH273047   1.448   1.091  16.056 -0.4103  0.2322 -0.0373
17211TIP3    H173048   1.529   1.138  16.034  0.5110 -0.3843  1.8084
17211TIP3    H273049   1.478   1.015  16.106 -2.1822  0.4545  1.4747
17212TIP3   OH273050   6.785   0.107   2.650 -0.3568  0.8518  0.1457
17212TIP3    H173051   6.800   0.037   2.714 -0.3127  0.1567 -0.6194
17212TIP3    H273052   6.694   0.133   2.665 -0.6107  0.1063 -0.0719
17213TIP3   OH273053   2.701   4.225   1.320 -0.0768 -0.0359  0.3721
17213TIP3    H173054   2.639   4.153   1.307  0.8688 -0.9035  0.4622
17213TIP3    H273055   2.721   4.222   1.414  0.8617 -0.4414  0.1704
17214TIP3   OH273056   5.524   4.457  12.143 -0.4824 -0.0367 -0.4514
17214TIP3    H173057   5.445   4.404  12.151 -2.5625  2.9083  0.4008
17214TIP3    H273058   5.580   4.428  12.214 -2.0132 -0.4209  0.6452
17215TIP3   OH273059   5.198   3.590  12.288  0.1899  0.2287  1.0109
17215TIP3    H173060   5.210   3.505  12.246 -0.6835  0.7355 -0.2980
17215TIP3    H273061   5.244   3.581  12.372  2.2684 -0.6919 -0.1505
17216TIP3   OH273062   4.432   4.204  17.163  0.2303 -0.4520  0.1989
17216TIP3    H173063   4.431   4.149  17.241  0.0424  0.0849  0.5874
17216TIP3    H273064   4.424   4.143  17.090  2.1429 -1.1278  0.4960
17217TIP3   OH273065   1.931   0.414   1.827 -0.4644 -0.0374  0.6636
17217TIP3    H173066   1.921   0.319   1.827  0.0104 -0.1292 -1.3764
17217TIP3    H273067   1.858   0.446   1.774  0.7974  0.4927 -0.8424
17218TIP3   OH273068   6.377   6.125  13.658  0.2312 -0.0661 -0.0561
17218TIP3    H173069   6.419   6.152  13.740 -0.6879  0.6610  0.1862
17218TIP3    H273070   6.426   6.171  13.590 -1.3965  2.4875  0.3473
17219TIP3   OH273071   4.566   1.156  11.689 -1.0071  0.2716 -0.5770
17219TIP3    H173072   4.653   1.163  11.728 -1.9243  0.1895  1.6498
17219TIP3    H273073   4.570   1.076  11.637 -0.2608 -0.7528  0.9857
17220TIP3   OH273074   1.676   4.248  14.859 -0.1167  0.9309 -0.1616
17220TIP3    H173075   1.749   4.301  14.826  1.4839 -0.3048  1.2452
17220TIP3    H273076   1.604   4.267  14.799  0.9487  3.2047 -0.8377
17221TIP3   OH273077   6.069   2.966  11.361 -0.0709  0.5692  0.1873
17221TIP3    H173078   6.095   3.057  11.379  2.1249  0.2783 -1.0733
17221TIP3    H273079   6.060   2.964  11.265 -0.5831 -0.4319  0.2548
17222TIP3   OH273080   1.843   0.200  15.238 -0.5109 -1.0529  0.1986
17222TIP3    H173081   1.842   0.253  15.158 -0.1845 -2.1938 -0.5996
17222TIP3    H273082   1.863   0.261  15.308  2.2153 -0.4858 -0.9658
17223TIP3   OH273083   0.210   6.042  10.408  0.3245 -0.2924 -0.4625
17223TIP3    H173084   0.268   6.046  10.484  1.1446 -1.0216 -1.0214
17223TIP3    H273085   0.252   5.977  10.350 -1.0178 -0.7863 -0.9107
17224TIP3   OH273086   6.260   4.423   3.430  0.2856 -0.0419  0.1927
17224TIP3    H173087   6.178   4.385   3.398  0.5532  0.0796 -0.6801
17224TIP3    H273088   6.244   4.517   3.431  0.3802 -0.0244  0.1121
17225TIP3   OH273089   4.986   2.087  13.944  0.6565  0.0212  0.2024
17225TIP3    H173090   4.964   2.074  14.036  1.1246  1.7369  0.6061
17225TIP3    H273091   5.055   2.154  13.946  1.1809 -0.4419 -1.3605
17226TIP3   OH273092   1.458   2.275   2.037  0.1476 -0.5661  0.6209
17226TIP3    H173093   1.410   2.261   2.119 -1.0868  2.7011  0.6086
17226TIP3    H273094   1.488   2.366   2.042  0.9876 -0.6126 -2.0912
17227TIP3   OH273095   4.256   4.749  16.644 -1.0513  0.5835 -0.0297
17227TIP3    H173096   4.337   4.714  16.607 -0.5478  0.6894  0.9313
17227TIP3    H273097   4.209   4.786  16.569  0.9038  2.6821 -0.3198
17228TIP3   OH273098   5.529   5.000  12.018  0.5703  0.0891 -0.1928
17228TIP3    H173099   5.449   4.953  11.994  0.7800 -0.6229  0.4190
17228TIP3    H273100   5.541   4.979  12.111  1.1223  0.7072 -0.1168
17229TIP3   OH273101   5.821   5.783  15.993 -0.2000  0.1014 -0.5701
17229TIP3    H173102   5.777   5.719  16.049 -2.3699  1.6727 -0.3437
17229TIP3    H273103   5.828   5.740  15.908 -2.1209 -0.3130 -0.5669
17230TIP3   OH273104   1.942   0.261   2.256  0.0248 -0.8505 -0.4340
17230TIP3    H173105   1.893   0.322   2.200 -2.1818 -0.0619  2.1114
17230TIP3    H273106   2.032   0.291   2.251 -0.8274  2.1081 -0.0425
17231TIP3   OH273107   5.390   5.376  17.144 -0.0140  0.4021 -0.1953
17231TIP3    H173108   5.435   5.300  17.107  2.0474  0.8076  1.3108
17231TIP3    H273109   5.385   5.438  17.071  1.7511  0.2652 -0.4717
17232TIP3   OH273110   5.089   1.375  16.887 -0.1853 -0.3944  0.1610
17232TIP3    H173111   5.017   1.364  16.825 -0.4339  1.2596  0.1101
17232TIP3    H273112   5.164   1.398  16.833 -0.4423  1.2107  0.4538
17233TIP3   OH273113   2.737   3.955   1.869 -0.6563  0.2638 -0.3306
17233TIP3    H173114   2.646   3.932   1.851 -0.8608  2.3485 -2.4799
17233TIP3    H273115   2.781   3.946   1.785  1.4772 -1.8655  0.9029
17234TIP3   OH273116   3.051   0.206   0.956 -0.1650 -0.4684 -0.1497
17234TIP3    H173117   3.072   0.229   0.865  0.4242 -2.1510 -0.4728
17234TIP3    H273118   3.034   0.290   0.998  1.9439  0.5888 -1.2140
17235TIP3   OH273119   1.746   2.126  16.479  0.5644  0.2698  0.0168
17235TIP3    H173120   1.743   2.055  16.544  0.3484  0.5898  0.3651
17235TIP3    H273121   1.728   2.083  16.396 -0.8896  0.0917  0.3914
17236TIP3   OH273122   2.768   3.269   3.767 -0.4876 -0.6605  0.8344
17236TIP3    H173123   2.710   3.196   3.744  2.0704 -2.0628 -1.8948
17236TIP3    H273124   2.783   3.315   3.685  0.1329  1.3097  1.9932
17237TIP3   OH273125   4.099   0.120   0.296 -0.5879  0.4457  0.1171
17237TIP3    H173126   4.081   0.106   0.389 -1.1803 -1.7420 -0.2663
17237TIP3    H273127   4.194   0.131   0.291 -0.0634 -2.8347  0.7145
17238TIP3   OH273128   6.136   0.747   5.470 -0.5805 -0.1631 -0.1256
17238TIP3    H173129   6.161   0.669   5.420 -0.4617 -0.0882 -0.1820
17238TIP3    H273130   6.218   0.785   5.500 -0.5498  0.6497 -1.1618
17239TIP3   OH273131   1.097   2.102  13.313 -0.4532 -0.2746  0.5314
17239TIP3    H173132   1.080   2.044  13.238  1.6521  1.5851 -1.5495
17239TIP3    H273133   1.057   2.057  13.388  0.1272 -3.8675 -1.1106
17240TIP3   OH273134   5.405   0.769  15.897 -0.1505  0.2254  0.1802
17240TIP3    H173135   5.349   0.806  15.828 -1.5540  1.1359  1.7330
17240TIP3    H273136   5.472   0.837  15.912  0.3079 -0.0807 -0.4232
17241TIP3   OH273137   2.787   1.303   0.770  0.3155 -0.1036  0.0717
17241TIP3    H173138   2.706   1.355   0.768  0.4595  0.1282  0.2257
17241TIP3    H273139   2.757   1.213   0.780  0.1100  0.0686  1.1240
17242TIP3   OH273140   4.295   1.684   2.075 -0.0824  0.1096 -0.0757
17242TIP3    H173141   4.222   1.737   2.042  2.3680  2.4692 -2.2029
17242TIP3    H273142   4.366   1.701   2.014  1.9434 -3.0591  1.1685
17243TIP3   OH273143   3.945   4.840   3.264  0.0751 -0.1461  0.3308
17243TIP3    H173144   3.861   4.795   3.260  0.6082 -1.2034  0.5749
17243TIP3    H273145   3.928   4.927   3.227 -0.7090 -0.9598 -1.3065
17244TIP3   OH273146   2.197   2.788   3.858 -0.1162 -0.1899  0.4969
17244TIP3    H173147   2.289   2.778   3.834  0.1291  1.3695  0.6968
17244TIP3    H273148   2.198   2.834   3.942 -1.0494  3.3816 -1.2600
17245TIP3   OH273149   3.048   1.765  15.775  0.1689 -0.2563 -0.9447
17245TIP3    H173150   2.977   1.729  15.828 -0.1872  1.4793 -0.1704
17245TIP3    H273151   3.021   1.749  15.685 -0.4912 -0.9098 -0.6417
17246TIP3   OH273152   5.131   5.944  11.124  0.4574 -0.3007  0.1356
17246TIP3    H173153   5.059   5.942  11.187  0.8601  0.6294  0.6326
17246TIP3    H273154   5.091   5.976  11.043  0.4879  1.1903  0.6781
17247TIP3   OH273155   1.817   3.050   2.692  0.2310 -0.8145 -0.2060
17247TIP3    H173156   1.885   3.117   2.694 -0.9635  0.4366 -0.3613
17247TIP3    H273157   1.742   3.092   2.650 -0.6995 -2.1130  0.0746
17248TIP3   OH273158   2.624   1.188  12.283  0.2760  0.0740  0.5178
17248TIP3    H173159   2.599   1.237  12.205  2.0993  1.0826  0.5022
17248TIP3    H273160   2.582   1.235  12.355  0.9346  0.9061  0.3792
17249TIP3   OH273161   4.582   2.095   1.245 -0.7454 -0.0637  0.4048
17249TIP3    H173162   4.546   2.144   1.319  1.5215 -0.2532  1.7307
17249TIP3    H273163   4.651   2.152   1.210 -2.1255  0.2670 -1.9901
17250TIP3   OH273164   4.229   0.855   2.047  0.2990 -0.5028  0.0363
17250TIP3    H173165   4.239   0.838   1.953  2.1357 -0.5027  0.1871
17250TIP3    H273166   4.318   0.877   2.076 -0.1340 -1.0842  1.8924
17251TIP3   OH273167   4.885   2.139  11.966  0.1312  0.0150  0.2916
17251TIP3    H173168   4.876   2.196  12.042 -1.0644  1.5039 -0.9192
17251TIP3    H273169   4.979   2.128  11.956  0.3162 -1.2365  2.6833
17252TIP3   OH273170   4.631   1.717   6.389 -0.3872  0.2338  0.7953
17252TIP3    H173171   4.685   1.754   6.458 -1.1528  0.5146  1.2556
17252TIP3    H273172   4.541   1.731   6.419 -0.7190 -1.7536  0.8603
17253TIP3   OH273173   1.349   3.179   0.521 -0.3885 -0.3210 -0.1030
17253TIP3    H173174   1.318   3.119   0.453 -0.5309  1.4090 -1.6392
17253TIP3    H273175   1.271   3.197   0.573 -0.7009 -0.2501 -0.5908
17254TIP3   OH273176   3.936   5.702  11.755  0.3058  0.7848 -0.5750
17254TIP3    H173177   3.984   5.690  11.837 -0.9598  1.6181  0.3160
17254TIP3    H273178   3.971   5.783  11.718  0.5031  0.6928 -0.5904
17255TIP3   OH273179   4.349   2.885   3.172  0.1562 -0.1225  0.1955
17255TIP3    H173180   4.324   2.798   3.202 -2.0009  0.3584 -0.0505
17255TIP3    H273181   4.404   2.869   3.095  0.6990 -1.2473  0.7959
17256TIP3   OH273182   0.752   4.299  15.737 -0.2139  0.2998 -0.0994
17256TIP3    H173183   0.844   4.317  15.716 -0.1727 -0.3712 -0.5320
17256TIP3    H273184   0.749   4.296  15.832  0.5856 -1.4428 -0.1002
17257TIP3   OH273185   4.840   4.923   1.512 -0.4448 -0.3050 -0.0399
17257TIP3    H173186   4.811   4.834   1.529 -0.0298 -0.3727  0.3149
17257TIP3    H273187   4.852   4.962   1.598  1.3351 -0.5436 -0.1426
17258TIP3   OH273188   4.829   3.883   4.288 -0.0801  0.2612  0.0967
17258TIP3    H173189   4.748   3.874   4.338  1.6112  0.1022  3.0900
17258TIP3    H273190   4.837   3.977   4.273  1.1827  0.9193  3.7793
17259TIP3   OH273191   5.697   2.112   3.652 -0.9961  0.3147 -0.5268
17259TIP3    H173192   5.726   2.191   3.698 -0.4671 -0.7150  0.9676
17259TIP3    H273193   5.601   2.119   3.652 -0.9502  1.6535 -1.7620
17260TIP3   OH273194   2.483   3.584   3.927  0.6298  0.0206  0.1949
17260TIP3    H173195   2.443   3.544   3.849  1.6191 -0.1356 -0.2476
17260TIP3    H273196   2.548   3.521   3.956  0.4813  0.2196  0.9707
17261TIP3   OH273197   5.952   1.215   1.883  0.6687  0.3587 -0.6893
17261TIP3    H173198   5.877   1.274   1.892  0.3014 -0.4018  1.9994
17261TIP3    H273199   5.985   1.204   1.972  2.9536 -0.6906 -1.5769
17262TIP3   OH273200   5.546   6.379   4.546  0.2017  0.1079 -0.5634
17262TIP3    H173201   5.490   6.359   4.621  1.5071  1.4160  0.8636
17262TIP3    H273202   5.521   6.316   4.479 -0.7441 -1.4032  1.1153
17263TIP3   OH273203   6.432   2.114   4.528  0.3377 -0.2639  0.3031
17263TIP3    H173204   6.417   2.019   4.526 -0.0451 -0.2009 -0.2367
17263TIP3    H273205   6.344   2.151   4.542  0.7800 -0.0481  3.0300
17264TIP3   OH273206   4.122   1.812  14.108  0.0718  0.7183 -0.0848
17264TIP3    H173207   4.143   1.721  14.085 -2.5949 -0.5478  1.8315
17264TIP3    H273208   4.040   1.829  14.062  0.0323  1.8093  0.3835
17265TIP3   OH273209   4.243   5.760  15.447  0.0029 -0.5050  0.1257
17265TIP3    H173210   4.158   5.716  15.440 -0.8720  1.2876 -1.8873
17265TIP3    H273211   4.243   5.799  15.534 -0.5969 -1.7125  0.6924
17266TIP3   OH273212   2.203   5.196  12.343 -0.6755  0.0128  0.2304
17266TIP3    H173213   2.117   5.239  12.345 -0.4443  0.5020 -0.1916
17266TIP3    H273214   2.263   5.264  12.311  0.5113  0.8082  3.6914
17267TIP3   OH273215   1.094   5.786  11.738  0.1091 -0.0969 -0.3303
17267TIP3    H173216   1.054   5.858  11.787  1.4227 -0.0357  0.7196
17267TIP3    H273217   1.032   5.767  11.667 -1.2167  0.7059  0.5719
17268TIP3   OH273218   2.109   5.712  13.810  0.0291  0.0161  0.0825
17268TIP3    H173219   2.157   5.629  13.806 -0.3241 -0.2689  1.3218
17268TIP3    H273220   2.172   5.773  13.849 -0.0488  0.0676  0.1260
17269TIP3   OH273221   2.490   1.549  11.947 -0.6572  0.5303 -0.5230
17269TIP3    H173222   2.529   1.635  11.932  1.7408 -0.0496  1.7259
17269TIP3    H273223   2.433   1.560  12.023 -1.9472  0.4999 -1.4417
17270TIP3   OH273224   0.102   5.216  12.302 -0.1565 -0.1090 -0.1706
17270TIP3    H173225   0.087   5.123  12.285  0.9596  0.1300 -3.0151
17270TIP3    H273226   0.030   5.260  12.257  0.7873  0.4618 -1.1737
17271TIP3   OH273227   1.889   0.547   0.667 -0.1122  0.0958  0.0286
17271TIP3    H173228   1.962   0.555   0.729 -0.7050 -0.6511  0.8437
17271TIP3    H273229   1.838   0.473   0.700 -0.6776 -0.0403 -1.1199
17272TIP3   OH273230   1.591   1.723   2.633  0.0811  0.7290  0.2567
17272TIP3    H173231   1.551   1.748   2.717 -0.0775  1.0003  0.1043
17272TIP3    H273232   1.520   1.734   2.569  0.3429  1.0126  0.0137
17273TIP3   OH273233   3.040   1.278  12.525 -0.7338  0.3146  0.7948
17273TIP3    H173234   3.077   1.334  12.457 -1.6599  0.0264  0.0336
17273TIP3    H273235   2.984   1.216  12.478 -0.8342 -0.3480  1.7534
17274TIP3   OH273236   2.001   5.868   3.780 -0.1612  0.5463 -0.1698
17274TIP3    H173237   1.915   5.893   3.746 -1.5929 -1.1550  1.9184
17274TIP3    H273238   2.023   5.788   3.732 -0.4242  0.2112  0.2594
17275TIP3   OH273239   1.817   4.225  11.904 -0.2431 -0.8096 -0.0074
17275TIP3    H173240   1.806   4.319  11.897 -0.6886 -0.6699  1.9867
17275TIP3    H273241   1.909   4.212  11.925 -0.5602 -0.6386  1.6358
17276TIP3   OH273242   3.130   4.883  16.942  0.2447  0.2392  0.2805
17276TIP3    H173243   3.066   4.870  17.012 -0.6668  1.4750 -0.2877
17276TIP3    H273244   3.091   4.950  16.886 -0.4201 -2.5423 -2.9726
17277TIP3   OH273245   0.250   6.099  11.958 -0.6614 -0.8872 -0.6561
17277TIP3    H173246   0.332   6.054  11.942 -0.3080 -1.1458  1.5684
17277TIP3    H273247   0.274   6.192  11.966 -0.4093 -1.0643  0.8843
17278TIP3   OH273248   2.005   5.599   3.405  0.2228  0.1596 -0.6496
17278TIP3    H173249   1.961   5.516   3.386  2.0438 -0.5794 -1.8362
17278TIP3    H273250   2.066   5.611   3.333 -2.0079  4.0814 -2.2115
17279TIP3   OH273251   1.032   0.452  14.893  0.0587  0.9462  0.1158
17279TIP3    H173252   1.119   0.482  14.919  0.4963  0.9081 -1.2114
17279TIP3    H273253   1.047   0.404  14.812 -0.8419 -1.3858  1.2218
17280TIP3   OH273254   4.089   0.898  11.572 -0.2792 -0.0787  0.4084
17280TIP3    H173255   4.178   0.929  11.589  0.5039 -1.1544 -1.3985
17280TIP3    H273256   4.037   0.933  11.644  1.7125  0.0589  1.8698
17281TIP3   OH273257   1.367   3.021  12.398 -0.0425 -0.1588  0.0920
17281TIP3    H173258   1.409   2.970  12.468  2.2546  0.2274 -0.9092
17281TIP3    H273259   1.399   2.981  12.317 -0.8300  0.8347 -0.7367
17282TIP3   OH273260   4.584   1.638   6.023  0.6403 -0.1647  0.1324
17282TIP3    H173261   4.492   1.657   6.039  0.4162 -1.1351  0.0874
17282TIP3    H273262   4.632   1.704   6.073 -0.0698  0.9638 -0.6332
17283TIP3   OH273263   0.720   3.777  16.855 -0.1665 -0.0302  0.1486
17283TIP3    H173264   0.759   3.693  16.878 -1.2798 -0.4045  0.7498
17283TIP3    H273265   0.626   3.758  16.847 -0.4792  1.2210  0.6315
17284TIP3   OH273266   2.635   0.913   1.832  0.0763 -0.1630  0.1853
17284TIP3    H173267   2.682   0.991   1.860  0.0892  0.3567 -1.2095
17284TIP3    H273268   2.700   0.861   1.785 -0.0030 -0.8773  0.8578
17285TIP3   OH273269   1.283   4.341  13.321  0.8617 -0.3326  0.2889
17285TIP3    H173270   1.276   4.416  13.380  0.8790 -0.9009  1.0196
17285TIP3    H273271   1.372   4.345  13.287  0.7561  0.1684  0.0558
17286TIP3   OH273272   2.035   5.673   6.385  0.0305  0.3396 -0.3387
17286TIP3    H173273   2.067   5.737   6.448 -0.6096  1.0864 -0.7571
17286TIP3    H273274   1.982   5.612   6.437  2.2695 -1.0726  0.4099
17287TIP3   OH273275   2.366   6.541  11.485 -0.5090 -0.2431 -0.0623
17287TIP3    H173276   2.337   6.457  11.521 -1.0431 -0.5817 -1.2420
17287TIP3    H273277   2.302   6.562  11.417  0.5984  0.2595 -0.9780
17288TIP3   OH273278   4.821   5.798   0.033 -0.7160  0.3124  0.1290
17288TIP3    H173279   4.862   5.876  -0.004  0.7108  1.5584  3.8538
17288TIP3    H273280   4.877   5.725   0.004 -0.0251  1.1082 -0.5829
17289TIP3   OH273281   3.900   1.264   0.692 -0.0219  0.1525 -0.2399
17289TIP3    H173282   3.883   1.351   0.727  0.9880  0.4861 -0.5339
17289TIP3    H273283   3.937   1.215   0.766 -1.4256 -0.3209  0.1745
17290TIP3   OH273284   3.877   2.426  12.006 -0.2037 -0.5709 -0.5463
17290TIP3    H173285   3.855   2.338  12.037  2.1163 -0.7349  0.9393
17290TIP3    H273286   3.862   2.482  12.082  2.1734 -0.4071 -0.0957
17291TIP3   OH273287   0.450   5.193  10.150 -0.5036 -0.4550  0.0889
17291TIP3    H173288   0.472   5.104  10.177  0.0007  0.4642  3.1543
17291TIP3    H273289   0.382   5.182  10.084  0.9452 -3.1142 -1.1401
17292TIP3   OH273290   3.107   2.174   4.089  0.0194 -0.3467 -0.4061
17292TIP3    H173291   3.106   2.269   4.078  1.0071 -0.5396 -2.8469
17292TIP3    H273292   3.022   2.145   4.054  0.0786 -0.4276 -0.4822
17293TIP3   OH273293   3.884   1.867   2.969 -0.2235  0.7003  0.2853
17293TIP3    H173294   3.860   1.810   3.042 -0.2086  0.9544  0.4909
17293TIP3    H273295   3.801   1.909   2.944 -0.4203 -0.1343 -0.5004
17294TIP3   OH273296   4.160   1.263   5.974  0.5430 -0.4245 -0.3926
17294TIP3    H173297   4.186   1.226   6.058 -0.2227 -0.2606 -0.0689
17294TIP3    H273298   4.068   1.239   5.965  0.6264 -0.4735 -1.2100
17295TIP3   OH273299   6.771   5.910  16.018 -0.7126 -0.1774 -0.0515
17295TIP3    H173300   6.819   5.950  16.091  0.6492 -0.3578 -0.8278
17295TIP3    H273301   6.815   5.827  16.002 -1.7110 -0.6680 -0.3680
17296TIP3   OH273302   3.914   2.600  15.284 -0.0491  0.1156 -0.2864
17296TIP3    H173303   3.902   2.565  15.195  1.3388 -0.8932 -0.1092
17296TIP3    H273304   3.825   2.618  15.314 -0.8135 -2.3843 -0.7920
17297TIP3   OH273305   6.621   2.149  13.030 -0.3000 -0.8807 -0.7839
17297TIP3    H173306   6.712   2.167  13.007 -0.0705 -2.9913 -1.7503
17297TIP3    H273307   6.570   2.199  12.966 -0.0152  2.5666  1.4279
17298TIP3   OH273308   1.826   0.836  16.344 -0.0308 -0.1086  0.2063
17298TIP3    H173309   1.822   0.925  16.307 -1.3377 -0.4196 -0.4539
17298TIP3    H273310   1.902   0.838  16.403 -0.4457  1.6553  0.7405
17299TIP3   OH273311   2.524   5.294  16.556 -1.0147  0.4529 -0.1640
17299TIP3    H173312   2.480   5.223  16.508 -0.7378  1.3554 -1.8244
17299TIP3    H273313   2.615   5.292  16.524  0.4422 -1.6764  3.5360
17300TIP3   OH273314   1.883   5.378  10.606  0.5557  0.1724 -0.1067
17300TIP3    H173315   1.934   5.455  10.579  1.9820 -0.7899 -0.2572
17300TIP3    H273316   1.927   5.304  10.565  0.0699 -0.8881  1.2011
17301TIP3   OH273317   0.684   0.523  15.139 -0.3437  0.1213 -0.0087
17301TIP3    H173318   0.755   0.462  15.160  0.6254  1.6694  1.5396
17301TIP3    H273319   0.725   0.588  15.082 -1.5453 -0.9476 -2.2401
17302TIP3   OH273320   0.929   5.593   0.644  0.1327  0.3977 -0.2693
17302TIP3    H173321   0.888   5.537   0.578 -0.6862  1.7382 -0.9655
17302TIP3    H273322   0.857   5.619   0.702  0.1750  1.8381 -0.8071
17303TIP3   OH273323   3.166   1.503   3.242 -0.6579  0.2547  0.4678
17303TIP3    H173324   3.088   1.481   3.292  0.1694 -0.5843  1.4038
17303TIP3    H273325   3.172   1.598   3.249 -1.3736  0.2925  0.6971
17304TIP3   OH273326   5.610   4.524   3.806 -0.3706  0.5032 -0.1417
17304TIP3    H173327   5.575   4.527   3.895 -0.2016  0.0121 -0.0514
17304TIP3    H273328   5.537   4.551   3.750 -0.7291  0.0396  0.0886
17305TIP3   OH273329   5.575   1.503   3.510 -0.4833 -0.1072 -0.0117
17305TIP3    H173330   5.588   1.441   3.582  0.3818  1.4292  1.2190
17305TIP3    H273331   5.483   1.493   3.486 -1.0134 -0.1060  1.8562
17306TIP3   OH273332   0.657   1.297   5.507  0.3217  0.7865 -0.3108
17306TIP3    H173333   0.664   1.366   5.573  0.5099 -0.4874  1.0368
17306TIP3    H273334   0.564   1.274   5.505  0.4131  0.3875 -0.0288
17307TIP3   OH273335   2.581   3.734  14.455 -0.0288  0.0953 -0.2841
17307TIP3    H173336   2.507   3.777  14.496 -0.7661  1.2787 -2.6820
17307TIP3    H273337   2.552   3.714  14.366  2.1350 -0.4478 -0.9469
17308TIP3   OH273338   6.509   0.717  11.450 -0.0583 -0.0481  0.1826
17308TIP3    H173339   6.546   0.637  11.488  1.8754  1.4027  1.5218
17308TIP3    H273340   6.438   0.741  11.511 -0.5735 -0.6517 -0.1652
17309TIP3   OH273341   0.165   0.715   2.625 -0.3652 -0.2688  0.0882
17309TIP3    H173342   0.235   0.662   2.588 -1.8157 -0.6732 -2.2490
17309TIP3    H273343   0.210   0.792   2.660  1.4384 -1.5310  0.6875
17310TIP3   OH273344   4.384   3.574  16.377 -0.0171 -0.0058  0.3776
17310TIP3    H173345   4.390   3.539  16.466  1.2066 -1.2744 -0.1645
17310TIP3    H273346   4.469   3.615  16.362  0.8304 -2.0916 -1.0631
17311TIP3   OH273347   3.090   4.222   1.758 -0.2746 -0.3316  0.1408
17311TIP3    H173348   3.023   4.156   1.742 -1.2965  0.8999 -0.9008
17311TIP3    H273349   3.085   4.240   1.852 -0.5357 -1.1460  0.2849
17312TIP3   OH273350   2.565   3.618   5.325  0.0642 -0.2166  0.0359
17312TIP3    H173351   2.505   3.550   5.356  1.8092 -2.3757 -1.0554
17312TIP3    H273352   2.551   3.691   5.385 -1.6998 -1.6130  1.4598
17313TIP3   OH273353   4.809   3.236   5.070  0.3287 -0.3334  0.0039
17313TIP3    H173354   4.751   3.236   4.994  0.5206  0.1049 -0.1508
17313TIP3    H273355   4.820   3.329   5.091  1.9288 -0.3289 -0.7091
17314TIP3   OH273356   6.087   6.124  15.212  0.2481 -0.1788 -0.0775
17314TIP3    H173357   6.127   6.084  15.289 -0.5015 -0.0723  0.3786
17314TIP3    H273358   6.089   6.056  15.146 -1.5891 -1.2604  0.8799
17315TIP3   OH273359   6.711   4.722   1.069  0.0147  0.1718 -0.6747
17315TIP3    H173360   6.679   4.665   1.000  0.9921 -0.9371 -0.2488
17315TIP3    H273361   6.802   4.740   1.046  0.2159  0.1673  0.0849
17316TIP3   OH273362   4.311   2.537  14.987 -0.0966  0.6266 -0.4936
17316TIP3    H173363   4.259   2.480  15.044 -0.6071  1.7595  0.2199
17316TIP3    H273364   4.322   2.487  14.906  1.0457 -1.2002  0.7519
17317TIP3   OH273365   4.938   4.576   5.323  0.0871  0.4215 -0.7317
17317TIP3    H173366   4.851   4.538   5.342  0.7943 -0.7107  0.4451
17317TIP3    H273367   4.978   4.514   5.261  0.9738 -0.4186  0.6365
17318TIP3   OH273368   4.374   4.600   4.118 -0.5446  0.0795 -0.0031
17318TIP3    H173369   4.301   4.651   4.152 -0.3224 -0.2756  1.0468
17318TIP3    H273370   4.445   4.615   4.181  0.5393  1.0194 -1.3876
17319TIP3   OH273371   1.884   5.511   5.029 -0.0545 -0.5134  0.2514
17319TIP3    H173372   1.898   5.576   4.960  0.5725 -0.0169  0.8304
17319TIP3    H273373   1.933   5.545   5.104 -2.3707  0.0074  1.6153
17320TIP3   OH273374   3.069   6.166  12.789  0.0946 -0.0103  0.5011
17320TIP3    H173375   2.981   6.199  12.769  0.0896  0.0331  0.5966
17320TIP3    H273376   3.122   6.196  12.715 -0.4347 -2.0099 -0.7508
17321TIP3   OH273377   5.006   2.385   2.083 -0.0917 -0.2969  0.3493
17321TIP3    H173378   4.921   2.341   2.074  0.2130 -0.7944 -0.1948
17321TIP3    H273379   5.024   2.418   1.995 -1.4419  3.0954  1.1965
17322TIP3   OH273380   0.238   3.077  14.909  0.3767 -0.5797  0.5653
17322TIP3    H173381   0.184   3.014  14.861  0.6599  0.3181 -1.0060
17322TIP3    H273382   0.199   3.162  14.889  1.8072  0.0063  0.1083
17323TIP3   OH273383   2.826   1.972   6.456 -0.3595 -0.2804  0.2510
17323TIP3    H173384   2.751   1.988   6.399  0.2762  0.9185 -0.2886
17323TIP3    H273385   2.798   1.900   6.512 -1.2960 -0.9520 -1.0261
17324TIP3   OH273386   3.225   5.999   4.614  0.5313 -0.3051 -0.5822
17324TIP3    H173387   3.231   6.090   4.584 -1.6114  0.4703  1.1734
17324TIP3    H273388   3.195   5.951   4.537 -1.9254  1.1359 -0.6245
17325TIP3   OH273389   3.204   2.626   5.652  0.3616 -0.0023  0.1256
17325TIP3    H173390   3.237   2.565   5.586 -0.6328 -0.2158 -0.1942
17325TIP3    H273391   3.258   2.610   5.729  0.4439 -0.9312 -0.1175
17326TIP3   OH273392   4.244   6.731  12.872  0.2198 -0.0380  0.0577
17326TIP3    H173393   4.154   6.707  12.895 -0.2214  0.4543 -1.0750
17326TIP3    H273394   4.296   6.655  12.896 -0.5262 -0.4033  0.5552
17327TIP3   OH273395   5.205   2.560   4.621  0.1873  0.6023  0.4720
17327TIP3    H173396   5.124   2.517   4.647  0.6271 -0.8128 -0.3565
17327TIP3    H273397   5.271   2.525   4.681  1.1409 -2.4103 -2.0426
17328TIP3   OH273398   0.381   4.604  15.884 -0.0623  0.5051 -0.3350
17328TIP3    H173399   0.338   4.610  15.970  1.2672 -1.9005  0.5923
17328TIP3    H273400   0.316   4.563  15.827 -0.0632 -0.3729  0.2748
17329TIP3   OH273401   1.841   3.059   0.575  0.4958 -0.1746 -0.5835
17329TIP3    H173402   1.848   3.107   0.658 -0.1496 -0.2846 -0.4595
17329TIP3    H273403   1.770   3.103   0.528  0.7731 -0.1959 -1.0233
17330TIP3   OH273404   1.927   4.311  15.803  0.1189 -0.1210 -0.7266
17330TIP3    H173405   1.881   4.339  15.882 -1.9896 -1.5487 -1.3497
17330TIP3    H273406   1.958   4.223  15.823 -1.8889 -1.1857 -1.9449
17331TIP3   OH273407   5.229   2.979   1.605 -0.0168 -0.0730 -0.2368
17331TIP3    H173408   5.319   2.978   1.635 -0.2643  1.7655  0.7172
17331TIP3    H273409   5.224   3.055   1.547 -0.7731 -0.6331 -0.9332
17332TIP3   OH273410   1.281   2.440  11.522 -0.2376  0.4169  0.4819
17332TIP3    H173411   1.235   2.524  11.512 -0.3994  0.2265 -0.5298
17332TIP3    H273412   1.370   2.459  11.492 -0.2212  0.2825  0.4458
17333TIP3   OH273413   4.944   6.398   2.171 -0.0333 -0.3562  0.0073
17333TIP3    H173414   5.010   6.465   2.188  0.7561 -0.9965 -0.4902
17333TIP3    H273415   4.862   6.437   2.203  0.6490  0.2427  1.0879
17334TIP3   OH273416   3.375   1.332  13.855  0.4707 -0.5405  0.5956
17334TIP3    H173417   3.349   1.373  13.773 -1.4726 -1.2794  0.7952
17334TIP3    H273418   3.443   1.269  13.831 -0.2054 -0.8717 -0.4653
17335TIP3   OH273419   1.407   2.898  16.454 -0.5004  0.0073 -1.3171
17335TIP3    H173420   1.383   2.976  16.404 -0.1813  1.0138  0.0373
17335TIP3    H273421   1.503   2.900  16.459 -0.5538  1.4008  1.4325
17336TIP3   OH273422   5.248   6.623  10.635  0.9340 -0.3251  0.3123
17336TIP3    H173423   5.261   6.708  10.593  0.5068  1.6336  3.8376
17336TIP3    H273424   5.324   6.612  10.692  0.1540 -1.4933  1.1785
17337TIP3   OH273425   0.595   4.327   2.890 -0.3953 -0.3142 -0.3942
17337TIP3    H173426   0.664   4.302   2.951  0.8881 -0.0289 -1.6790
17337TIP3    H273427   0.613   4.277   2.811 -2.8354 -1.7191 -0.1458
17338TIP3   OH273428   1.601   6.484   0.182 -0.5450  0.4885 -0.1602
17338TIP3    H173429   1.568   6.477   0.093  1.4467  2.4163 -1.1404
17338TIP3    H273430   1.676   6.426   0.184 -1.4731 -0.7344  0.7942
17339TIP3   OH273431   0.709   2.740  11.480  0.1762 -0.0655  0.3477
17339TIP3    H173432   0.712   2.698  11.394  0.0781  2.2925 -0.8833
17339TIP3    H273433   0.627   2.710  11.518 -0.2054 -0.4829 -0.7596
17340TIP3   OH273434   4.743   4.726   4.904 -0.8484 -0.2543 -0.5008
17340TIP3    H173435   4.771   4.681   4.825  0.5962 -1.8152  0.8270
17340TIP3    H273436   4.655   4.692   4.921 -3.5314  3.7980 -4.0352
17341TIP3   OH273437   2.472   0.970  14.177 -0.4471  0.3326  0.8345
17341TIP3    H173438   2.488   1.025  14.254  1.5559 -0.2293  0.8689
17341TIP3    H273439   2.378   0.977  14.162 -0.4927  2.5053  1.7783
17342TIP3   OH273440   6.735   0.397  11.276  0.1896 -0.1537 -0.5591
17342TIP3    H173441   6.673   0.344  11.226  1.8173 -3.3804  0.5603
17342TIP3    H273442   6.798   0.428  11.211  0.2135 -1.1640 -1.0378
17343TIP3   OH273443   3.646   1.904   6.145  0.2528 -0.3048  0.0319
17343TIP3    H173444   3.704   1.833   6.173 -0.7550 -1.4692 -0.7195
17343TIP3    H273445   3.593   1.923   6.222  0.2257 -0.6920  0.1137
17344TIP3   OH273446   2.070   5.294  15.177 -0.4834 -0.0542 -0.0362
17344TIP3    H173447   2.023   5.315  15.258  0.6543  0.8321  0.4263
17344TIP3    H273448   2.157   5.269  15.206 -0.2480 -0.3140 -0.9572
17345TIP3   OH273449   4.305   3.334  16.004  0.0636 -0.0810 -0.7009
17345TIP3    H173450   4.256   3.274  15.947 -1.5651  2.9331 -2.7507
17345TIP3    H273451   4.244   3.356  16.075  1.2517 -1.9874  1.0165
17346TIP3   OH273452   6.048   3.599  12.943 -0.3815  0.0108  0.2470
17346TIP3    H173453   6.073   3.531  12.880 -0.1403  0.5804 -0.2803
17346TIP3    H273454   6.083   3.680  12.906  1.6094  0.0937  2.1269
17347TIP3   OH273455   5.873   1.335  14.547  0.0808 -0.4746 -0.4461
17347TIP3    H173456   5.790   1.306  14.509 -0.1422  1.2613 -1.4103
17347TIP3    H273457   5.903   1.404  14.488  1.0183  0.5848  1.1845
17348TIP3   OH273458   2.079   2.929  16.154  0.4677 -0.3482 -0.0102
17348TIP3    H173459   2.170   2.913  16.128  0.4905  1.4622 -1.2743
17348TIP3    H273460   2.084   3.000  16.218 -0.1073  1.2617 -1.6470
17349TIP3   OH273461   0.853   2.735   3.716 -0.3770 -0.3276 -0.1963
17349TIP3    H173462   0.843   2.795   3.641  3.7042  0.3635 -0.4361
17349TIP3    H273463   0.855   2.793   3.792  2.2947 -0.1502 -0.3120
17350TIP3   OH273464   3.702   0.258   5.137  0.0892  0.6605 -0.1896
17350TIP3    H173465   3.742   0.345   5.139  1.6829 -0.0035 -1.0464
17350TIP3    H273466   3.701   0.235   5.044  1.4735 -0.9972  0.1694
17351TIP3   OH273467   4.709   5.099  12.718 -0.8432  0.2854  0.2928
17351TIP3    H173468   4.632   5.156  12.722 -0.8161  0.3083  0.5129
17351TIP3    H273469   4.674   5.013  12.697 -0.6624  0.8478 -2.7573
17352TIP3   OH273470   2.992   4.561   2.236 -0.0705  0.1395  0.0627
17352TIP3    H173471   2.896   4.558   2.234 -0.1549  1.9240 -0.6234
17352TIP3    H273472   3.013   4.589   2.325 -0.1207 -1.2596  0.5304
17353TIP3   OH273473   6.368   3.998   4.287 -0.0517 -0.7276  0.0615
17353TIP3    H173474   6.375   3.913   4.244 -1.4921 -1.1353  0.5510
17353TIP3    H273475   6.302   4.045   4.236  0.5164 -0.0131 -0.0228
17354TIP3   OH273476   6.371   0.739  11.077  0.2155 -0.1444 -0.0868
17354TIP3    H173477   6.371   0.831  11.050  0.7350 -1.0513 -3.7373
17354TIP3    H273478   6.454   0.727  11.122  1.4813  0.6438 -2.0611
17355TIP3   OH273479   1.749   1.786  15.857  0.1543 -0.3605 -0.3351
17355TIP3    H173480   1.656   1.801  15.873  0.1347 -1.7263  1.0582
17355TIP3    H273481   1.765   1.823  15.770 -2.0396 -1.4356 -1.2768
17356TIP3   OH273482   0.755   6.448   3.000  0.0353  0.4194  0.1570
17356TIP3    H173483   0.732   6.355   2.994  0.1025  0.4635 -0.9860
17356TIP3    H273484   0.822   6.451   3.068 -1.9509  0.0433  2.2556
17357TIP3   OH273485   3.975   5.095  14.463 -0.6182 -1.0612  0.0022
17357TIP3    H173486   3.943   5.006  14.452 -0.4105 -0.8950 -2.6139
17357TIP3    H273487   3.897   5.150  14.458 -0.4969 -0.9676 -1.1207
17358TIP3   OH273488   2.905   5.748  10.947  0.1404 -0.0163  0.8059
17358TIP3    H173489   2.934   5.832  10.912  1.7397 -0.6876  0.4081
17358TIP3    H273490   2.825   5.768  10.995 -0.8171  1.3379 -1.2125
17359TIP3   OH273491   0.612   1.456  13.267 -0.0405 -0.0979 -0.6116
17359TIP3    H173492   0.600   1.522  13.335  0.5021  0.1814 -0.7861
17359TIP3    H273493   0.596   1.372  13.311  0.3543  0.0794 -0.1350
17360TIP3   OH273494   5.601   5.083  16.729  0.4107 -0.1781  0.7969
17360TIP3    H173495   5.537   5.017  16.704  1.2080 -1.2336  1.4784
17360TIP3    H273496   5.643   5.108  16.647 -0.8722  0.5534  0.3393
17361TIP3   OH273497   1.854   3.890   6.254  0.3908 -0.1320 -0.4667
17361TIP3    H173498   1.760   3.907   6.243  0.3194 -1.6845 -2.8013
17361TIP3    H273499   1.859   3.832   6.330 -0.4030  0.6840  0.2441
17362TIP3   OH273500   4.599   5.247  12.246  0.8805 -0.3320 -0.4552
17362TIP3    H173501   4.507   5.259  12.223  1.2514 -0.8945 -2.3843
17362TIP3    H273502   4.597   5.201  12.331 -0.6120 -0.7258 -0.6778
17363TIP3   OH273503   6.100   1.606   6.790 -0.1174  0.3996  0.3857
17363TIP3    H173504   6.064   1.661   6.720  1.4616  0.1837 -0.6410
17363TIP3    H273505   6.129   1.526   6.745  0.1824 -0.0825  1.4181
17364TIP3   OH273506   0.853   2.359  11.484  0.1345  0.5694 -0.1462
17364TIP3    H173507   0.847   2.425  11.415 -1.9328  0.8723  0.2735
17364TIP3    H273508   0.781   2.298  11.467 -1.3539  1.4280  2.4510
17365TIP3   OH273509   0.428   6.715   4.595  0.1921  0.1840  0.1145
17365TIP3    H173510   0.372   6.772   4.648 -0.9690 -1.3672  0.6556
17365TIP3    H273511   0.373   6.689   4.522 -0.3873 -2.4807  1.3805
17366TIP3   OH273512   1.295   1.625   3.979 -0.3484  0.4478 -0.0226
17366TIP3    H173513   1.298   1.554   4.043  2.2390  0.5427  0.0957
17366TIP3    H273514   1.301   1.580   3.894  0.8552  0.4633  0.0354
17367TIP3   OH273515   3.270   5.946  10.419 -0.1463  0.2750 -0.0771
17367TIP3    H173516   3.305   5.898  10.343 -0.4873 -1.0017  0.5320
17367TIP3    H273517   3.236   6.028  10.383  0.1057 -0.1145 -1.2352
17368TIP3   OH273518   3.588   4.066   1.936  0.5127  0.1462 -0.6058
17368TIP3    H173519   3.574   4.151   1.978  1.0752  0.1638 -0.4404
17368TIP3    H273520   3.551   4.075   1.849  0.8713  0.6738 -0.7066
17369TIP3   OH273521   5.603   4.390   0.695 -0.3697  0.4951 -0.2507
17369TIP3    H173522   5.576   4.329   0.626  2.2269  0.7948 -1.6707
17369TIP3    H273523   5.558   4.472   0.675  1.4446  1.0232 -2.5813
17370TIP3   OH273524   6.137   2.145   2.256  0.1177 -0.1251 -0.1279
17370TIP3    H173525   6.215   2.151   2.312  1.2332 -1.9399 -1.3966
17370TIP3    H273526   6.111   2.053   2.261 -1.4013  0.2539 -0.4898
17371TIP3   OH273527   0.080   2.869  11.281 -0.1074  0.1080  0.1139
17371TIP3    H173528   0.108   2.853  11.371  0.0157 -0.2980  0.0021
17371TIP3    H273529   0.128   2.805  11.228 -0.0183  0.4862 -0.2684
17372TIP3   OH273530   4.677   5.214  16.592  0.5357  0.0972  0.3585
17372TIP3    H173531   4.733   5.223  16.668  0.5221 -1.6510  0.6095
17372TIP3    H273532   4.601   5.269  16.612  1.4550  1.2878  0.6708
17373TIP3   OH273533   3.354   0.350  12.871  0.0956 -0.4217 -0.3181
17373TIP3    H173534   3.439   0.392  12.886  0.2348 -0.4207 -1.0657
17373TIP3    H273535   3.290   0.415  12.899  0.3031  0.4690 -1.8100
17374TIP3   OH273536   1.862   3.395   0.719 -0.4393 -0.1175 -0.3509
17374TIP3    H173537   1.832   3.340   0.791  1.8185  0.8847  1.5122
17374TIP3    H273538   1.798   3.467   0.715 -1.2714 -0.8380 -0.2007
17375TIP3   OH273539   1.984   6.361   3.843 -0.4241  0.0499  0.3639
17375TIP3    H173540   2.008   6.450   3.869  1.6574 -0.0186 -1.1343
17375TIP3    H273541   2.010   6.354   3.751 -1.8887 -1.6672  0.0168
17376TIP3   OH273542   0.131   2.850  16.040 -0.5325 -0.3813 -0.8842
17376TIP3    H173543   0.203   2.913  16.049 -0.2347 -0.8944  0.8186
17376TIP3    H273544   0.160   2.789  15.973  0.8373 -0.8028  0.0448
17377TIP3   OH273545   0.722   6.626  12.247  0.0823  0.0356  0.0017
17377TIP3    H173546   0.655   6.692  12.226  0.8179  0.3194 -1.6027
17377TIP3    H273547   0.681   6.542  12.226 -1.2686 -0.2066  3.1163
17378TIP3   OH273548   4.500   3.557  13.622  0.1369 -0.4927  0.1312
17378TIP3    H173549   4.503   3.474  13.573  0.4686 -0.3773 -0.0509
17378TIP3    H273550   4.590   3.569  13.653  0.6876  0.9789 -1.8449
17379TIP3   OH273551   0.812   6.177   5.203  0.5309 -0.0939  0.3741
17379TIP3    H173552   0.759   6.194   5.281  0.4163  0.5998  0.1526
17379TIP3    H273553   0.760   6.213   5.131  0.7165 -0.5760 -0.0010
17380TIP3   OH273554   3.648   4.894  11.649  0.0683 -0.1764  0.5486
17380TIP3    H173555   3.712   4.842  11.601  0.6633  0.6517  0.4344
17380TIP3    H273556   3.631   4.843  11.729  2.2546  0.4418  1.4769
17381TIP3   OH273557   0.419   1.566   0.354  0.6083  0.5666  0.9079
17381TIP3    H173558   0.391   1.517   0.431  2.1111  0.4081  1.3810
17381TIP3    H273559   0.374   1.523   0.281 -1.9496  1.5715  1.7526
17382TIP3   OH273560   6.014   2.948   0.736 -0.2777 -0.1798 -0.6204
17382TIP3    H173561   5.919   2.941   0.725 -0.3389  1.3943 -1.3755
17382TIP3    H273562   6.050   2.906   0.657 -0.3874  0.0916 -0.8179
17383TIP3   OH273563   5.699   1.101   2.585  0.3541  0.6102  0.6224
17383TIP3    H173564   5.720   1.177   2.530  1.8506 -1.5408 -2.0475
17383TIP3    H273565   5.779   1.083   2.633  0.6984 -0.3724 -0.2689
17384TIP3   OH273566   6.349   6.265  15.858  0.6293  0.3254 -0.2252
17384TIP3    H173567   6.267   6.306  15.884  0.9107  1.1952 -0.6980
17384TIP3    H273568   6.344   6.176  15.894 -0.4815  0.3969 -0.1901
17385TIP3   OH273569   0.528   4.239   4.663  0.1429  0.0798  0.8758
17385TIP3    H173570   0.602   4.182   4.643  0.1495 -0.0443  1.2494
17385TIP3    H273571   0.481   4.194   4.733 -0.9653 -0.4364 -0.1521
17386TIP3   OH273572   4.869   2.753  12.572 -0.1442 -0.3966 -0.3546
17386TIP3    H173573   4.955   2.764  12.531 -0.5449  0.4315 -0.9943
17386TIP3    H273574   4.888   2.723  12.661  0.8381  0.5875 -0.2183
17387TIP3   OH273575   6.337   1.280   5.875 -0.2773  0.2954 -0.4251
17387TIP3    H173576   6.382   1.278   5.960  2.8445 -2.3804 -1.9233
17387TIP3    H273577   6.246   1.260   5.895  0.1881  0.5989  2.3524
17388TIP3   OH273578   2.633   0.921   3.891  0.2948 -0.2217  0.8553
17388TIP3    H173579   2.609   0.839   3.934 -2.7122 -0.1609 -0.4442
17388TIP3    H273580   2.652   0.897   3.801 -0.1829  0.4203  0.5724
17389TIP3   OH273581   1.450   2.006  11.408 -0.5132 -0.0562  0.3153
17389TIP3    H173582   1.411   2.067  11.471  1.4092 -0.7306  2.2712
17389TIP3    H273583   1.442   1.920  11.449  0.4410 -0.5786 -0.5443
17390TIP3   OH273584   1.151   4.345  14.073 -0.5296 -0.0558 -0.1707
17390TIP3    H173585   1.206   4.410  14.029 -1.7297  0.9535 -0.2100
17390TIP3    H273586   1.199   4.324  14.153  0.1609  0.4110 -0.4514
17391TIP3   OH273587   3.013   5.621   2.441 -0.5390 -0.6168  0.0032
17391TIP3    H173588   3.086   5.638   2.501 -0.1126  0.7001 -0.8583
17391TIP3    H273589   2.939   5.668   2.480 -0.5523 -0.7071  0.0882
17392TIP3   OH273590   0.251   0.097  11.112  0.2572 -0.0582  0.6423
17392TIP3    H173591   0.172   0.045  11.100  0.6510 -0.8090  1.1771
17392TIP3    H273592   0.254   0.155  11.036  1.1242 -2.5557 -1.3703
17393TIP3   OH273593   4.596   3.389  11.077 -0.8251  0.2401 -0.0662
17393TIP3    H173594   4.527   3.324  11.067 -0.5043  0.2048 -2.7564
17393TIP3    H273595   4.660   3.367  11.009  0.3552  2.0727  0.3718
17394TIP3   OH273596   5.789   0.621   3.312 -0.4850  0.2675  0.1810
17394TIP3    H173597   5.879   0.646   3.332 -0.4247 -0.4439  0.8278
17394TIP3    H273598   5.751   0.700   3.272  0.5376  0.4436 -0.4971
17395TIP3   OH273599   5.840   5.246  11.917 -0.2634  0.2188  0.4477
17395TIP3    H173600   5.746   5.233  11.905 -0.1446  0.3471 -0.7145
17395TIP3    H273601   5.880   5.176  11.865  0.3011  1.5378 -0.9564
17396TIP3   OH273602   5.041   4.464  11.442  0.2036 -0.6083  0.2675
17396TIP3    H173603   5.044   4.380  11.396 -1.1528 -0.9533  0.7742
17396TIP3    H273604   5.018   4.442  11.532 -1.4233  0.3808  0.1305
17397TIP3   OH273605   3.121   6.171   5.668 -0.0099  0.8318  0.6098
17397TIP3    H173606   3.090   6.242   5.725  1.0387  1.8765 -0.0920
17397TIP3    H273607   3.076   6.186   5.585  2.2593  2.3716 -0.4261
17398TIP3   OH273608   2.328   6.269   0.323  0.1316  0.0077 -0.1879
17398TIP3    H173609   2.245   6.223   0.309  1.0679 -1.7473 -0.2973
17398TIP3    H273610   2.323   6.298   0.414  0.0291 -1.5523  0.3458
17399TIP3   OH273611   3.145   5.245   4.761 -0.0144 -0.2934 -0.3608
17399TIP3    H173612   3.093   5.165   4.752  0.2895 -0.3797 -1.4486
17399TIP3    H273613   3.129   5.273   4.852  0.1889 -1.7897  0.1721
17400TIP3   OH273614   6.323   5.821   2.831 -0.2106 -0.3446  0.7242
17400TIP3    H173615   6.257   5.764   2.791  0.2620 -1.5073  1.5362
17400TIP3    H273616   6.273   5.875   2.893 -0.7567  0.6112 -0.5193
17401TIP3   OH273617   4.512   6.371  14.030 -0.3066  0.2658  0.2018
17401TIP3    H173618   4.553   6.290  14.000 -1.4717 -1.1182  2.1230
17401TIP3    H273619   4.418   6.351  14.029 -0.5004  0.5513  3.3075
17402TIP3   OH273620   2.223   4.206  15.705 -0.1428 -0.1734  0.2488
17402TIP3    H173621   2.140   4.245  15.733  0.3491  0.4553  0.8462
17402TIP3    H273622   2.264   4.176  15.786  0.4161 -0.0921 -0.0039
17403TIP3   OH273623   1.130   5.209  16.789 -0.0545  0.0076 -0.2641
17403TIP3    H173624   1.211   5.158  16.792  0.0927  0.1323 -1.6314
17403TIP3    H273625   1.122   5.237  16.698 -1.3550  0.4579 -0.0371
17404TIP3   OH273626   3.979   2.880  13.931  1.0612 -0.2507  0.4557
17404TIP3    H173627   3.985   2.855  14.023  1.2891 -1.5799  0.1037
17404TIP3    H273628   4.008   2.971  13.929 -0.0405  0.1676  1.8505
17405TIP3   OH273629   6.291   1.815  12.077  0.6162  0.1334  1.2445
17405TIP3    H173630   6.200   1.787  12.070 -0.2003  2.0813  2.9007
17405TIP3    H273631   6.332   1.784  11.996 -1.0945 -2.1467  1.1667
17406TIP3   OH273632   6.520   4.301   3.968 -0.1706  0.4274 -0.0272
17406TIP3    H173633   6.577   4.267   4.037  1.4888  1.4597 -0.8246
17406TIP3    H273634   6.442   4.331   4.015  0.6413  0.5282  1.3266
17407TIP3   OH273635   5.966   2.868   4.687  0.2538 -0.0429 -0.5029
17407TIP3    H173636   5.896   2.927   4.714  0.4818 -0.0692  0.1876
17407TIP3    H273637   6.045   2.906   4.727  0.6488  0.0467 -1.3587
17408TIP3   OH273638   0.982   0.131  15.241 -0.5930  0.2934 -0.1810
17408TIP3    H173639   0.911   0.083  15.284 -1.6366  0.4962 -1.6050
17408TIP3    H273640   1.061   0.080  15.260 -1.5221 -1.4703 -0.8512
17409TIP3   OH273641   4.774   5.077   3.879  0.5852 -0.1079 -0.0542
17409TIP3    H173642   4.844   5.116   3.827 -0.1243  0.3960 -0.6620
17409TIP3    H273643   4.723   5.151   3.910 -0.9257 -0.5248 -1.4221
17410TIP3   OH273644   5.959   5.299   4.230 -0.2969  0.5869  0.1795
17410TIP3    H173645   5.944   5.385   4.269 -0.2085 -0.6207  3.0990
17410TIP3    H273646   5.876   5.253   4.241  0.2622 -0.3660  0.4930
17411TIP3   OH273647   3.096   2.494   1.252 -0.3736  0.3409 -0.0908
17411TIP3    H173648   3.167   2.534   1.201 -0.4642 -0.5728 -0.9549
17411TIP3    H273649   3.019   2.547   1.231 -0.2591  0.4223 -0.3084
17412TIP3   OH273650   3.105   3.436   4.501 -0.0334  0.3258  0.1172
17412TIP3    H173651   3.096   3.478   4.415  0.4097 -0.3650 -0.2699
17412TIP3    H273652   3.017   3.403   4.521  0.0443 -0.2275 -0.4458
17413TIP3   OH273653   3.184   5.729  15.767 -0.4032  0.5201 -0.0396
17413TIP3    H173654   3.138   5.803  15.727  0.5670  0.4232 -1.4325
17413TIP3    H273655   3.276   5.758  15.771 -0.0082 -0.5789 -0.6174
17414TIP3   OH273656   5.505   0.924   2.607  0.3900  0.2026  0.2240
17414TIP3    H173657   5.418   0.963   2.619 -0.3672 -0.0104 -3.5358
17414TIP3    H273658   5.564   0.999   2.600 -0.3321  0.6112 -2.2049
17415TIP3   OH273659   4.924   0.882  12.296  0.9237 -0.0548  0.5175
17415TIP3    H173660   4.997   0.830  12.262  1.1887  0.7558 -0.1767
17415TIP3    H273661   4.964   0.938  12.363  1.0569  0.8250 -0.2938
17416TIP3   OH273662   2.657   2.902  11.615 -0.1797 -0.1453  0.0936
17416TIP3    H173663   2.604   2.976  11.646 -0.3782 -0.1484 -0.2291
17416TIP3    H273664   2.715   2.941  11.549  0.7313 -0.0013  0.9546
17417TIP3   OH273665   2.744   4.411  15.738  0.1876  0.2344 -0.4125
17417TIP3    H173666   2.748   4.502  15.767 -2.3063  0.2356  0.1666
17417TIP3    H273667   2.816   4.368  15.784  0.5692  1.6480  0.3687
17418TIP3   OH273668   1.545   1.654   0.240 -0.1855 -0.1651  0.5982
17418TIP3    H173669   1.515   1.610   0.160  1.0437  0.3437 -0.1766
17418TIP3    H273670   1.610   1.594   0.278 -0.5054 -0.2440  1.0271
17419TIP3   OH273671   3.547   5.357   0.200 -0.0116 -0.6566 -0.2822
17419TIP3    H173672   3.610   5.366   0.128  0.4035 -1.2690 -0.0026
17419TIP3    H273673   3.601   5.347   0.278 -0.4077  2.3944  0.5022
17420TIP3   OH273674   1.341   0.258  15.821  0.3994  0.5262  0.5298
17420TIP3    H173675   1.412   0.320  15.808  1.6909 -0.7284  1.3226
17420TIP3    H273676   1.285   0.268  15.744  1.2541  1.7514  0.0467
17421TIP3   OH273677   5.965   4.213  16.489  0.1973  0.3974  0.6560
17421TIP3    H173678   5.904   4.265  16.541 -0.8580 -1.7892  1.7009
17421TIP3    H273679   6.034   4.189  16.551  0.4396  0.1712  0.2993
17422TIP3   OH273680   1.478   1.497   6.348  0.1067  0.2156  0.6814
17422TIP3    H173681   1.383   1.503   6.341  0.1443  0.3063  0.2079
17422TIP3    H273682   1.494   1.409   6.383 -0.1768  0.4528  1.4155
17423TIP3   OH273683   0.225   3.285  12.347  0.2188 -0.3914 -0.2971
17423TIP3    H173684   0.174   3.358  12.310  0.2414 -0.5562 -0.6571
17423TIP3    H273685   0.174   3.207  12.325 -0.6301 -0.3843  1.4595
17424TIP3   OH273686   6.186   5.294  14.514  0.3298  0.0059 -0.2762
17424TIP3    H173687   6.225   5.295  14.427  4.8439 -2.7723  1.3402
17424TIP3    H273688   6.127   5.218  14.513 -0.4310  0.6061 -1.1721
17425TIP3   OH273689   3.843   6.219   3.477  0.1796  0.2314  0.0238
17425TIP3    H173690   3.821   6.158   3.548  1.1630 -0.5025 -0.2684
17425TIP3    H273691   3.938   6.212   3.469  0.2511  1.4326 -0.3702
17426TIP3   OH273692   3.987   2.266  12.393  0.2031 -0.1301  0.8491
17426TIP3    H173693   4.059   2.203  12.405 -0.4083 -0.6740  1.8198
17426TIP3    H273694   3.915   2.214  12.359  0.2415  0.4043 -0.0704
17427TIP3   OH273695   2.573   1.402   4.016 -0.2835 -0.0281  0.3618
17427TIP3    H173696   2.608   1.316   3.995  0.8667 -0.5396  3.8415
17427TIP3    H273697   2.581   1.410   4.111 -1.0224  3.6436  0.2868
17428TIP3   OH273698   1.506   1.838   3.940  0.0186 -0.3318  0.1188
17428TIP3    H173699   1.515   1.870   3.849 -2.5135  0.4616  0.0635
17428TIP3    H273700   1.432   1.778   3.937  0.1322 -0.5802  1.6216
17429TIP3   OH273701   1.729   3.032   5.274 -0.6849  0.1177 -0.1139
17429TIP3    H173702   1.818   3.052   5.302 -0.5477  0.5958 -0.8607
17429TIP3    H273703   1.673   3.075   5.340 -0.3688 -0.0572  0.2719
17430TIP3   OH273704   5.847   5.177   5.050 -0.0627 -0.3931 -0.5561
17430TIP3    H173705   5.911   5.106   5.053 -1.9445 -2.2026 -0.7718
17430TIP3    H273706   5.866   5.223   4.968  0.1846 -1.6583 -1.2204
17431TIP3   OH273707   4.858   6.703   3.763  0.5684  0.0057 -0.3592
17431TIP3    H173708   4.790   6.645   3.798 -0.4715  3.0415  3.2954
17431TIP3    H273709   4.820   6.739   3.684 -1.2266  0.0061  0.4567
17432TIP3   OH273710   5.869   4.376   4.693 -0.1360  0.2697  0.1044
17432TIP3    H173711   5.956   4.416   4.689  0.8287 -1.7005  0.1789
17432TIP3    H273712   5.883   4.285   4.666 -2.8468  0.7853 -3.8899
17433TIP3   OH273713   0.433   2.826  15.782 -0.1686  0.6220  0.5115
17433TIP3    H173714   0.371   2.753  15.783  0.4085  0.1239  1.5372
17433TIP3    H273715   0.404   2.883  15.853 -0.9277  1.6876 -0.6145
17434TIP3   OH273716   4.714   1.348  12.068  0.1256  0.3101 -0.7244
17434TIP3    H173717   4.741   1.259  12.087  0.6947  0.3046 -1.4967
17434TIP3    H273718   4.703   1.389  12.154 -1.1200 -0.7706 -0.3297
17435TIP3   OH273719   2.190   5.849   4.231  0.4039 -0.0244 -0.4540
17435TIP3    H173720   2.226   5.881   4.148  1.1280  0.5699  0.0739
17435TIP3    H273721   2.220   5.912   4.296  0.4613 -0.8783  0.3714
17436TIP3   OH273722   2.548   4.608   3.748 -0.1967 -0.2378 -0.1211
17436TIP3    H173723   2.538   4.696   3.784 -0.8037 -0.4497  0.2507
17436TIP3    H273724   2.642   4.591   3.753 -0.0111  0.5829 -0.6832
17437TIP3   OH273725   1.071   6.679   0.590  0.6959  0.0852  0.1045
17437TIP3    H173726   1.094   6.731   0.668  2.2237  0.9505 -0.8632
17437TIP3    H273727   1.055   6.591   0.623  1.2243  0.4581  1.4141
17438TIP3   OH273728   4.194   2.775   0.478  0.2361 -0.0194  0.1092
17438TIP3    H173729   4.150   2.710   0.424  1.2247 -0.6552  0.0564
17438TIP3    H273730   4.287   2.761   0.463  0.5352 -0.0055  1.7166
17439TIP3   OH273731   2.558   5.183   0.781  0.1240  0.5765  0.4648
17439TIP3    H173732   2.595   5.115   0.837 -2.3026 -1.3653 -0.1073
17439TIP3    H273733   2.484   5.218   0.831 -2.9660 -2.1326 -1.7441
17440TIP3   OH273734   2.346   1.714   1.499 -0.4034  0.1163 -0.0360
17440TIP3    H173735   2.297   1.778   1.448 -0.0188 -0.9182 -1.8006
17440TIP3    H273736   2.435   1.748   1.500 -0.1810 -0.3813 -1.0453
17441TIP3   OH273737   0.961   0.565   5.936 -0.0929 -0.5227  0.1232
17441TIP3    H173738   0.890   0.628   5.939  0.4437  0.1131 -0.2568
17441TIP3    H273739   0.922   0.483   5.965 -0.9743 -0.1790 -0.0732
17442TIP3   OH273740   2.832   2.147   4.063  0.1893  0.5204 -0.2594
17442TIP3    H173741   2.821   2.193   4.146  0.6799  1.1230 -0.5190
17442TIP3    H273742   2.743   2.130   4.032 -0.0449 -1.2464  1.2017
17443TIP3   OH273743   0.120   1.558  12.365  0.2928 -0.1541 -0.3307
17443TIP3    H173744   0.091   1.534  12.453 -1.2722  0.8756 -0.5367
17443TIP3    H273745   0.095   1.650  12.356 -0.5476 -0.5248 -2.2304
17444TIP3   OH273746   4.744   5.294  14.553  0.1972 -0.2011 -0.1278
17444TIP3    H173747   4.812   5.284  14.619 -0.2624  0.4906  0.4767
17444TIP3    H273748   4.710   5.383  14.567 -0.3228 -0.2636 -0.9002
17445TIP3   OH273749   3.387   5.199   2.280  0.0363 -0.0120  0.0120
17445TIP3    H173750   3.480   5.186   2.303 -0.0029 -0.4177 -0.0391
17445TIP3    H273751   3.356   5.111   2.258 -0.5598 -0.0025  0.7683
17446TIP3   OH273752   0.264   6.728   6.855 -0.5400 -0.3380  0.5210
17446TIP3    H173753   0.351   6.767   6.851  0.0194 -1.4026  1.8722
17446TIP3    H273754   0.229   6.757   6.939 -1.3640 -0.2245  0.1521
17447TIP3   OH273755   0.560   6.356   0.540  0.5120  0.5974 -0.5563
17447TIP3    H173756   0.623   6.295   0.579 -0.7308 -0.3983 -0.0118
17447TIP3    H273757   0.588   6.442   0.570  0.3749 -0.0081  1.5282
17448TIP3   OH273758   2.953   6.349   3.144 -0.0740 -0.2146 -0.5289
17448TIP3    H173759   2.963   6.396   3.060  0.9865 -1.6141 -1.2239
17448TIP3    H273760   2.863   6.317   3.143 -0.0572 -0.2574 -1.1597
17449TIP3   OH273761   4.131   2.355  11.870 -0.3665  0.0919 -0.0024
17449TIP3    H173762   4.112   2.439  11.827  3.8393  0.2141 -2.0987
17449TIP3    H273763   4.132   2.376  11.963 -0.9330  1.9859 -0.3683
17450TIP3   OH273764   1.032   2.046  14.690 -0.1121 -0.3477 -0.6779
17450TIP3    H173765   0.972   2.114  14.658  0.8016  0.3521 -0.9406
17450TIP3    H273766   0.985   2.005  14.762 -1.5149 -0.8000 -1.7986
17451TIP3   OH273767   3.657   1.983  13.910 -0.2848  0.4522 -0.0180
17451TIP3    H173768   3.627   1.971  13.820  0.7030  0.7139 -0.4016
17451TIP3    H273769   3.577   1.996  13.961 -0.9448 -0.8955 -0.6597
17452TIP3   OH273770   4.107   1.077  11.043 -0.1316  0.1623 -0.5260
17452TIP3    H173771   4.075   1.166  11.028 -1.4824 -0.3817 -0.9542
17452TIP3    H273772   4.117   1.039  10.956  1.2662  0.1479 -0.3887
17453TIP3   OH273773   3.607   5.184  12.068  0.2314  0.7556 -0.7780
17453TIP3    H173774   3.525   5.232  12.056 -1.2980 -1.4772  0.2788
17453TIP3    H273775   3.631   5.156  11.979 -0.5276  0.8370 -1.0169
17454TIP3   OH273776   3.499   5.763  14.625 -0.0810 -0.0633  0.3134
17454TIP3    H173777   3.486   5.718  14.708  0.7052  0.6210  0.8225
17454TIP3    H273778   3.578   5.724  14.587 -0.9102 -0.9744 -0.5480
17455TIP3   OH273779   2.152   1.289   1.671 -0.6855  0.8597 -0.3742
17455TIP3    H173780   2.139   1.236   1.592  0.5496 -0.5689  0.3259
17455TIP3    H273781   2.160   1.379   1.639  0.3720  0.2455 -1.9487
17456TIP3   OH273782   4.826   1.181  15.889  0.2737  0.3601 -0.3039
17456TIP3    H173783   4.828   1.133  15.807  0.2833 -1.7427  0.8618
17456TIP3    H273784   4.733   1.189  15.910  0.2541  1.2454 -0.6959
17457TIP3   OH273785   6.017   2.805  16.422  0.2658 -0.1683  0.4027
17457TIP3    H173786   5.994   2.740  16.355  0.2268  0.7051 -0.4531
17457TIP3    H273787   6.111   2.794  16.435  0.2782 -0.3175  0.1885
17458TIP3   OH273788   2.699   6.203   3.201  0.4219  0.0645  0.0928
17458TIP3    H173789   2.643   6.126   3.209  0.1166  0.1472 -1.0384
17458TIP3    H273790   2.671   6.261   3.272 -3.4092  1.6053 -2.3760
17459TIP3   OH273791   3.600   6.479   2.544  0.6467 -0.8359 -0.4639
17459TIP3    H173792   3.598   6.543   2.614  0.8104  0.2777 -1.4499
17459TIP3    H273793   3.513   6.483   2.505  0.6336 -1.2733 -0.4830
17460TIP3   OH273794   4.071   6.322   5.249 -0.1697 -0.0848 -0.2056
17460TIP3    H173795   4.056   6.381   5.175 -0.1009  0.9769  0.5991
17460TIP3    H273796   4.122   6.374   5.311 -1.6131 -0.3782  1.3020
17461TIP3   OH273797   1.190   2.841  12.280 -0.0879 -0.1307  0.4123
17461TIP3    H173798   1.104   2.881  12.273  0.3737  1.9012  4.0654
17461TIP3    H273799   1.245   2.890  12.219 -1.2389 -0.9076 -1.3336
17462TIP3   OH273800   2.926   0.729  12.571  0.4972 -0.4393  0.1593
17462TIP3    H173801   2.881   0.755  12.652  0.7898  0.0062  0.1838
17462TIP3    H273802   2.988   0.662  12.599 -0.0559 -0.9683  0.1467
17463TIP3   OH273803   6.592   0.904  14.846 -0.1844 -0.0116  0.3417
17463TIP3    H173804   6.617   0.814  14.866  1.0918 -0.5648 -3.0898
17463TIP3    H273805   6.663   0.958  14.882  1.0923 -0.7694 -0.9576
17464TIP3   OH273806   2.926   0.286  15.007  0.0415 -0.2985 -0.5903
17464TIP3    H173807   2.831   0.278  15.003 -0.0388  0.4784 -0.4990
17464TIP3    H273808   2.955   0.209  15.054 -0.8247  0.9964  2.2849
17465TIP3   OH273809   5.107   2.072   3.039 -0.1796 -0.1108 -0.1606
17465TIP3    H173810   5.148   2.050   3.122 -0.7326  1.4423  0.5464
17465TIP3    H273811   5.161   2.027   2.973  0.1227 -1.5422  1.0163
17466TIP3   OH273812   2.249   0.226  15.263  0.3172 -0.1076  0.2760
17466TIP3    H173813   2.326   0.211  15.318  1.6573  0.8406 -1.2519
17466TIP3    H273814   2.205   0.301  15.303  0.1033 -0.7276  1.2261
17467TIP3   OH273815   1.687   0.775   0.722  0.2930 -0.0415 -0.5759
17467TIP3    H173816   1.758   0.754   0.661  0.0899 -0.5735 -0.6295
17467TIP3    H273817   1.669   0.868   0.706  1.8537  0.4590  0.3391
17468TIP3   OH273818   1.470   2.473  12.339  0.1929  0.6392 -0.4978
17468TIP3    H173819   1.376   2.492  12.345  0.1167  0.0460  0.3886
17468TIP3    H273820   1.479   2.386  12.377  1.5042  1.9541  2.5823
17469TIP3   OH273821   0.209   0.451  16.557 -0.0400 -0.5213  0.2991
17469TIP3    H173822   0.176   0.403  16.632 -1.5065  0.2998  0.2009
17469TIP3    H273823   0.203   0.543  16.582 -1.4215 -0.1786 -1.1209
17470TIP3   OH273824   0.672   5.029  12.875 -0.3992 -0.2320  0.5407
17470TIP3    H173825   0.719   5.053  12.954  0.8391 -0.2435 -0.1527
17470TIP3    H273826   0.688   4.935  12.866  0.1820 -0.0853 -0.1359
17471TIP3   OH273827   0.061   4.509   1.620  0.1622  0.0804  0.2724
17471TIP3    H173828  -0.031   4.490   1.605  0.1702  0.5865 -0.4424
17471TIP3    H273829   0.066   4.534   1.712 -0.6396  1.4176 -0.0364
17472TIP3   OH273830   1.410   3.308   1.298 -0.5183  0.0643  0.0151
17472TIP3    H173831   1.491   3.257   1.295  0.0063  0.9277 -0.8503
17472TIP3    H273832   1.432   3.384   1.352 -0.5676  0.6018 -0.7141
17473TIP3   OH273833   0.817   3.322   2.039 -0.5043  0.3640 -0.4138
17473TIP3    H173834   0.785   3.245   1.992  0.7482  0.5659 -1.6451
17473TIP3    H273835   0.857   3.377   1.972  0.8132  0.9455  0.7897
17474TIP3   OH273836   1.713   2.520  15.245 -0.1011  0.6665 -0.2302
17474TIP3    H173837   1.756   2.444  15.283  0.3866  0.3383 -1.3911
17474TIP3    H273838   1.683   2.571  15.321 -1.6794 -1.3291  0.5772
17475TIP3   OH273839   5.639   5.821  14.027 -0.2066 -0.0793 -0.3224
17475TIP3    H173840   5.694   5.892  14.060 -1.5811 -0.0201  2.1197
17475TIP3    H273841   5.675   5.799  13.941  1.3028  2.3930 -0.3906
17476TIP3   OH273842   4.424   3.345  13.465 -0.4346  0.5138 -0.0538
17476TIP3    H173843   4.373   3.300  13.532 -0.7193  1.8012  0.6330
17476TIP3    H273844   4.416   3.290  13.387 -4.7055  1.6524 -0.6775
17477TIP3   OH273845   2.085   3.652   5.282 -0.0493 -0.0021 -0.0210
17477TIP3    H173846   2.088   3.646   5.378  0.1488 -1.8544 -0.1076
17477TIP3    H273847   2.143   3.726   5.261 -0.7360  0.9535  1.3073
17478TIP3   OH273848   5.612   4.771  13.247  0.6512  0.0758 -0.6208
17478TIP3    H173849   5.587   4.720  13.324  1.4107 -0.3329 -0.6383
17478TIP3    H273850   5.696   4.735  13.220  0.5723  0.4637 -1.4245
17479TIP3   OH273851   4.920   5.516   5.375 -0.1487  0.0381  1.0282
17479TIP3    H173852   4.951   5.553   5.457 -0.2917 -0.6433  1.4005
17479TIP3    H273853   4.883   5.431   5.400 -0.7820  0.1108  0.3545
17480TIP3   OH273854   2.222   5.412  11.836 -0.1155 -0.1513  0.0905
17480TIP3    H173855   2.300   5.360  11.857 -0.3506 -0.4310  0.2651
17480TIP3    H273856   2.248   5.462  11.758 -0.6483 -2.2707 -1.5491
17481TIP3   OH273857   5.060   6.646   5.749  0.6275 -0.1796 -1.0763
17481TIP3    H173858   5.006   6.713   5.790  0.0253 -1.9342  1.2211
17481TIP3    H273859   5.140   6.692   5.724 -0.0917  1.5577 -0.3758
17482TIP3   OH273860   0.112   5.426  13.276  0.5202  0.8899 -0.6212
17482TIP3    H173861   0.025   5.465  13.277 -0.6538 -1.5143  0.1035
17482TIP3    H273862   0.161   5.477  13.211 -0.8774  3.3356  0.1177
17483TIP3   OH273863   1.148   3.007  13.417 -0.3505  0.2352  0.3331
17483TIP3    H173864   1.198   2.933  13.453 -0.7835 -0.5675 -0.6549
17483TIP3    H273865   1.210   3.053  13.360 -0.6965 -0.7812 -0.9215
17484TIP3   OH273866   5.883   6.118   3.634 -0.2023  0.3200  0.4190
17484TIP3    H173867   5.861   6.026   3.645 -0.7910  0.5642  1.4425
17484TIP3    H273868   5.952   6.134   3.698 -0.3440  0.6680  0.4887
17485TIP3   OH273869   2.910   1.758   1.229  0.2205  0.3331  0.2208
17485TIP3    H173870   2.982   1.819   1.251 -0.4039  0.7078  1.3004
17485TIP3    H273871   2.859   1.752   1.309 -0.4149 -0.6979 -0.2492
17486TIP3   OH273872   1.961   5.255   2.460 -0.2408 -0.5057 -0.1312
17486TIP3    H173873   1.913   5.334   2.485  0.3735  0.0359 -0.6465
17486TIP3    H273874   1.935   5.239   2.369 -0.6019 -1.0876  0.0634
17487TIP3   OH273875   0.438   2.046  11.245  0.2736 -0.4125  0.4050
17487TIP3    H173876   0.408   2.025  11.157 -0.5949 -1.9069  1.0250
17487TIP3    H273877   0.528   2.077  11.233  0.2864 -0.9198 -0.9728
17488TIP3   OH273878   5.967   2.695  10.520  0.0998  0.7452 -0.0936
17488TIP3    H173879   5.976   2.737  10.605  1.3233  1.0158 -0.3257
17488TIP3    H273880   6.057   2.689  10.487 -0.4252  1.5968 -1.8122
17489TIP3   OH273881   6.292   1.505   1.231  0.4142 -0.0049  0.2548
17489TIP3    H173882   6.325   1.497   1.142 -0.2238  0.6965 -0.0466
17489TIP3    H273883   6.197   1.508   1.222  0.3739  0.9484  0.8942
17490TIP3   OH273884   3.451   0.383  12.022 -0.0829 -0.0506  0.5279
17490TIP3    H173885   3.462   0.342  12.108  2.0920  2.2876  1.5123
17490TIP3    H273886   3.457   0.311  11.960  1.4109 -1.4985  2.2316
17491TIP3   OH273887   1.966   4.038   5.426  0.2516  0.2766 -0.1940
17491TIP3    H173888   1.955   4.098   5.352  1.5233 -1.9741 -2.3521
17491TIP3    H273889   1.894   3.976   5.418  0.6149 -0.2144  0.2440
17492TIP3   OH273890   0.833   3.929  11.084  0.4852  0.2252 -0.0928
17492TIP3    H173891   0.876   4.004  11.125  0.1479  0.6184 -0.4481
17492TIP3    H273892   0.902   3.888  11.032  1.2950 -1.0863  1.8879
17493TIP3   OH273893   6.798   5.201  13.424 -0.0068 -0.0622  0.4136
17493TIP3    H173894   6.801   5.210  13.519 -1.6676  1.0828  0.3961
17493TIP3    H273895   6.798   5.292  13.391  1.1614 -0.4368 -0.7250
17494TIP3   OH273896   5.350   6.214   1.205 -0.0527 -0.2011  0.5320
17494TIP3    H173897   5.409   6.187   1.275  0.2838 -1.3933 -0.1906
17494TIP3    H273898   5.326   6.133   1.161  0.2880  0.5783 -1.1681
17495TIP3   OH273899   4.604   5.297  11.173 -0.0487  0.1308 -0.1113
17495TIP3    H173900   4.542   5.304  11.101 -1.2195  0.3451  0.8932
17495TIP3    H273901   4.595   5.207  11.204  0.1425  0.1664  0.0510
17496TIP3   OH273902   2.554   1.364  15.018 -0.1639  0.2820 -0.2359
17496TIP3    H173903   2.647   1.379  15.038  0.4409 -1.6479 -1.3364
17496TIP3    H273904   2.549   1.271  14.996 -1.8841  0.8655 -2.7412
17497TIP3   OH273905   3.299   3.565   0.301 -0.1671 -0.2734 -0.3874
17497TIP3    H173906   3.386   3.603   0.315 -0.1951 -0.3428 -0.0272
17497TIP3    H273907   3.247   3.637   0.265 -0.7639  0.6173  2.0992
17498TIP3   OH273908   3.674   5.034  14.669 -0.4950  0.1004 -0.4719
17498TIP3    H173909   3.704   4.989  14.748 -0.3222 -0.5440 -0.8946
17498TIP3    H273910   3.618   5.104  14.701  0.6068  0.6580  0.2862
17499TIP3   OH273911   3.698   0.831  14.243  0.0190 -0.1069  0.1255
17499TIP3    H173912   3.706   0.891  14.169 -1.5575  0.7922  0.6378
17499TIP3    H273913   3.760   0.864  14.308 -2.1813  2.2663  1.1855
17500TIP3   OH273914   3.693   4.353  14.386  0.2064 -0.4297  0.2709
17500TIP3    H173915   3.699   4.348  14.290 -0.2535 -0.9050  0.2575
17500TIP3    H273916   3.608   4.313  14.406 -0.8991  1.9830  0.6843
17501TIP3   OH273917   5.622   2.685   5.182 -0.0103 -0.0937  0.1174
17501TIP3    H173918   5.628   2.777   5.156 -0.1352  0.5752  2.2089
17501TIP3    H273919   5.697   2.672   5.241 -1.3987 -0.5440  1.8804
17502TIP3   OH273920   2.652   0.282   5.415  0.1166 -0.0403  0.8094
17502TIP3    H173921   2.692   0.293   5.329 -2.3867 -2.3004 -0.7751
17502TIP3    H273922   2.727   0.279   5.475  1.9444  1.6700 -1.1762
17503TIP3   OH273923   2.088   2.684   1.410  0.5625  0.3978  0.2354
17503TIP3    H173924   2.156   2.670   1.344 -1.4315  0.7240 -2.0127
17503TIP3    H273925   2.014   2.631   1.380 -0.3556  0.3476  2.4021
17504TIP3   OH273926   2.641   5.312   2.999  0.4077 -0.4495  0.0194
17504TIP3    H173927   2.597   5.393   2.973  1.5384 -0.1880 -1.2069
17504TIP3    H273928   2.729   5.340   3.024  0.1684 -1.0615  1.6710
17505TIP3   OH273929   5.006   5.234   2.348 -0.3544  0.3057 -0.2467
17505TIP3    H173930   5.004   5.219   2.253 -3.3389  0.7264 -0.3525
17505TIP3    H273931   5.051   5.318   2.358 -1.2718  0.9827 -1.4694
17506TIP3   OH273932   6.489   5.295  16.992  0.2355 -0.1927  0.1308
17506TIP3    H173933   6.437   5.314  17.070  0.7556  1.1991  0.1723
17506TIP3    H273934   6.440   5.337  16.921  0.4515 -0.3052 -0.0843
17507TIP3   OH273935   2.050   1.664  13.049 -0.4995 -0.1079  0.0697
17507TIP3    H173936   2.060   1.579  13.005 -0.0573  0.0425 -0.1282
17507TIP3    H273937   1.958   1.686  13.038 -0.6847 -0.7033  0.3758
17508TIP3   OH273938   6.109   3.806  14.374  0.3592 -0.4377 -0.0560
17508TIP3    H173939   6.014   3.820  14.381  0.3092 -0.8140  0.0344
17508TIP3    H273940   6.147   3.889  14.404  0.0780 -0.6962  1.0506
17509TIP3   OH273941   6.302   1.846  15.834  0.1670 -0.4718 -0.0054
17509TIP3    H173942   6.271   1.873  15.748 -0.2734  0.3278  0.3985
17509TIP3    H273943   6.396   1.862  15.832  0.0938 -0.0548 -0.1954
17510TIP3   OH273944   2.857   2.910   1.078  0.0760  0.3010  0.2817
17510TIP3    H173945   2.884   2.833   1.029  0.0806  0.9099 -0.7061
17510TIP3    H273946   2.766   2.925   1.052 -0.0746  0.3674  0.8245
17511TIP3   OH273947   3.264   0.303  15.669 -0.1245  0.1210  0.5050
17511TIP3    H173948   3.199   0.233  15.665 -0.6927  0.6250  0.8602
17511TIP3    H273949   3.223   0.372  15.721  0.7865  0.3488  0.9417
17512TIP3   OH273950   1.114   3.038  14.532  0.2973 -0.7519 -0.2696
17512TIP3    H173951   1.199   3.003  14.560  0.1919 -1.7073 -1.1232
17512TIP3    H273952   1.129   3.132  14.523  1.0717 -0.8133  0.2664
17513TIP3   OH273953   1.953   3.774   5.056  0.0156 -0.1399  0.0318
17513TIP3    H173954   2.006   3.745   5.131 -0.2586 -0.1441  0.2274
17513TIP3    H273955   1.886   3.706   5.048  1.4932 -1.4800 -1.7780
17514TIP3   OH273956   6.679   6.616  10.348  0.1915  0.5644 -0.2592
17514TIP3    H173957   6.729   6.549  10.301  2.1994  0.6450  1.6267
17514TIP3    H273958   6.718   6.699  10.321 -0.7891  0.8517 -0.8514
17515TIP3   OH273959   3.647   0.456   1.412  0.6543  0.7090  0.0249
17515TIP3    H173960   3.666   0.364   1.398  0.4476  0.7854 -0.7842
17515TIP3    H273961   3.725   0.502   1.380  0.3236  0.8670 -0.5633
17516TIP3   OH273962   0.917   4.968  14.721  0.0257  0.0150 -0.1055
17516TIP3    H173963   0.931   5.035  14.654  1.2688  1.4544  1.4744
17516TIP3    H273964   0.822   4.968  14.735 -0.0297  1.2871 -0.3478
17517TIP3   OH273965   4.213   2.457   2.735  0.2042 -0.1049 -0.5032
17517TIP3    H173966   4.236   2.498   2.818  0.0775 -1.4115  0.2125
17517TIP3    H273967   4.123   2.483   2.719 -0.5629 -1.6584  0.9773
17518TIP3   OH273968   2.976   3.373  11.059 -1.2061 -0.0341 -0.8966
17518TIP3    H173969   3.032   3.447  11.037 -0.4772  0.1182  1.1842
17518TIP3    H273970   2.947   3.338  10.975 -0.0889  1.4883 -1.9657
17519TIP3   OH273971   4.859   3.871  11.622 -0.2218  0.2992 -0.6023
17519TIP3    H173972   4.947   3.883  11.587 -0.0674 -0.5585 -0.5253
17519TIP3    H273973   4.808   3.943  11.585  0.3505  0.4072 -1.1824
17520TIP3   OH273974   3.309   5.449  15.782 -0.5224 -0.3748 -0.6775
17520TIP3    H173975   3.275   5.529  15.821  1.3056 -0.5929  1.5666
17520TIP3    H273976   3.360   5.478  15.706 -1.4627  0.3584 -1.0501
17521TIP3   OH273977   4.942   4.147  16.729 -0.4913  0.0124 -0.4983
17521TIP3    H173978   4.950   4.082  16.660  0.5830 -1.1202  0.6488
17521TIP3    H273979   5.017   4.206  16.716  1.5272 -1.9458  1.3930
17522TIP3   OH273980   2.401   0.964   2.722 -0.2543  0.3235 -0.0290
17522TIP3    H173981   2.437   0.985   2.808  1.0673 -0.6636 -0.3158
17522TIP3    H273982   2.383   0.870   2.726 -0.8305  0.4023 -0.6053
17523TIP3   OH273983   5.574   6.285  15.365 -0.2891  0.4493 -0.5553
17523TIP3    H173984   5.559   6.215  15.301 -1.1325  0.4231 -0.3413
17523TIP3    H273985   5.669   6.294  15.369 -0.1937 -0.2539 -1.0512
17524TIP3   OH273986   0.700   4.466   4.686  0.3014  0.1428 -0.2512
17524TIP3    H173987   0.641   4.391   4.675 -1.9521  1.7043  0.3123
17524TIP3    H273988   0.784   4.428   4.709 -0.8928 -2.2025  0.5695
17525TIP3   OH273989   3.514   1.950   1.056 -0.3967 -0.0069 -0.2239
17525TIP3    H173990   3.593   1.979   1.010  0.0787 -2.0512 -0.7911
17525TIP3    H273991   3.535   1.962   1.149 -0.0316  0.9130 -0.4105
17526TIP3   OH273992   6.330   5.349   3.299  0.4658 -0.0431  0.2334
17526TIP3    H173993   6.422   5.332   3.321  0.2856 -0.1163  0.9870
17526TIP3    H273994   6.328   5.442   3.278  0.5198  0.2303  1.3604
17527TIP3   OH273995   0.079   2.033  11.735  0.3813 -0.6680 -0.5678
17527TIP3    H173996   0.059   2.071  11.650  0.0673  1.3334  0.3292
17527TIP3    H273997   0.031   1.950  11.737 -3.3329  1.2574 -0.7328
17528TIP3   OH273998   2.734   3.180   5.340 -0.2316  0.0420  0.2119
17528TIP3    H173999   2.744   3.251   5.404  3.8198  0.1843 -0.3328
17528TIP3    H274000   2.695   3.223   5.264  3.2816  2.2666 -0.5972
17529TIP3   OH274001   0.369   6.635  15.974  0.0178  0.3681 -0.4902
17529TIP3    H174002   0.399   6.588  16.052  0.8037  2.7125  0.7316
17529TIP3    H274003   0.278   6.659  15.994  0.6889  2.3226  0.4874
17530TIP3   OH274004   4.122   4.711  14.597 -0.7879  0.3595 -0.3168
17530TIP3    H174005   4.055   4.647  14.622 -0.5558  0.5660  0.8905
17530TIP3    H274006   4.134   4.765  14.675  0.9602  0.1663 -0.4178
17531TIP3   OH274007   0.386   3.288  11.401 -0.1189 -0.4667  0.0498
17531TIP3    H174008   0.313   3.344  11.375 -0.2105 -1.1654 -1.2663
17531TIP3    H274009   0.429   3.337  11.472  0.6532  2.0068 -1.9503
17532TIP3   OH274010   6.364   3.981   2.810  0.5109  0.5001 -0.9173
17532TIP3    H174011   6.284   3.985   2.757 -1.4862 -0.7908  1.7587
17532TIP3    H274012   6.427   3.934   2.755 -0.7148  1.0232 -2.8907
17533TIP3   OH274013   1.648   3.658  14.054 -0.0173 -0.6015 -0.5244
17533TIP3    H174014   1.617   3.743  14.023  1.3323  0.9697  2.0385
17533TIP3    H274015   1.740   3.654  14.027  1.5374  1.3003  3.6096
17534TIP3   OH274016   1.635   3.108   4.137  0.6875  0.3624  1.1141
17534TIP3    H174017   1.595   3.166   4.073  0.8897  0.6950  1.2874
17534TIP3    H274018   1.728   3.108   4.114  0.4399 -1.4128 -0.0957
17535TIP3   OH274019   1.615   3.559   5.989  0.7396  0.7807  0.4907
17535TIP3    H174020   1.702   3.583   5.959  0.8183  0.4868  0.4777
17535TIP3    H274021   1.562   3.637   5.974  0.6685  0.4963 -0.8485
17536TIP3   OH274022   6.304   6.115  14.352  0.0184  0.5619 -0.0019
17536TIP3    H174023   6.352   6.196  14.335 -0.0881  0.7216  0.4574
17536TIP3    H274024   6.364   6.046  14.323 -0.4948  0.8356 -1.8486
17537TIP3   OH274025   6.042   6.466  16.886 -0.2722 -0.4642  0.3010
17537TIP3    H174026   6.102   6.511  16.946  0.8928 -0.9152 -0.4777
17537TIP3    H274027   5.986   6.536  16.851  0.6636  0.2013  0.0711
17538TIP3   OH274028   5.967   3.628   5.751  0.3944 -0.5450 -0.3473
17538TIP3    H174029   6.003   3.557   5.698 -0.4994 -0.0238 -1.6983
17538TIP3    H274030   5.910   3.584   5.814  2.6444 -1.3000  1.2807
17539TIP3   OH274031   3.190   3.778   0.172  0.2043  0.4545  0.0573
17539TIP3    H174032   3.204   3.865   0.209 -1.9421  1.2581 -0.8784
17539TIP3    H274033   3.096   3.764   0.176  0.0589 -0.3247 -2.9600
17540TIP3   OH274034   3.949   3.585  11.388  0.2231  0.0879 -0.0526
17540TIP3    H174035   4.003   3.546  11.456  1.2791  0.9749 -0.3563
17540TIP3    H274036   3.965   3.530  11.311 -0.2619 -0.3690  0.1663
17541TIP3   OH274037   1.659   3.378   1.890 -0.4376 -0.0764 -0.0643
17541TIP3    H174038   1.680   3.446   1.826  0.2489  0.2195  0.4549
17541TIP3    H274039   1.566   3.388   1.908 -0.7414 -0.4685 -1.3617
17542TIP3   OH274040   2.579   3.185   5.911  0.3265  0.0461  0.5615
17542TIP3    H174041   2.505   3.220   5.961 -0.7289 -1.0289 -0.1811
17542TIP3    H274042   2.628   3.132   5.973  1.1684  1.7025  1.3569
17543TIP3   OH274043   5.833   0.862   2.295 -0.4678  0.4171 -0.0044
17543TIP3    H174044   5.872   0.874   2.208 -0.4995  1.3763  0.1066
17543TIP3    H274045   5.811   0.950   2.324 -1.0435  0.0435  0.7164
17544TIP3   OH274046   4.275   3.443   0.689 -0.0730  0.2723  0.2595
17544TIP3    H174047   4.315   3.507   0.630 -0.6916 -0.6172 -1.2040
17544TIP3    H274048   4.348   3.405   0.738  0.3404  1.7603  0.8316
17545TIP3   OH274049   6.259   1.161   3.648  0.4398 -0.0145  0.0570
17545TIP3    H174050   6.251   1.177   3.554 -0.9246  2.1419  0.4671
17545TIP3    H274051   6.347   1.192   3.669  0.5510  0.0113 -0.4187
17546TIP3   OH274052   6.406   1.328  15.305 -0.2207  0.0049 -0.7280
17546TIP3    H174053   6.434   1.419  15.294  1.7471 -0.6241 -1.4004
17546TIP3    H274054   6.327   1.333  15.358 -0.3293  2.1206 -1.0186
17547TIP3   OH274055   5.727   0.726   3.865  0.0367  0.3342 -0.8788
17547TIP3    H174056   5.782   0.712   3.942  0.3045 -0.2829 -1.1779
17547TIP3    H274057   5.756   0.809   3.829 -0.2181  0.7211 -0.2052
17548TIP3   OH274058   6.509   2.641   2.189  0.7661  0.1152 -0.7830
17548TIP3    H174059   6.473   2.568   2.239 -0.1575  0.3669 -1.0780
17548TIP3    H274060   6.567   2.686   2.252 -0.0617  0.1917 -0.0578
17549TIP3   OH274061   0.896   5.028  16.540 -0.0747 -0.5516  0.3069
17549TIP3    H174062   0.921   4.996  16.626 -0.3846 -0.6505  0.3617
17549TIP3    H274063   0.969   5.005  16.483  1.1771  1.5137  0.9703
17550TIP3   OH274064   0.029   3.829  13.038  0.3343  0.0026 -0.2702
17550TIP3    H174065  -0.010   3.806  12.953  2.2236 -1.5505 -0.7791
17550TIP3    H274066   0.123   3.824  13.023  0.7031 -0.8785  2.0677
17551TIP3   OH274067   4.325   3.511  13.203  0.0156 -0.2564  0.5223
17551TIP3    H174068   4.345   3.456  13.279 -0.1298 -0.6496  0.2776
17551TIP3    H274069   4.273   3.456  13.146 -2.6367  1.0245  1.5378
17552TIP3   OH274070   0.042   2.087  11.447 -0.2245 -0.5544  0.2538
17552TIP3    H174071   0.092   2.165  11.424 -0.6917  0.1865  1.6387
17552TIP3    H274072   0.098   2.014  11.420  1.5760  0.2426  1.5796
17553TIP3   OH274073   1.858   4.367   1.129 -0.4401  0.4558  0.5910
17553TIP3    H174074   1.879   4.386   1.038 -0.7262 -1.7723  0.0100
17553TIP3    H274075   1.939   4.332   1.165 -0.2079  1.7003  1.3547
17554TIP3   OH274076   5.087   4.097  12.690 -0.5449 -0.2786 -0.2406
17554TIP3    H174077   5.071   4.121  12.782 -1.5232  0.7948 -0.6636
17554TIP3    H274078   5.181   4.080  12.685 -0.1258  1.5692  0.5535
17555TIP3   OH274079   6.685   3.769   2.946  0.1188  0.5044 -0.3649
17555TIP3    H174080   6.717   3.679   2.942  0.2757  0.5223  0.3688
17555TIP3    H274081   6.629   3.771   3.023  0.9890  1.3076  0.2755
17556TIP3   OH274082   2.523   6.679  14.869 -0.0424  0.2474  0.1756
17556TIP3    H174083   2.434   6.657  14.843 -0.2292  1.5388 -0.3314
17556TIP3    H274084   2.569   6.697  14.787  0.0465  1.8688  0.5537
17557TIP3   OH274085   3.076   1.068   4.900  0.1697 -0.2626 -0.8381
17557TIP3    H174086   3.011   1.083   4.831 -0.2255  1.1740 -0.1863
17557TIP3    H274087   3.099   1.156   4.931  0.4174 -0.8690  0.7996
17558TIP3   OH274088   2.875   3.315   4.647  0.7681 -0.0378  0.4876
17558TIP3    H174089   2.784   3.341   4.628  1.2598  1.0500 -0.5206
17558TIP3    H274090   2.874   3.293   4.740 -0.7882 -1.2426  0.2339
17559TIP3   OH274091   0.491   5.649  16.932 -0.1428  0.0742  0.1380
17559TIP3    H174092   0.450   5.573  16.974  0.4412 -1.3155 -1.6842
17559TIP3    H274093   0.424   5.717  16.935 -0.5998 -0.3848  2.0201
17560TIP3   OH274094   2.182   4.582   1.963  0.2233  0.1720  0.1191
17560TIP3    H174095   2.255   4.533   1.926  0.2851  0.1421  0.2785
17560TIP3    H274096   2.164   4.539   2.047 -0.6885 -0.5107 -0.4090
17561TIP3   OH274097   5.766   2.859  12.179 -0.4707  0.2003 -0.5683
17561TIP3    H174098   5.765   2.861  12.275 -0.1152 -1.7982 -0.4785
17561TIP3    H274099   5.736   2.946  12.153 -1.7438  0.4054  1.3601
17562TIP3   OH274100   3.954   5.373   0.730  0.2387 -0.0460 -0.8188
17562TIP3    H174101   4.040   5.398   0.765 -0.6155  0.9582  0.6577
17562TIP3    H274102   3.958   5.277   0.725  0.4616 -0.2958  2.0821
17563TIP3   OH274103   3.301   0.850   0.963 -0.0927  0.5392  0.0231
17563TIP3    H174104   3.355   0.828   1.039  0.8530 -0.5128 -0.9180
17563TIP3    H274105   3.239   0.915   0.996  1.5739  1.6153  1.2121
17564TIP3   OH274106   0.456   1.301  15.805  0.1564  0.5729 -0.2311
17564TIP3    H174107   0.477   1.384  15.764  0.7271  1.1085  1.0838
17564TIP3    H274108   0.518   1.239  15.767 -0.3989  0.6856 -1.3611
17565TIP3   OH274109   2.976   0.127  16.976 -0.0140  0.3013  0.0098
17565TIP3    H174110   3.021   0.146  16.894  0.0744 -0.2295 -0.0722
17565TIP3    H274111   3.037   0.069  17.023 -0.8446 -0.9188 -0.3594
17566TIP3   OH274112   1.907   5.060  12.176 -0.0524  1.0741  0.3944
17566TIP3    H174113   1.994   5.024  12.192 -0.3285  0.2544  0.1406
17566TIP3    H274114   1.850   5.012  12.236 -0.4617  0.9387 -0.0943
17567TIP3   OH274115   6.272   5.673  14.399 -0.2004 -0.0535 -0.4339
17567TIP3    H174116   6.222   5.655  14.478  0.7108  0.8546  0.3787
17567TIP3    H274117   6.340   5.605  14.398 -0.8298 -0.6947 -1.0151
17568TIP3   OH274118   4.498   1.686  13.171 -0.2847  0.1058  0.4569
17568TIP3    H174119   4.520   1.777  13.191 -1.8841  0.9286 -1.2865
17568TIP3    H274120   4.450   1.656  13.249 -0.1273  0.8791  0.8651
17569TIP3   OH274121   0.050   3.258  14.827  0.4453 -0.2261  0.0251
17569TIP3    H174122  -0.020   3.194  14.830 -0.9826  1.2599 -0.0008
17569TIP3    H274123   0.045   3.295  14.738  2.3764 -1.2313 -0.5752
17570TIP3   OH274124   0.714   0.925   2.763 -0.0002  0.1625 -0.3507
17570TIP3    H174125   0.684   0.992   2.702  1.5321  0.6754 -0.5922
17570TIP3    H274126   0.686   0.956   2.849  1.2454  1.4807 -0.3876
17571TIP3   OH274127   4.918   3.211   5.329 -0.5830  0.6519  0.3025
17571TIP3    H174128   4.895   3.251   5.245 -1.8885 -0.3704  0.1510
17571TIP3    H274129   5.013   3.218   5.334 -0.5723  1.4932 -0.8663
17572TIP3   OH274130   2.088   0.124   4.561  0.5486  0.0893  0.1201
17572TIP3    H174131   2.071   0.210   4.601 -4.0634 -1.1332  1.4564
17572TIP3    H274132   2.067   0.136   4.468  0.7821  0.5773  0.1264
17573TIP3   OH274133   1.378   4.166   2.062 -0.1480  0.2376  0.3813
17573TIP3    H174134   1.315   4.206   2.122 -0.5078  0.8529 -0.3914
17573TIP3    H274135   1.379   4.073   2.087 -3.6875 -0.4885 -1.4699
17574TIP3   OH274136   1.276   1.717  14.746  0.5412 -0.0303 -0.5233
17574TIP3    H174137   1.281   1.636  14.796  1.4486  0.8659  0.9147
17574TIP3    H274138   1.319   1.697  14.663  1.9614 -0.6839  0.3234
17575TIP3   OH274139   4.910   0.229   5.143  0.1575  0.2306  0.1917
17575TIP3    H174140   4.990   0.177   5.134  0.6950  1.1209 -0.3047
17575TIP3    H274141   4.843   0.179   5.097  0.6402 -0.0915 -0.1674
17576TIP3   OH274142   6.128   2.867  15.421 -0.3808  0.4305 -0.1826
17576TIP3    H174143   6.113   2.790  15.367 -0.8658 -0.1189  0.7055
17576TIP3    H274144   6.187   2.837  15.491 -2.4487  0.1677  1.5701
17577TIP3   OH274145   3.579   3.354   5.038  0.2202 -0.1037 -0.0812
17577TIP3    H174146   3.539   3.411   5.104 -1.9111 -1.4908 -0.0925
17577TIP3    H274147   3.673   3.358   5.058  0.1603  3.1415  0.0714
17578TIP3   OH274148   1.697   6.570  13.164  0.4061 -0.1230  0.6864
17578TIP3    H174149   1.687   6.664  13.150 -0.0150 -0.2895 -0.1734
17578TIP3    H274150   1.792   6.556  13.166  0.4808  0.4408  1.7301
17579TIP3   OH274151   4.652   1.654   4.249 -0.3476 -0.9235  0.1963
17579TIP3    H174152   4.697   1.719   4.304 -1.7529  0.1499  0.1461
17579TIP3    H274153   4.686   1.570   4.279  0.2887 -0.2616  1.4387
17580TIP3   OH274154   5.857   3.349   5.254 -0.4121 -0.2331 -0.0113
17580TIP3    H174155   5.894   3.421   5.203 -0.8407 -0.6549 -0.9432
17580TIP3    H274156   5.770   3.336   5.217 -0.8838 -0.3100  1.0872
17581TIP3   OH274157   3.975   1.241  14.314  0.7247  0.4919  0.5297
17581TIP3    H174158   4.021   1.280  14.389  1.9558 -1.5385  0.8948
17581TIP3    H274159   4.026   1.269  14.238  1.4021 -0.0835  0.7576
17582TIP3   OH274160   5.644   0.184   2.527  0.3128 -0.2507  0.1196
17582TIP3    H174161   5.584   0.227   2.589 -0.3272 -3.0767  1.6754
17582TIP3    H274162   5.706   0.252   2.502 -1.1247  1.7609  1.6474
17583TIP3   OH274163   4.440   4.148  10.581 -0.4082  0.0898 -0.4003
17583TIP3    H174164   4.359   4.172  10.538 -0.7422  1.0730  0.7363
17583TIP3    H274165   4.473   4.073  10.531 -1.4559  0.3524 -1.5112
17584TIP3   OH274166   6.491   0.600  13.142 -0.0721  0.4282 -0.5425
17584TIP3    H174167   6.426   0.668  13.159 -2.2045 -1.6767  0.2359
17584TIP3    H274168   6.505   0.603  13.047  1.1539  2.9474 -0.3720
17585TIP3   OH274169   5.062   0.044  11.701  0.5809  0.0063 -0.1892
17585TIP3    H174170   4.996   0.081  11.759  1.1993  1.4057 -0.3548
17585TIP3    H274171   5.047  -0.051  11.707 -1.7504  0.2838 -0.6101
17586TIP3   OH274172   4.430   0.341   1.966 -0.6158 -0.3462  0.5286
17586TIP3    H174173   4.392   0.395   2.034 -2.5431 -1.1508  0.1568
17586TIP3    H274174   4.482   0.276   2.012 -0.8918 -0.1241  1.1539
17587TIP3   OH274175   6.029   4.231  13.474 -0.1918 -0.8691  1.1820
17587TIP3    H174176   6.061   4.199  13.390  0.6699  2.6768 -0.0064
17587TIP3    H274177   6.109   4.244  13.526 -0.0973  2.1337  0.4523
17588TIP3   OH274178   1.650   3.822  12.027  0.1992  0.0117 -0.3144
17588TIP3    H174179   1.652   3.749  12.090  1.9337 -0.7163 -1.1385
17588TIP3    H274180   1.742   3.839  12.008 -0.0706  3.0887  0.5288
17589TIP3   OH274181   4.332   3.912  16.376  0.1535  0.3225 -0.1702
17589TIP3    H174182   4.373   3.886  16.458 -0.5082  1.0853  0.4177
17589TIP3    H274183   4.245   3.872  16.379  0.0766  0.4671 -0.4376
17590TIP3   OH274184   3.266   4.509  14.364 -0.2194 -0.0373  0.0816
17590TIP3    H174185   3.256   4.580  14.427 -1.5375 -0.8679  0.8570
17590TIP3    H274186   3.207   4.441  14.395 -1.3524 -0.2811 -2.3625
17591TIP3   OH274187   1.745   5.857  11.067  0.0463 -0.1852 -0.0959
17591TIP3    H174188   1.669   5.813  11.028 -0.0920  0.0929 -0.1425
17591TIP3    H274189   1.788   5.901  10.994  1.0179 -1.4348 -0.3029
17592TIP3   OH274190   0.735   2.752  14.463  0.2493  0.1902  0.1676
17592TIP3    H174191   0.710   2.843  14.454  0.6043  0.1461 -1.8635
17592TIP3    H274192   0.828   2.754  14.486  0.3449  0.3516 -0.2269
17593TIP3   OH274193   4.349   2.303  12.239 -0.0421  0.0053  0.2868
17593TIP3    H174194   4.397   2.331  12.161  0.5162  1.2403  1.0412
17593TIP3    H274195   4.359   2.208  12.240  1.0251  0.0862 -0.4541
17594TIP3   OH274196   1.151   3.652  10.967  0.6749 -0.0171 -0.3425
17594TIP3    H174197   1.113   3.739  10.978 -0.8418 -0.7285  0.3659
17594TIP3    H274198   1.200   3.658  10.885  0.7368  1.5351 -0.2285
17595TIP3   OH274199   4.521   0.151  14.708 -0.0461 -0.4189 -0.5595
17595TIP3    H174200   4.523   0.065  14.665  1.1086 -1.0575  0.7016
17595TIP3    H274201   4.604   0.156  14.754 -1.6467 -0.2606  2.5402
17596TIP3   OH274202   5.562   6.008  17.131 -0.0464  0.3050  0.1769
17596TIP3    H174203   5.518   5.949  17.192 -0.3674  1.6339  1.2903
17596TIP3    H274204   5.546   5.969  17.045  0.4690 -1.6599  0.9076
17597TIP3   OH274205   2.716   6.368   6.381  0.8824  0.1991  0.4540
17597TIP3    H174206   2.690   6.420   6.306  2.0027  0.7500  0.4191
17597TIP3    H274207   2.636   6.358   6.433 -0.3226 -1.5573 -1.5490
17598TIP3   OH274208   0.892   3.278  12.093  0.6848  0.3045  0.3745
17598TIP3    H174209   0.954   3.207  12.078  1.3921  0.8995  0.4637
17598TIP3    H274210   0.930   3.330  12.164  1.3597  2.1178 -1.2421
17599TIP3   OH274211   0.516   6.123   5.071 -0.1533 -0.4777  0.0677
17599TIP3    H174212   0.421   6.121   5.077 -0.0620 -1.4095  2.8893
17599TIP3    H274213   0.542   6.032   5.062  0.4801 -0.3485  0.4513
17600TIP3   OH274214   0.027   0.547   0.935  0.4932 -0.2913  0.1696
17600TIP3    H174215  -0.047   0.598   0.967 -1.8836 -1.4294 -2.9544
17600TIP3    H274216   0.095   0.557   1.002 -1.5159  2.9517  1.9519
17601TIP3   OH274217   5.617   4.336   1.418  0.2888  0.1304 -0.3217
17601TIP3    H174218   5.706   4.371   1.420 -0.4551  2.0962  2.1386
17601TIP3    H274219   5.622   4.255   1.469  0.5438  0.6505  0.4976
17602TIP3   OH274220   0.738   2.371  16.700  0.1275  0.5127 -0.5036
17602TIP3    H174221   0.681   2.390  16.774 -0.3537 -0.8956 -0.4833
17602TIP3    H274222   0.713   2.434  16.633 -0.4287  0.8489  0.0114
17603TIP3   OH274223   3.181   2.261   1.111  0.0390 -0.0374 -0.0741
17603TIP3    H174224   3.150   2.334   1.165  0.2861  0.6900 -0.8807
17603TIP3    H274225   3.274   2.254   1.130  0.4238  1.1344 -1.4010
17604TIP3   OH274226   2.928   3.393  15.132 -0.6947  0.2743 -0.4023
17604TIP3    H174227   3.022   3.405  15.117 -0.6995  0.4867 -0.2599
17604TIP3    H274228   2.888   3.413  15.047 -0.7914  2.3014  0.0701
17605TIP3   OH274229   0.779   6.732   5.681  0.3129  0.2993  0.2432
17605TIP3    H174230   0.797   6.746   5.774 -0.2711 -0.1263  0.4257
17605TIP3    H274231   0.684   6.733   5.674  0.3380 -0.2104 -0.2617
17606TIP3   OH274232   0.608   2.813   4.902 -0.0273 -0.1724 -0.3903
17606TIP3    H174233   0.644   2.902   4.903  1.2279 -0.6582  0.0831
17606TIP3    H274234   0.543   2.813   4.972  1.6424 -0.2462  1.2407
17607TIP3   OH274235   5.370   2.687  16.260 -0.3197 -0.5494 -0.5939
17607TIP3    H174236   5.411   2.676  16.174 -0.5039  0.7108 -0.8680
17607TIP3    H274237   5.378   2.781  16.278 -0.4665 -0.7615  0.6768
17608TIP3   OH274238   1.719   1.432   2.055  0.6796 -0.3704 -0.2160
17608TIP3    H174239   1.746   1.511   2.008  0.9717 -0.7060 -0.6198
17608TIP3    H274240   1.672   1.380   1.990  0.2705 -0.4198  0.1170
17609TIP3   OH274241   4.315   2.891   5.768 -0.0011  0.2888  0.2619
17609TIP3    H174242   4.344   2.978   5.741 -0.4110 -0.0014 -1.2278
17609TIP3    H274243   4.362   2.874   5.849  1.7121  1.0332 -0.5329
17610TIP3   OH274244   4.420   2.101   4.960  0.4667  0.2035 -0.0859
17610TIP3    H174245   4.376   2.028   5.004  1.2810 -0.3045 -0.0888
17610TIP3    H274246   4.490   2.059   4.910  2.1958  1.1495  1.4504
17611TIP3   OH274247   3.838   4.942  11.080 -0.1483 -0.3758 -0.3132
17611TIP3    H174248   3.900   4.997  11.033  0.0375  1.0357  1.4683
17611TIP3    H274249   3.893   4.882  11.131 -0.2658 -0.1832  0.0475
17612TIP3   OH274250   6.622   5.303   1.091  0.0476  0.2809  0.5336
17612TIP3    H174251   6.548   5.263   1.138  0.8608 -1.1912  0.6077
17612TIP3    H274252   6.695   5.242   1.105  1.0822  1.3268 -0.1728
17613TIP3   OH274253   6.080   5.523  14.569 -0.1620 -0.3145 -0.3883
17613TIP3    H174254   6.102   5.431  14.552 -1.8436 -0.9257  0.4528
17613TIP3    H274255   6.026   5.520  14.648  0.4474  1.5126  0.1523
17614TIP3   OH274256   3.782   6.006  15.435 -0.0365 -0.0877 -0.4004
17614TIP3    H174257   3.700   5.998  15.387  0.7913  0.7069 -1.9975
17614TIP3    H274258   3.771   6.086  15.487 -0.2978 -0.0373 -0.5300
17615TIP3   OH274259   5.246   4.018  14.149  0.3168  0.1561 -0.7024
17615TIP3    H174260   5.220   4.110  14.152 -0.6436 -0.1182  0.6626
17615TIP3    H274261   5.335   4.017  14.182 -0.7666  0.3273  2.6732
17616TIP3   OH274262   3.473   0.406  14.665  0.6650  0.3945  0.2358
17616TIP3    H174263   3.540   0.352  14.624  0.5402  0.7708 -0.4754
17616TIP3    H274264   3.512   0.493  14.672  0.1418  0.6976 -0.4836
17617TIP3   OH274265   6.519   1.495  13.215 -0.1958  0.8428 -0.4871
17617TIP3    H174266   6.581   1.486  13.143  0.2261  1.3303 -0.1906
17617TIP3    H274267   6.507   1.590  13.225 -1.7819  0.7625 -1.2034
17618TIP3   OH274268   5.097   5.951   4.096  0.5938  0.0055 -0.0233
17618TIP3    H174269   5.051   5.934   4.178 -0.5822  0.6555 -0.5226
17618TIP3    H274270   5.048   6.022   4.055  1.4831  0.0646 -1.0405
17619TIP3   OH274271   3.957   4.069  12.376 -0.4000  0.6710 -0.6347
17619TIP3    H174272   3.937   4.023  12.295 -0.5158 -0.0491 -0.2060
17619TIP3    H274273   3.875   4.112  12.400  0.3676  3.3584 -2.4235
17620TIP3   OH274274   1.910   4.387   0.352  0.0284  0.3231  0.3031
17620TIP3    H174275   1.967   4.409   0.278 -1.0191 -0.4409 -0.7683
17620TIP3    H274276   1.894   4.471   0.395  0.0633  0.9141 -0.7912
17621TIP3   OH274277   3.434   5.697  17.073  0.0426 -0.5109 -0.2758
17621TIP3    H174278   3.482   5.778  17.058 -1.2484  0.3585  0.0461
17621TIP3    H274279   3.456   5.671  17.162  1.4194 -1.2222 -0.7959
17622TIP3   OH274280   3.104   2.743   3.717 -0.4099  0.3596  0.0733
17622TIP3    H174281   3.193   2.726   3.747 -0.2543 -1.5601 -1.3035
17622TIP3    H274282   3.068   2.804   3.782  1.4986  0.2711  1.2942
17623TIP3   OH274283   1.351   0.293  10.997 -0.2339  0.1442  0.2038
17623TIP3    H174284   1.282   0.231  10.973 -0.0500 -0.0971  0.2860
17623TIP3    H274285   1.397   0.310  10.915  2.3465 -3.0666  0.7573
17624TIP3   OH274286   4.700   6.289   0.064 -0.0030  0.1286  0.1547
17624TIP3    H174287   4.664   6.203   0.043 -1.4134  0.7158  0.0463
17624TIP3    H274288   4.764   6.305  -0.005  1.9278 -1.7336  1.4028
17625TIP3   OH274289   1.295   6.771   5.149  0.4514 -0.1379  0.4553
17625TIP3    H174290   1.203   6.779   5.125 -0.5245 -1.5905  3.2354
17625TIP3    H274291   1.339   6.741   5.069 -1.7955 -1.1055 -0.4891
17626TIP3   OH274292   5.794   1.788   2.693  0.4706 -0.2425 -0.5106
17626TIP3    H174293   5.761   1.853   2.631 -0.3266  0.0274  0.1745
17626TIP3    H274294   5.881   1.818   2.717  0.7274 -0.2679 -1.3694
17627TIP3   OH274295   6.222   3.020   1.763  0.6037  0.4313 -0.6556
17627TIP3    H174296   6.228   3.042   1.856 -1.2054  2.6302 -0.9644
17627TIP3    H274297   6.156   2.951   1.760  2.6716 -1.7092 -0.1417
17628TIP3   OH274298   2.577   4.388  11.619 -0.5358  0.2615 -0.5495
17628TIP3    H174299   2.559   4.294  11.625  0.0819  0.1999  0.8439
17628TIP3    H274300   2.491   4.428  11.608 -1.0110 -0.3739  0.6099
17629TIP3   OH274301   2.492   6.629   2.626  0.2215 -0.2394  0.1666
17629TIP3    H174302   2.562   6.574   2.589 -0.3914 -1.6360  0.9840
17629TIP3    H274303   2.452   6.671   2.550 -0.0983 -1.9407 -0.6688
17630TIP3   OH274304   0.317   3.742  11.685  0.2321  0.2396  0.4633
17630TIP3    H174305   0.253   3.732  11.614  1.0066  0.8367 -0.3275
17630TIP3    H274306   0.357   3.828  11.669  2.0829 -0.6357  0.2435
17631TIP3   OH274307   6.630   0.115   5.872 -0.0991 -0.2571  0.0330
17631TIP3    H174308   6.545   0.146   5.842  0.0882 -0.2122 -0.4572
17631TIP3    H274309   6.615   0.086   5.962 -0.4738  0.4130  0.1929
17632TIP3   OH274310   0.512   3.896   4.834  0.5554  0.4209  0.5787
17632TIP3    H174311   0.527   3.920   4.743 -3.3387  1.5689  0.0665
17632TIP3    H274312   0.482   3.805   4.830  1.7855 -0.0124  0.9185
17633TIP3   OH274313   5.273   0.178   3.937 -0.3772 -0.1635  0.5923
17633TIP3    H174314   5.357   0.145   3.970  0.7788  1.1503 -0.8767
17633TIP3    H274315   5.251   0.251   3.995  0.6408  0.8782 -0.2905
17634TIP3   OH274316   2.191   2.354   5.840  0.2619 -0.0402 -0.4128
17634TIP3    H174317   2.173   2.427   5.900  0.2206 -0.4790  0.1155
17634TIP3    H274318   2.107   2.335   5.799  0.1635 -0.1161 -0.1789
17635TIP3   OH274319   1.172   1.952  15.701  0.1177  0.2085  0.6732
17635TIP3    H174320   1.149   2.032  15.749  2.3145  0.5033  1.3173
17635TIP3    H274321   1.143   1.881  15.758 -0.3382  0.5396  0.8652
17636TIP3   OH274322   2.862   1.228  12.050  0.3670 -0.3415  0.5464
17636TIP3    H174323   2.876   1.247  11.957  0.8202 -0.6501  0.5490
17636TIP3    H274324   2.849   1.134  12.053 -2.0788 -0.0709  0.5042
17637TIP3   OH274325   5.708   3.695  13.321 -0.3201 -0.3603  0.3963
17637TIP3    H174326   5.776   3.641  13.281 -2.7663 -2.4039 -1.3335
17637TIP3    H274327   5.742   3.784  13.314  1.6191 -1.1340 -1.5972
17638TIP3   OH274328   3.535   0.064   4.718  0.0536  0.1054 -0.1330
17638TIP3    H174329   3.591  -0.012   4.705  0.0578  0.3786 -1.8375
17638TIP3    H274330   3.470   0.058   4.648 -0.4691  1.2113  0.2400
17639TIP3   OH274331   2.295   6.742   4.638  0.4796  0.0595 -0.0681
17639TIP3    H174332   2.223   6.801   4.615  0.7877 -0.0635 -1.4231
17639TIP3    H274333   2.284   6.666   4.580  1.1001 -0.4298  0.4331
17640TIP3   OH274334   6.064   4.381  17.106 -0.3146 -0.2773  0.5697
17640TIP3    H174335   6.148   4.388  17.151 -0.2149 -2.1303  0.7534
17640TIP3    H274336   6.005   4.343  17.171 -1.2371  0.7528  0.3536
17641TIP3   OH274337   6.410   1.653  15.573  0.4012 -0.1665  0.2155
17641TIP3    H174338   6.339   1.664  15.509 -0.0487 -0.9805  0.5589
17641TIP3    H274339   6.490   1.650  15.520  0.1210  0.1026 -0.2306
17642TIP3   OH274340   6.794   1.133   0.116  0.8380 -0.1308 -0.2626
17642TIP3    H174341   6.752   1.060   0.070 -0.2469  1.9896 -2.8877
17642TIP3    H274342   6.790   1.206   0.054  3.6699  1.6721  1.4533
17643TIP3   OH274343   3.339   3.937  13.430 -0.5576  0.5837  0.2409
17643TIP3    H174344   3.316   3.906  13.517 -1.3804  1.3745  0.3223
17643TIP3    H274345   3.379   4.022  13.445 -0.5844  0.6642 -0.1413
17644TIP3   OH274346   4.315   1.655  16.244  0.2671  0.0374  0.0850
17644TIP3    H174347   4.385   1.633  16.305  0.5197  0.0875 -0.1870
17644TIP3    H274348   4.299   1.749  16.258  0.7498  0.1904 -0.3587
17645TIP3   OH274349   5.453   2.503  11.430  0.0134 -0.1981 -0.2682
17645TIP3    H174350   5.381   2.451  11.463  0.9244 -0.7127  0.9746
17645TIP3    H274351   5.430   2.593  11.451 -0.3755 -0.3350 -0.1108
17646TIP3   OH274352   3.948   6.532   2.405  0.0096 -0.8901 -0.2352
17646TIP3    H174353   3.955   6.512   2.498 -2.2874 -0.3935  0.0846
17646TIP3    H274354   4.027   6.584   2.386  1.2845 -2.2659  1.0395
17647TIP3   OH274355   4.660   6.088  14.299  0.1350 -0.1281  0.0558
17647TIP3    H174356   4.698   6.126  14.378 -1.3764  0.5464  0.5027
17647TIP3    H274357   4.700   6.137  14.227 -0.0975  0.7665  0.5210
17648TIP3   OH274358   4.728   5.397  12.461 -0.4281 -0.6746 -0.2416
17648TIP3    H174359   4.724   5.355  12.375 -1.6688  0.7518 -0.9398
17648TIP3    H274360   4.637   5.403  12.489 -0.0899 -0.4873  0.8515
17649TIP3   OH274361   5.638   3.577  14.693 -0.4090 -0.0237  0.1798
17649TIP3    H174362   5.725   3.615  14.685 -0.8407  1.1709  0.8196
17649TIP3    H274363   5.632   3.515  14.621  0.8485  0.1138 -0.0667
17650TIP3   OH274364   5.799   2.007  10.783  0.4847  0.4305 -0.0290
17650TIP3    H174365   5.766   1.966  10.703 -2.0647  2.2899 -0.0185
17650TIP3    H274366   5.795   2.101  10.765  1.5853  0.8319  1.6719
17651TIP3   OH274367   6.707   3.765   6.105  0.0987 -0.4710 -0.1852
17651TIP3    H174368   6.752   3.848   6.120 -0.6892  0.4954 -2.5925
17651TIP3    H274369   6.777   3.699   6.105  0.9851  0.4493 -0.0301
17652TIP3   OH274370   4.657   1.140  14.663 -0.0148  0.4188  0.4750
17652TIP3    H174371   4.594   1.162  14.595  2.1011  1.3115 -1.3419
17652TIP3    H274372   4.667   1.045  14.656  0.1268  0.4873 -0.4764
17653TIP3   OH274373   1.705   5.929  11.354 -0.6269 -0.2818 -0.2787
17653TIP3    H174374   1.750   5.927  11.269 -0.1601  1.7774 -0.1291
17653TIP3    H274375   1.657   5.846  11.357 -1.9587  0.2282 -3.2732
17654TIP3   OH274376   3.499   2.509  15.898  0.3054  0.0374 -0.8778
17654TIP3    H174377   3.592   2.498  15.878  0.6649 -0.3243  0.8040
17654TIP3    H274378   3.472   2.422  15.929 -0.9368 -0.2085 -2.5170
17655TIP3   OH274379   4.027   6.559  12.194 -0.3241  0.2077  0.5556
17655TIP3    H174380   3.935   6.581  12.183  0.1387  1.3496 -1.3797
17655TIP3    H274381   4.060   6.622  12.258 -0.1549  2.0212 -1.2517
17656TIP3   OH274382   1.033   4.596  11.474  0.1345  0.0920 -0.1790
17656TIP3    H174383   1.086   4.607  11.395  0.6220 -0.5824  0.0390
17656TIP3    H274384   1.001   4.684  11.494 -0.6143  0.1662 -1.5343
17657TIP3   OH274385   1.115   4.561  16.636 -0.4100 -0.0592 -0.1824
17657TIP3    H174386   1.060   4.572  16.714 -1.4383 -0.0083 -0.8992
17657TIP3    H274387   1.198   4.526  16.670 -0.9351 -0.2898  0.9014
17658TIP3   OH274388   0.038   0.091   0.722  0.0627  0.2972  0.4545
17658TIP3    H174389  -0.046   0.085   0.767  0.1129  0.5696  0.5861
17658TIP3    H274390   0.045   0.182   0.695  0.1532  0.1939  0.1256
17659TIP3   OH274391   2.819   3.237   1.203  0.5577 -0.3114 -0.0974
17659TIP3    H174392   2.879   3.174   1.243  0.9752  0.8445  1.1822
17659TIP3    H274393   2.732   3.199   1.216  0.8445 -0.9119  0.1022
17660TIP3   OH274394   6.453   2.642  16.348  0.1938 -0.6249 -0.3136
17660TIP3    H174395   6.507   2.661  16.271 -0.2392 -2.0210 -0.9910
17660TIP3    H274396   6.515   2.640  16.421  0.5961  0.8006 -0.5907
17661TIP3   OH274397   4.513   0.887  13.160 -0.0258  0.2267  0.4843
17661TIP3    H174398   4.601   0.888  13.123 -0.9235 -0.6802 -1.8649
17661TIP3    H274399   4.482   0.977  13.147 -0.3212 -0.0694 -1.0715
17662TIP3   OH274400   2.858   1.773  12.393 -0.1772 -0.1902 -0.3635
17662TIP3    H174401   2.880   1.695  12.444  2.9818  1.7417  1.5661
17662TIP3    H274402   2.929   1.782  12.329 -1.8685 -0.2191 -2.3481
17663TIP3   OH274403   5.764   5.757   4.837  0.6857  0.0650 -0.0092
17663TIP3    H174404   5.808   5.842   4.845  1.1313 -0.2784  1.5399
17663TIP3    H274405   5.713   5.749   4.917  0.7067 -1.1597 -0.1044
17664TIP3   OH274406   6.774   0.777  15.460 -0.4433 -0.3387 -0.6636
17664TIP3    H174407   6.798   0.869  15.459  0.8058 -0.6354 -2.2907
17664TIP3    H274408   6.850   0.732  15.499 -0.7478 -0.7404 -0.5222
17665TIP3   OH274409   4.618   0.643  13.271  0.1262  0.7332  0.0726
17665TIP3    H174410   4.629   0.662  13.364 -1.7652 -0.9931  0.7265
17665TIP3    H274411   4.576   0.721  13.235  2.3685  2.1033  0.2249
17666TIP3   OH274412   5.251   4.039   3.576 -0.2315  0.0144  0.2107
17666TIP3    H174413   5.222   3.985   3.649  0.1306  0.0792  0.4048
17666TIP3    H274414   5.211   4.125   3.591 -0.2979 -0.0219  0.2394
17667TIP3   OH274415   4.347   3.861   3.056  0.1449  0.6344 -0.1271
17667TIP3    H174416   4.389   3.895   3.134  0.4673 -0.5721  0.2537
17667TIP3    H274417   4.257   3.893   3.061  0.5376  1.7555 -0.0254
17668TIP3   OH274418   0.692   6.311  14.432 -0.3492  0.0662 -0.0750
17668TIP3    H174419   0.658   6.357  14.355  0.1384 -0.4689 -0.6126
17668TIP3    H274420   0.645   6.351  14.505 -1.5081 -0.0498 -0.7217
17669TIP3   OH274421   1.322   1.852   0.224 -0.0454  0.7722 -0.0091
17669TIP3    H174422   1.388   1.785   0.239 -0.3885  0.2751 -0.6673
17669TIP3    H274423   1.316   1.899   0.307  1.6247  1.2753 -0.1381
17670TIP3   OH274424   5.719   0.383  12.338  0.3561 -0.5438 -0.0255
17670TIP3    H174425   5.700   0.443  12.409 -0.0736 -1.4157  0.6238
17670TIP3    H274426   5.653   0.403  12.271  1.7579  1.3884 -0.9353
17671TIP3   OH274427   4.861   0.384   5.670 -0.3700  0.5790 -0.1901
17671TIP3    H174428   4.794   0.367   5.604 -1.1401  1.5435  0.3083
17671TIP3    H274429   4.944   0.367   5.625 -0.8534  1.6199 -1.5515
17672TIP3   OH274430   4.984   5.479   0.134 -0.5888 -0.1156  0.1654
17672TIP3    H174431   4.927   5.403   0.120  1.4731 -1.6963 -0.0554
17672TIP3    H274432   5.051   5.449   0.195 -0.7505  2.1261  1.5638
17673TIP3   OH274433   6.723   4.340  15.849  0.2546 -0.0667  0.3807
17673TIP3    H174434   6.790   4.338  15.917 -1.1233  0.5070  1.8169
17673TIP3    H274435   6.696   4.249  15.840 -0.2535 -0.0248  1.3554
17674TIP3   OH274436   3.713   1.903  16.934 -0.1539  0.2430 -0.2765
17674TIP3    H174437   3.789   1.954  16.964 -0.5988  0.8376 -0.1305
17674TIP3    H274438   3.650   1.969  16.904 -0.3164 -0.2758 -1.1219
17675TIP3   OH274439   6.390   6.339  14.590 -0.0882  0.0300  0.1052
17675TIP3    H174440   6.299   6.321  14.566  0.1423  0.4932 -1.1795
17675TIP3    H274441   6.403   6.431  14.570  0.6226  0.0166  0.4527
17676TIP3   OH274442   1.395   3.827  11.319 -0.8637 -0.6322  0.7516
17676TIP3    H174443   1.486   3.853  11.307 -0.7599 -0.7528  1.2710
17676TIP3    H274444   1.397   3.731  11.321 -0.8729 -0.6178  1.7319
17677TIP3   OH274445   6.320   4.863  12.951 -0.0840  0.0301  0.3139
17677TIP3    H174446   6.247   4.914  12.915 -0.6477 -0.1439  1.1859
17677TIP3    H274447   6.381   4.853  12.877 -0.1929  1.5328 -0.0157
17678TIP3   OH274448   5.453   0.998  11.653 -0.5741 -0.3350 -0.1097
17678TIP3    H174449   5.371   1.029  11.613  0.3679  0.8008 -1.2615
17678TIP3    H274450   5.469   1.061  11.724  0.5660  1.0363 -1.5033
17679TIP3   OH274451   5.665   3.576  10.530 -0.0695 -0.0998 -0.1899
17679TIP3    H174452   5.583   3.535  10.504 -0.3239  0.5368 -0.3947
17679TIP3    H274453   5.695   3.622  10.452  1.0813 -1.2829 -0.4775
17680TIP3   OH274454   0.438   5.801  14.730  0.1751 -0.2279 -0.7792
17680TIP3    H174455   0.367   5.744  14.758  0.1239 -0.2907 -1.0341
17680TIP3    H274456   0.456   5.774  14.640  0.5123 -0.2045 -0.7192
17681TIP3   OH274457   4.792   3.465   0.638  0.5049 -0.4585  0.1263
17681TIP3    H174458   4.724   3.399   0.645  0.0945 -0.0596 -0.0371
17681TIP3    H274459   4.750   3.538   0.592  1.1221 -0.3178 -0.2282
17682TIP3   OH274460   3.216   5.764  13.911  1.1552 -0.1944 -0.2333
17682TIP3    H174461   3.186   5.849  13.880  0.2269  0.4478  2.1881
17682TIP3    H274462   3.204   5.705  13.836 -2.2584  0.9393 -0.7366
17683TIP3   OH274463   3.216   5.433   2.081 -0.1940 -0.0728 -0.0205
17683TIP3    H174464   3.295   5.420   2.133 -0.8098  1.5880  1.4660
17683TIP3    H274465   3.186   5.521   2.105 -2.5127 -0.6598 -0.4669
17684TIP3   OH274466   5.668   3.101  11.856 -0.5370 -0.2960 -0.0543
17684TIP3    H174467   5.682   3.144  11.772 -0.2960 -1.3708 -0.5710
17684TIP3    H274468   5.573   3.108  11.870 -0.5074  0.3632 -0.1456
17685TIP3   OH274469   1.785   5.578  15.504  0.2258 -0.5462  0.3181
17685TIP3    H174470   1.863   5.609  15.458  0.0897 -2.5206 -1.4320
17685TIP3    H274471   1.718   5.643  15.484  0.2172 -1.2477 -2.3169
17686TIP3   OH274472   6.288   5.022   4.027  0.4684  0.2965 -0.3843
17686TIP3    H174473   6.315   5.109   4.055 -2.5667  1.2702 -0.0409
17686TIP3    H274474   6.242   4.986   4.102  0.2165 -0.8861 -1.0818
17687TIP3   OH274475   4.777   5.471  15.833  0.6458  0.5946 -0.2682
17687TIP3    H174476   4.699   5.471  15.778  0.6334  1.1003 -0.2603
17687TIP3    H274477   4.762   5.543  15.895  2.2733  2.4837 -1.9488
17688TIP3   OH274478   6.636   3.716   1.706 -0.2459  0.3053 -0.1034
17688TIP3    H174479   6.626   3.795   1.759  1.7789  0.5874 -0.0738
17688TIP3    H274480   6.658   3.748   1.618  0.3450 -0.2089 -0.1521
17689TIP3   OH274481   6.195   2.403   5.818  0.9002 -0.1972  0.6827
17689TIP3    H174482   6.260   2.360   5.874  0.9126  0.6160  1.3037
17689TIP3    H274483   6.111   2.370   5.851  0.9177  0.1179  1.0544
17690TIP3   OH274484   5.154   2.541   5.265  0.3307  0.0901  0.1849
17690TIP3    H174485   5.249   2.536   5.267  0.6204  2.9559 -1.1360
17690TIP3    H274486   5.130   2.581   5.348  0.3122 -0.2986  0.3670
17691TIP3   OH274487   4.135   1.291   3.526  0.1686 -0.4063  0.0370
17691TIP3    H174488   4.115   1.233   3.599  0.7797 -0.5580  0.0843
17691TIP3    H274489   4.229   1.281   3.512  0.1484  0.0238 -0.4247
17692TIP3   OH274490   4.146   3.257   0.905  0.0694 -0.3751 -0.6133
17692TIP3    H174491   4.112   3.315   0.973  1.3826 -0.7680  0.4123
17692TIP3    H274492   4.170   3.315   0.833 -1.3041  0.0457 -0.7538
17693TIP3   OH274493   5.939   0.357   1.464  0.1951  0.6757  0.2286
17693TIP3    H174494   5.943   0.298   1.540  1.4728  0.1547 -0.2120
17693TIP3    H274495   5.904   0.303   1.393 -1.8844  1.4143  0.6290
17694TIP3   OH274496   2.509   5.512   0.213 -0.1992 -0.5496  0.0737
17694TIP3    H174497   2.573   5.507   0.142 -1.7475  1.2433 -1.5491
17694TIP3    H274498   2.430   5.471   0.178 -1.1871  0.9008  0.4902
17695TIP3   OH274499   6.046   0.925   1.519 -0.4949  0.5708  0.2024
17695TIP3    H174500   6.138   0.914   1.544 -0.3324  3.1961  1.0522
17695TIP3    H274501   5.999   0.926   1.602 -0.8177  2.5387  0.0450
17696TIP3   OH274502   4.315   0.821   0.744 -0.0083 -0.1122  0.0429
17696TIP3    H174503   4.401   0.818   0.785  0.1808 -1.8700 -0.4162
17696TIP3    H274504   4.323   0.889   0.677  1.4498 -1.1511 -0.8871
17697TIP3   OH274505   2.654   6.544   4.035 -0.1210 -0.4095  0.6118
17697TIP3    H174506   2.720   6.503   3.980  0.6708 -1.2112  2.0993
17697TIP3    H274507   2.686   6.634   4.048 -0.6707  0.0081 -0.7533
17698TIP3   OH274508   6.370   5.291  11.949  0.1173  0.1629 -0.1736
17698TIP3    H174509   6.287   5.262  11.910  0.3422  1.0338 -1.3575
17698TIP3    H274510   6.354   5.288  12.043 -0.6673 -1.3922 -0.3210
17699TIP3   OH274511   6.171   3.904  14.039  0.2016  0.3078 -0.0357
17699TIP3    H174512   6.231   3.836  14.068 -0.3295  0.3010  1.1269
17699TIP3    H274513   6.084   3.871  14.063 -0.0942  1.1741  0.1202
17700TIP3   OH274514   5.299   5.870   0.356 -0.2004 -0.3532 -0.5230
17700TIP3    H174515   5.301   5.913   0.441  1.4863  0.6000 -0.9997
17700TIP3    H274516   5.298   5.776   0.377 -0.4323 -0.1286  0.5342
17701TIP3   OH274517   4.870   2.172  11.618 -0.0489 -0.0963 -0.8556
17701TIP3    H174518   4.929   2.119  11.564  0.9950 -0.6407  0.7559
17701TIP3    H274519   4.830   2.109  11.678  0.3311  0.7447  0.3212
17702TIP3   OH274520   3.775   5.083  11.308  0.0556 -0.3974  0.1820
17702TIP3    H174521   3.783   5.048  11.220 -3.0376 -0.9609  0.0353
17702TIP3    H274522   3.855   5.053  11.353 -0.1282 -3.5051 -1.3137
17703TIP3   OH274523   5.324   1.109  15.597  0.0166  0.5986  0.4377
17703TIP3    H174524   5.263   1.095  15.525 -1.6431  0.5496  1.7926
17703TIP3    H274525   5.269   1.126  15.673  1.4624 -2.9607  2.5708
17704TIP3   OH274526   1.323   6.781  14.133 -0.0414  0.7592  0.5100
17704TIP3    H174527   1.388   6.791  14.202 -0.0188  0.0071  0.6089
17704TIP3    H274528   1.282   6.867  14.125  1.1382  1.3192  0.2667
17705TIP3   OH274529   3.677   6.136  15.948  0.0143  0.4371 -0.1496
17705TIP3    H174530   3.752   6.076  15.945  0.0632  0.4897  0.0540
17705TIP3    H274531   3.708   6.213  15.995 -0.6277 -0.1878  1.3661
17706TIP3   OH274532   4.383   1.740  13.703  0.1612 -0.0625 -0.5775
17706TIP3    H174533   4.407   1.675  13.770  1.7428  0.2356 -0.8107
17706TIP3    H274534   4.447   1.727  13.634 -0.2872  0.9181 -1.1906
17707TIP3   OH274535   1.168   5.799   3.976 -0.2165 -0.5972  0.4716
17707TIP3    H174536   1.140   5.883   4.012  0.4584 -0.4834  0.7339
17707TIP3    H274537   1.110   5.785   3.901  0.9539  1.0714 -0.8060
17708TIP3   OH274538   6.668   1.750  11.276  0.1453 -0.1615  0.0971
17708TIP3    H174539   6.752   1.730  11.316  0.7210  0.7502 -0.6308
17708TIP3    H274540   6.681   1.731  11.183 -0.7431 -0.9011  0.1107
17709TIP3   OH274541   4.324   1.655   3.060  0.5161 -0.3054 -0.0267
17709TIP3    H174542   4.287   1.729   3.108 -3.0858 -1.4140 -0.8182
17709TIP3    H274543   4.342   1.589   3.127  0.5518  0.0445  0.3113
17710TIP3   OH274544   2.210   0.656   0.564  0.1995  0.0766  0.1289
17710TIP3    H174545   2.150   0.730   0.574 -0.8815 -0.9249  1.5126
17710TIP3    H274546   2.245   0.665   0.475 -1.5531  1.0259 -0.5168
17711TIP3   OH274547   2.514   6.765  10.753 -0.9230 -0.0857 -0.3544
17711TIP3    H174548   2.463   6.712  10.692 -0.3814 -0.0572 -0.8487
17711TIP3    H274549   2.568   6.702  10.800  1.1169  0.1069 -2.2592
17712TIP3   OH274550   1.985   4.626   5.306 -0.0467  0.8076  0.1165
17712TIP3    H174551   1.907   4.614   5.253 -0.6843 -0.8195  1.3309
17712TIP3    H274552   1.979   4.559   5.374  1.1375  2.2566  1.7605
17713TIP3   OH274553   4.729   0.654  15.066  0.0475 -0.5399 -0.0608
17713TIP3    H174554   4.796   0.716  15.095  0.6838 -1.1285 -0.2490
17713TIP3    H274555   4.681   0.700  14.997  0.8858 -0.4614 -0.5988
17714TIP3   OH274556   5.835   3.095   6.279 -0.3772  0.6775 -0.4438
17714TIP3    H174557   5.787   3.056   6.206  0.7914  0.0680 -0.9259
17714TIP3    H274558   5.897   3.027   6.305 -0.5916  0.9939  0.9482
17715TIP3   OH274559   4.182   0.675  12.701 -0.0852 -0.3305  0.0939
17715TIP3    H174560   4.154   0.710  12.617 -1.6263  0.0577  0.7236
17715TIP3    H274561   4.274   0.701  12.709 -0.1373  0.2809 -1.1293
17716TIP3   OH274562   6.431   1.458   1.906 -1.1047 -0.2303 -0.0144
17716TIP3    H174563   6.368   1.526   1.879 -1.3639 -0.4927 -0.0741
17716TIP3    H274564   6.384   1.408   1.972 -1.7003 -1.6603 -1.4499
17717TIP3   OH274565   2.330   2.858   2.322  0.6834  0.1507  0.0951
17717TIP3    H174566   2.244   2.870   2.282 -0.4584 -1.9686  1.7200
17717TIP3    H274567   2.372   2.790   2.269  0.0099 -1.1423  1.1632
17718TIP3   OH274568   3.811   1.364   6.243  0.4012  0.0816 -0.4226
17718TIP3    H174569   3.813   1.274   6.211  0.0584  0.1401 -0.6049
17718TIP3    H274570   3.724   1.374   6.283  0.8096  0.0104  0.5142
17719TIP3   OH274571   0.769   0.146   6.814 -0.0427 -0.3502  0.0237
17719TIP3    H174572   0.721   0.227   6.794  0.2875  0.0271  0.7423
17719TIP3    H274573   0.797   0.114   6.728  0.6460  0.8053 -0.2018
17720TIP3   OH274574   1.604   2.504   4.684  0.8443 -0.5554  0.0807
17720TIP3    H174575   1.598   2.594   4.652  1.1731 -1.2690 -2.2003
17720TIP3    H274576   1.617   2.513   4.778  0.7368  1.7664 -0.0562
17721TIP3   OH274577   5.909   0.775   0.233 -0.1449  0.1201 -0.2300
17721TIP3    H174578   5.911   0.683   0.260 -0.7996  0.0166 -0.4951
17721TIP3    H274579   5.839   0.813   0.286  2.9602  1.6164  3.2452
17722TIP3   OH274580   3.032   0.391  15.315 -0.0554 -0.0067  0.3531
17722TIP3    H174581   3.103   0.351  15.265  0.2610  0.4519  0.4287
17722TIP3    H274582   3.076   0.450  15.376 -0.4853  0.0381  0.6243
17723TIP3   OH274583   0.828   1.125   4.357  0.4543  0.1595 -0.0086
17723TIP3    H174584   0.838   1.117   4.452 -0.9657  1.4520  0.2989
17723TIP3    H274585   0.779   1.047   4.331  2.7320 -1.3250 -0.0722
17724TIP3   OH274586   6.492   1.134  15.673  0.2329  0.2122  1.1992
17724TIP3    H174587   6.451   1.217  15.698  0.8599  0.2010  2.3384
17724TIP3    H274588   6.431   1.068  15.706  0.1827  0.2063  1.0967
17725TIP3   OH274589   5.556   3.521   0.166 -0.6888  0.3727 -0.0218
17725TIP3    H174590   5.558   3.526   0.262  3.1157  2.2753  0.0148
17725TIP3    H274591   5.504   3.596   0.139  1.2898  2.1218  0.7059
17726TIP3   OH274592   3.216   2.242  11.591  0.5181  0.4066 -0.4046
17726TIP3    H174593   3.246   2.154  11.611 -0.4262 -0.0332 -0.8184
17726TIP3    H274594   3.133   2.251  11.639  0.9463  1.3312  0.1929
17727TIP3   OH274595   3.756   5.596   1.297  0.4370  0.2312 -0.4078
17727TIP3    H174596   3.740   5.568   1.388  0.7487  3.9373  0.9568
17727TIP3    H274597   3.669   5.615   1.262  0.4391  0.9136 -0.0665
17728TIP3   OH274598   3.950   3.945  17.124  0.6401  0.7318 -0.4754
17728TIP3    H174599   3.859   3.954  17.094  0.5995  0.6030 -0.3935
17728TIP3    H274600   3.952   3.861  17.169  0.0214  2.0138  2.1918
17729TIP3   OH274601   0.476   0.093  16.183 -0.5028 -0.3445 -0.5115
17729TIP3    H174602   0.444   0.144  16.108 -2.6914 -0.3538  0.3568
17729TIP3    H274603   0.417   0.018  16.188 -0.3351 -0.3970  1.1432
17730TIP3   OH274604   0.817   5.121   1.734 -0.1006  0.0061 -0.2836
17730TIP3    H174605   0.841   5.212   1.753 -1.5182  0.9101 -2.5069
17730TIP3    H274606   0.722   5.119   1.744 -0.1370 -1.1279 -0.7581
17731TIP3   OH274607   2.865   4.040   3.397 -0.7450 -0.1339 -0.1686
17731TIP3    H174608   2.890   4.118   3.348  2.5515  0.4206  2.0734
17731TIP3    H274609   2.911   3.968   3.353 -0.5587 -0.1897  0.1205
17732TIP3   OH274610   4.798   2.517  14.088  0.1056  0.2664 -0.5341
17732TIP3    H174611   4.894   2.516  14.092  0.0830  1.1435  1.5120
17732TIP3    H274612   4.771   2.438  14.136 -0.2092 -0.1987 -1.4582
17733TIP3   OH274613   3.671   1.032   3.433 -0.3706 -0.3351  0.4441
17733TIP3    H174614   3.765   1.036   3.453  0.6896 -0.7996 -3.4993
17733TIP3    H274615   3.640   1.121   3.445  0.8316  0.0366  0.9377
17734TIP3   OH274616   0.291   5.475  16.206  0.3081  0.6419  0.3436
17734TIP3    H174617   0.233   5.429  16.266  0.6743  1.8427  1.6570
17734TIP3    H274618   0.326   5.407  16.149 -2.0921 -0.1823 -0.2799
17735TIP3   OH274619   1.063   6.160   3.520  0.2830  0.0642  0.4158
17735TIP3    H174620   1.062   6.184   3.613  0.4354 -1.7948  0.9315
17735TIP3    H274621   1.152   6.179   3.491 -0.1197  1.9012  0.2682
17736TIP3   OH274622   0.915   3.698   4.149 -0.2885 -1.2810  0.1785
17736TIP3    H174623   0.961   3.620   4.182 -3.0822 -2.5833  1.3611
17736TIP3    H274624   0.892   3.676   4.059  0.6526 -0.9354 -0.1638
17737TIP3   OH274625   1.968   1.518   2.255 -0.1836  0.3209 -0.2522
17737TIP3    H174626   1.915   1.550   2.328  0.3729  1.2101 -0.2152
17737TIP3    H274627   1.913   1.528   2.178 -0.6355 -0.2618 -0.0094
17738TIP3   OH274628   6.073   1.761   4.687 -0.6643  0.6104  0.9852
17738TIP3    H174629   5.986   1.767   4.724 -0.6259 -0.6020  1.3088
17738TIP3    H274630   6.060   1.719   4.602 -0.3072 -0.5135  1.4659
17739TIP3   OH274631   1.843   6.609   2.616  0.7947  0.6212 -0.3002
17739TIP3    H174632   1.838   6.553   2.693  1.0277  0.3039 -0.5140
17739TIP3    H274633   1.791   6.687   2.639 -0.4250 -0.1425 -0.3934
17740TIP3   OH274634   3.543   2.649   5.387  0.3355 -0.5757 -0.4127
17740TIP3    H174635   3.567   2.675   5.299 -0.3469  0.6795 -0.2568
17740TIP3    H274636   3.523   2.731   5.432 -1.4963 -1.3227  0.2471
17741TIP3   OH274637   0.631   0.640   6.259 -0.0486  0.3539 -0.5574
17741TIP3    H174638   0.672   0.604   6.338 -1.9042  0.0589  0.3326
17741TIP3    H274639   0.617   0.733   6.280 -1.2781  0.0974 -0.1975
17742TIP3   OH274640   5.566   3.715  15.449  0.4129 -0.4992  0.2268
17742TIP3    H174641   5.485   3.663  15.457 -0.2798  0.6010  0.5697
17742TIP3    H274642   5.613   3.699  15.530 -0.1603 -0.0103  0.6624
17743TIP3   OH274643   5.882   4.430   1.421 -0.0874 -0.1368  0.1201
17743TIP3    H174644   5.924   4.423   1.335 -0.1642  0.2454  0.0503
17743TIP3    H274645   5.954   4.419   1.483  0.3095  1.5289 -0.0006
17744TIP3   OH274646   6.341   4.651   5.752 -0.5886  0.3750 -0.0273
17744TIP3    H174647   6.362   4.714   5.820 -2.5398  1.4413 -0.3354
17744TIP3    H274648   6.277   4.592   5.792  1.6788 -1.9304  0.4693
17745TIP3   OH274649   4.125   4.104   1.800  0.2546  0.0430  0.4629
17745TIP3    H174650   4.041   4.149   1.805  0.5336  0.7832 -0.8514
17745TIP3    H274651   4.184   4.168   1.758  0.9292 -1.1681 -0.5317
17746TIP3   OH274652   1.757   3.301  15.776 -0.2384 -0.1636  0.4985
17746TIP3    H174653   1.845   3.320  15.743 -1.1056  0.8189 -1.4136
17746TIP3    H274654   1.758   3.206  15.792  0.8924 -0.3383 -0.4345
17747TIP3   OH274655   2.307   3.893   5.772  0.0555  0.2485 -0.3040
17747TIP3    H174656   2.238   3.954   5.749  0.3609  0.4588 -0.6777
17747TIP3    H274657   2.311   3.895   5.868 -0.8179 -0.1773 -0.2488
17748TIP3   OH274658   0.976   6.407   5.527 -0.2560 -0.8874 -0.3806
17748TIP3    H174659   0.891   6.421   5.568 -0.9060 -2.0736 -1.2750
17748TIP3    H274660   1.036   6.464   5.576 -1.4623 -0.3941  0.5655
17749TIP3   OH274661   0.631   2.741   5.289  0.0757 -0.5136 -0.0733
17749TIP3    H174662   0.721   2.720   5.263 -0.8848 -3.6192 -1.3530
17749TIP3    H274663   0.599   2.800   5.221  0.5087 -1.1224 -0.8184
17750TIP3   OH274664   0.941   1.324  12.904  0.0510  0.3454  0.2416
17750TIP3    H174665   0.923   1.321  12.998  0.6469  0.6093  0.3718
17750TIP3    H274666   0.871   1.378  12.867 -1.6673 -1.7675  0.1408
17751TIP3   OH274667   3.873   6.754   2.229 -0.1811 -0.1440 -0.3470
17751TIP3    H174668   3.847   6.664   2.249 -0.8873  0.4780  1.8489
17751TIP3    H274669   3.794   6.806   2.245  0.4129  0.9550 -0.8612
17752TIP3   OH274670   5.869   5.412  11.407  0.7075  0.0468  0.1307
17752TIP3    H174671   5.876   5.395  11.501  1.8863 -0.4946 -0.0355
17752TIP3    H274672   5.904   5.333  11.366 -1.6867 -0.5916 -0.8314
17753TIP3   OH274673   6.586   1.088   6.048 -0.5571  0.2430  0.2500
17753TIP3    H174674   6.526   1.121   6.115  0.9584  0.9718  1.2924
17753TIP3    H274675   6.551   1.001   6.027 -0.9553 -0.1253  2.1782
17754TIP3   OH274676   3.233   1.579   2.480 -0.3995  0.0523 -0.3240
17754TIP3    H174677   3.299   1.619   2.536  0.9773 -0.7142 -1.3561
17754TIP3    H274678   3.256   1.487   2.477  0.2159  0.2098 -2.9488
17755TIP3   OH274679   5.874   0.466  15.584  0.1888  0.6245  0.3549
17755TIP3    H174680   5.863   0.467  15.679 -0.1932  3.2584  0.3703
17755TIP3    H274681   5.795   0.508  15.551  0.3047 -0.2894 -1.1565
17756TIP3   OH274682   0.543   4.491   3.913 -0.0482  0.1624 -0.9872
17756TIP3    H174683   0.549   4.475   4.007 -0.1556  0.4593 -0.9302
17756TIP3    H274684   0.545   4.586   3.904  3.7849  0.1762 -1.5278
17757TIP3   OH274685   3.096   5.557  11.204 -1.1713 -0.0151 -0.6321
17757TIP3    H174686   3.078   5.639  11.159 -1.5867  0.1293 -0.2147
17757TIP3    H274687   3.079   5.577  11.296 -1.7400 -0.7076 -0.5870
17758TIP3   OH274688   3.240   3.638  13.467  0.5254 -0.0950  0.6597
17758TIP3    H174689   3.210   3.587  13.543 -0.3286 -1.1857 -0.3792
17758TIP3    H274690   3.160   3.658  13.419  1.3020 -2.6471 -1.9366
17759TIP3   OH274691   3.228   0.321   2.853  0.4332  0.0080 -0.0298
17759TIP3    H174692   3.230   0.279   2.767  0.2416  0.0769 -0.0684
17759TIP3    H274693   3.307   0.375   2.855  1.3020 -1.2513  0.4777
17760TIP3   OH274694   4.636   5.548  17.131  0.5043  0.5551  0.1649
17760TIP3    H174695   4.688   5.490  17.075  1.9373 -0.8916  2.7663
17760TIP3    H274696   4.681   5.632  17.126  1.5798  0.0184  0.2974
17761TIP3   OH274697   4.745   3.850   5.502 -0.3859  0.0142  0.1271
17761TIP3    H174698   4.763   3.887   5.416 -1.0377  0.3179  0.1223
17761TIP3    H274699   4.831   3.840   5.542 -0.2221  2.3835  0.4996
17762TIP3   OH274700   3.180   3.254  10.834  0.3341 -0.0512 -0.1845
17762TIP3    H174701   3.091   3.228  10.858  0.9475  0.1498  2.5817
17762TIP3    H274702   3.169   3.328  10.775 -1.3206 -1.5219 -1.8305
17763TIP3   OH274703   0.709   1.947   0.421  0.1621 -0.0020  0.1667
17763TIP3    H174704   0.767   1.875   0.449  0.6558 -0.3142 -1.5615
17763TIP3    H274705   0.769   2.016   0.395 -0.2968  0.4136  0.2125
17764TIP3   OH274706   4.450   4.310  15.360 -0.4035  0.4257  0.0343
17764TIP3    H174707   4.423   4.354  15.440 -1.3504 -0.4722  0.2337
17764TIP3    H274708   4.511   4.370  15.318  0.5321  0.6924  1.6941
17765TIP3   OH274709   5.952   2.323  15.884  0.0354  0.6211  0.0948
17765TIP3    H174710   6.032   2.271  15.884  0.6860  1.5944  0.0816
17765TIP3    H274711   5.957   2.375  15.804 -0.8989  0.2815 -0.2035
17766TIP3   OH274712   5.559   2.890   2.977  0.2663 -0.4954 -0.7911
17766TIP3    H174713   5.464   2.897   2.970  0.1547 -2.2568 -1.5722
17766TIP3    H274714   5.586   2.972   3.017 -1.6034 -0.0568 -0.3326
17767TIP3   OH274715   3.530   4.610  13.710 -0.0860  0.1178 -0.5870
17767TIP3    H174716   3.545   4.676  13.642 -1.5649  0.8476 -0.2366
17767TIP3    H274717   3.439   4.622  13.736  0.8257  1.0134  2.6867
17768TIP3   OH274718   0.716   1.139  11.456  0.4507  0.6098 -0.0944
17768TIP3    H174719   0.686   1.223  11.421 -0.3884  0.4906  0.3059
17768TIP3    H274720   0.773   1.163  11.529 -0.1897  0.8331  0.3378
17769TIP3   OH274721   6.586   3.986   0.497  0.5097 -0.2772  0.2032
17769TIP3    H174722   6.493   3.994   0.519  0.6242 -3.2739  2.3334
17769TIP3    H274723   6.631   4.034   0.566  0.5936 -0.1824  0.0824
17770TIP3   OH274724   5.651   4.361  16.253 -0.3261  0.2687  0.3805
17770TIP3    H174725   5.632   4.386  16.163 -2.0242 -1.3718  0.2248
17770TIP3    H274726   5.728   4.304  16.246 -0.2977  0.3507  0.0016
17771TIP3   OH274727   5.478   4.909   0.545  0.1550 -0.1485  0.2425
17771TIP3    H174728   5.521   4.862   0.616  0.6880  1.3141  0.9225
17771TIP3    H274729   5.540   4.977   0.520 -1.0989  1.0115  0.1726
17772TIP3   OH274730   1.231   3.793   0.769  0.1239 -0.0576 -0.0560
17772TIP3    H174731   1.191   3.714   0.806 -1.4392  1.2694  1.2469
17772TIP3    H274732   1.279   3.833   0.842  1.1297  0.0918 -0.7680
17773TIP3   OH274733   5.497   3.003  15.998  0.2638  0.3092 -0.0782
17773TIP3    H174734   5.427   3.069  16.001 -0.5776 -0.5548  2.0941
17773TIP3    H274735   5.481   2.955  15.917  0.0170  1.8275 -0.9743
17774TIP3   OH274736   4.416   5.123   2.219 -0.3834  0.6902  0.7372
17774TIP3    H174737   4.328   5.135   2.183 -0.1066  1.1100  0.1890
17774TIP3    H274738   4.405   5.055   2.286 -1.0891  0.6098  0.5515
17775TIP3   OH274739   1.012   5.816  12.338 -0.0764 -0.3152 -0.0056
17775TIP3    H174740   1.013   5.729  12.379 -3.5328 -0.9071 -0.8981
17775TIP3    H274741   1.021   5.798  12.244 -0.5077  0.3052 -0.1701
17776TIP3   OH274742   3.893   3.185  16.142 -0.3851  0.1089 -0.6037
17776TIP3    H174743   3.968   3.129  16.120 -0.1908  0.4184 -0.7269
17776TIP3    H274744   3.822   3.152  16.088 -0.1990  0.1535 -0.8749
17777TIP3   OH274745   4.852   3.788   4.682  0.1506 -0.0162  0.1114
17777TIP3    H174746   4.834   3.827   4.767 -2.2366 -1.6923  0.4756
17777TIP3    H274747   4.939   3.750   4.691 -1.2180 -2.9091  3.0151
17778TIP3   OH274748   1.429   2.693   1.395  0.2525 -0.6492  0.6233
17778TIP3    H174749   1.355   2.744   1.428 -0.6486 -1.7658  0.4067
17778TIP3    H274750   1.434   2.715   1.302 -1.8794 -2.8918 -0.1223
17779TIP3   OH274751   6.352   2.935   1.372 -0.1647 -0.3401 -0.4997
17779TIP3    H174752   6.335   2.846   1.341  1.0368 -0.7846  0.0848
17779TIP3    H274753   6.431   2.928   1.425 -1.6414  0.5372  2.0061
17780TIP3   OH274754   5.052   5.780  16.092 -0.6301 -0.3445 -1.0109
17780TIP3    H174755   5.104   5.700  16.083  1.5896  0.7807  0.7989
17780TIP3    H274756   5.115   5.847  16.118 -2.4745  1.9556 -2.1267
17781TIP3   OH274757   1.747   5.523   6.477  0.1904 -0.0367  0.4381
17781TIP3    H174758   1.666   5.492   6.518 -0.8534 -0.7813 -2.0080
17781TIP3    H274759   1.817   5.484   6.531 -1.0087  0.3802  2.4186
17782TIP3   OH274760   6.539   0.902  10.423 -0.2518  0.3166  0.2852
17782TIP3    H174761   6.543   0.855  10.506  0.8000 -0.8748 -0.4067
17782TIP3    H274762   6.537   0.995  10.448 -1.2920 -0.0442  1.6466
17783TIP3   OH274763   0.097   4.630  11.575  0.4646  0.0402 -0.5787
17783TIP3    H174764   0.159   4.582  11.631  1.1775  1.1157 -0.4092
17783TIP3    H274765   0.151   4.699  11.535 -0.5554  0.7861 -0.6953
17784TIP3   OH274766   2.395   2.719   4.313 -0.4408  0.0689  0.5470
17784TIP3    H174767   2.366   2.633   4.284 -1.9917  0.8390 -0.2872
17784TIP3    H274768   2.341   2.739   4.389 -0.9044  0.7869  0.0397
17785TIP3   OH274769   2.156   6.102   3.749 -0.2813 -0.5082  0.0159
17785TIP3    H174770   2.091   6.041   3.782  0.3164 -0.6917  0.8922
17785TIP3    H274771   2.167   6.079   3.656 -1.1663 -0.7234 -0.0388
17786TIP3   OH274772   4.988   2.947  12.929 -0.9238  0.4100 -0.1594
17786TIP3    H174773   5.045   3.020  12.904 -1.3780  0.4833 -1.0204
17786TIP3    H274774   4.904   2.966  12.886 -2.1141  1.0969  2.2791
17787TIP3   OH274775   1.229   4.265  16.848 -0.1427  0.2660  0.1513
17787TIP3    H174776   1.162   4.307  16.902  1.3037  0.9682  1.4880
17787TIP3    H274777   1.198   4.175  16.838 -0.5470  0.1492  2.0511
17788TIP3   OH274778   0.801   3.558  16.619 -0.3965  0.1587 -0.1481
17788TIP3    H174779   0.763   3.535  16.704 -0.7501  1.8021  0.1677
17788TIP3    H274780   0.893   3.533  16.627 -0.9212 -2.0500 -0.2273
17789TIP3   OH274781   3.706   3.700  14.011 -1.0943  0.3842  0.9298
17789TIP3    H174782   3.716   3.607  14.032  0.9044  0.3261 -0.0177
17789TIP3    H274783   3.795   3.729  13.990 -1.5132  2.7939  2.2059
17790TIP3   OH274784   0.680   6.777  10.866  0.3326 -0.2469  0.3556
17790TIP3    H174785   0.767   6.799  10.831  0.2558 -0.1735  0.2130
17790TIP3    H274786   0.663   6.688  10.836  0.1729 -0.1065  0.0225
17791TIP3   OH274787   3.504   0.363   2.782 -0.6417  0.0656 -0.2457
17791TIP3    H174788   3.559   0.433   2.747  0.0681 -0.6653 -0.6334
17791TIP3    H274789   3.493   0.385   2.874  1.4450 -0.4605  0.1875
17792TIP3   OH274790   5.893   0.856  12.774  0.1815 -0.0957 -0.1967
17792TIP3    H174791   5.842   0.908  12.712  0.1211  0.0241 -0.0455
17792TIP3    H274792   5.830   0.832  12.842  0.2625 -0.1747 -0.1496
17793TIP3   OH274793   2.100   0.239   3.654 -0.3420  0.1218 -0.2159
17793TIP3    H174794   2.062   0.326   3.643 -0.1737  0.1118 -0.9151
17793TIP3    H274795   2.194   0.252   3.644 -0.1053  0.1774  1.7225
17794TIP3   OH274796   0.082   0.974   1.031 -0.4401  0.1302 -0.2560
17794TIP3    H174797   0.126   0.891   1.048  0.7459  0.4770 -1.4553
17794TIP3    H274798   0.045   0.965   0.944 -1.9381  0.2084  0.3468
17795TIP3   OH274799   6.081   2.190  14.370 -0.0871 -0.5242  0.0548
17795TIP3    H174800   6.052   2.157  14.285  2.3562  0.2217 -1.1983
17795TIP3    H274801   6.001   2.211  14.417 -1.5410 -0.0246 -2.4646
17796TIP3   OH274802   4.254   5.984  15.938  0.3655 -0.5335 -0.3420
17796TIP3    H174803   4.290   6.001  15.851 -1.0820  1.6015 -0.6006
17796TIP3    H274804   4.329   5.989  15.997  0.9725  0.6092 -1.1824
17797TIP3   OH274805   2.291   4.692  13.412  0.4946 -0.8219  0.3106
17797TIP3    H174806   2.343   4.736  13.345  0.0743 -1.0500 -0.1733
17797TIP3    H274807   2.342   4.614  13.435  0.5007 -0.8949  0.0494
17798TIP3   OH274808   1.403   5.847  13.345 -0.6830  0.7577  0.1243
17798TIP3    H174809   1.315   5.846  13.383 -1.0923 -0.8948 -0.7775
17798TIP3    H274810   1.402   5.776  13.281  1.1407  1.0849 -0.3124
17799TIP3   OH274811   0.713   5.439  14.663  0.5340  0.1851  0.7067
17799TIP3    H174812   0.668   5.508  14.711 -1.6271 -0.8153  0.2632
17799TIP3    H274813   0.776   5.403  14.725  0.4831  1.4077  1.4913
17800TIP3   OH274814   3.580   5.906   1.240  0.2744  0.3156 -0.1236
17800TIP3    H174815   3.544   5.965   1.307 -1.0327  0.6266 -1.0499
17800TIP3    H274816   3.535   5.823   1.254 -3.1512  1.4234 -2.9833
17801TIP3   OH274817   4.859   6.332  14.731  0.5067 -0.2012  0.5208
17801TIP3    H174818   4.897   6.418  14.712 -2.0632  1.0444  0.5583
17801TIP3    H274819   4.835   6.337  14.824 -0.3441 -0.6803  0.3318
17802TIP3   OH274820   5.221   4.441  16.908 -0.0634 -0.3569 -0.1820
17802TIP3    H174821   5.279   4.365  16.910  1.2634  0.5658 -1.4147
17802TIP3    H274822   5.155   4.422  16.975  0.6025 -2.2726  0.0136
17803TIP3   OH274823   4.041   1.684  12.030 -0.2993 -0.4791 -0.0109
17803TIP3    H174824   4.081   1.770  12.040 -1.6146  0.1724 -0.1754
17803TIP3    H274825   3.961   1.700  11.981  0.5067 -2.0936 -2.0474
17804TIP3   OH274826   0.047   4.924  13.119 -0.9387 -0.2290 -0.0868
17804TIP3    H174827   0.128   4.889  13.154 -1.0763  0.0658  0.5416
17804TIP3    H274828  -0.009   4.847  13.106 -0.2419 -0.5364 -1.4038
17805TIP3   OH274829   0.642   3.674   1.433 -0.0944 -0.1120  0.1192
17805TIP3    H174830   0.552   3.643   1.431  0.2135 -1.1377  0.9027
17805TIP3    H274831   0.639   3.761   1.394 -1.4154 -0.1402  0.1226
17806TIP3   OH274832   3.300   3.557  15.769  0.3624 -0.5829 -0.2450
17806TIP3    H174833   3.342   3.490  15.716  2.6530  0.3668  0.2167
17806TIP3    H274834   3.373   3.600  15.815 -1.3055  0.0290  2.0204
17807TIP3   OH274835   3.695   1.946   3.670 -0.1113  0.1004 -0.1123
17807TIP3    H174836   3.611   1.924   3.629 -0.2087  2.5850 -1.4908
17807TIP3    H274837   3.754   1.959   3.596  1.2342 -0.6036  0.8084
17808TIP3   OH274838   0.777   4.743   3.303 -0.1223  0.3804 -0.7633
17808TIP3    H174839   0.831   4.685   3.249 -0.0360 -1.1412  0.8704
17808TIP3    H274840   0.784   4.706   3.391 -2.1728  1.3734 -0.1358
17809TIP3   OH274841   0.576   2.121   0.127 -0.0143 -0.4216 -0.2139
17809TIP3    H174842   0.491   2.117   0.171 -0.4552 -0.6381 -1.0591
17809TIP3    H274843   0.638   2.141   0.197 -0.4427 -2.4570  0.8235
17810TIP3   OH274844   4.757   6.398  16.702  0.0824  0.2315  0.2872
17810TIP3    H174845   4.763   6.441  16.787  0.0080 -1.8243  1.3940
17810TIP3    H274846   4.790   6.310  16.717 -1.7296 -0.8016 -1.3387
17811TIP3   OH274847   1.264   2.643  14.608 -0.3694  0.1092  0.3861
17811TIP3    H174848   1.253   2.717  14.668  0.4213  0.2493  0.3700
17811TIP3    H274849   1.284   2.684  14.524 -0.4710 -0.1138  0.2546
17812TIP3   OH274850   3.294   5.488  14.907 -0.0088 -0.5526 -0.2296
17812TIP3    H174851   3.352   5.493  14.831  1.3278 -2.8681  0.5352
17812TIP3    H274852   3.222   5.431  14.878  0.1397 -0.8625 -0.0009
17813TIP3   OH274853   4.178   4.157  16.931 -0.1188  0.2932  0.2359
17813TIP3    H174854   4.170   4.113  16.847  1.6694  1.4357 -0.5969
17813TIP3    H274855   4.219   4.092  16.989  1.5634  0.4873 -0.6907
17814TIP3   OH274856   6.485   2.283  12.853  0.2145 -0.6796 -0.5509
17814TIP3    H174857   6.529   2.293  12.769  1.1221  0.2150  0.0122
17814TIP3    H274858   6.410   2.342  12.848 -0.5213 -1.6324 -1.2197
17815TIP3   OH274859   4.371   2.972  12.679 -0.0248 -0.4328  0.0340
17815TIP3    H174860   4.396   2.880  12.678  2.3224  0.0485  2.6263
17815TIP3    H274861   4.444   3.017  12.722 -2.4144  2.1562  1.7940
17816TIP3   OH274862   5.853   0.992   0.558 -0.3041 -0.4862 -0.0311
17816TIP3    H174863   5.843   0.930   0.630 -1.4613  0.2968  0.5012
17816TIP3    H274864   5.798   0.956   0.488  1.4026 -1.6504 -0.8486
17817TIP3   OH274865   6.631   4.868   2.536 -0.5409 -0.0251  0.1603
17817TIP3    H174866   6.665   4.856   2.625 -0.5225  0.8022  0.2746
17817TIP3    H274867   6.538   4.886   2.548 -0.3443  1.0888  0.0928
17818TIP3   OH274868   3.493   0.661   1.112  0.8989 -0.5414  0.2667
17818TIP3    H174869   3.433   0.597   1.150 -1.2555  0.9220 -0.4887
17818TIP3    H274870   3.526   0.618   1.033 -1.3648 -0.4240 -0.8242
17819TIP3   OH274871   1.232   1.430  13.521  0.0371 -0.1658  0.7098
17819TIP3    H174872   1.311   1.376  13.525  0.6560  0.7424  1.0571
17819TIP3    H274873   1.194   1.422  13.608 -1.9841 -3.0697 -0.3077
17820TIP3   OH274874   5.476   2.107  15.126  0.4048  0.5239  0.1531
17820TIP3    H174875   5.435   2.033  15.082 -0.7171  1.9231 -1.2564
17820TIP3    H274876   5.486   2.078  15.217 -3.1277 -0.1786  0.4680
17821TIP3   OH274877   3.004   2.787   1.842  0.7906 -0.4041  0.0320
17821TIP3    H174878   3.055   2.844   1.898  1.3825 -0.1602 -0.7353
17821TIP3    H274879   3.050   2.788   1.758 -0.0301 -0.8078 -0.4401
17822TIP3   OH274880   4.864   0.840   2.064 -0.2784  0.0868 -0.0329
17822TIP3    H174881   4.817   0.912   2.105 -0.0116  1.4324 -1.9735
17822TIP3    H274882   4.920   0.882   1.998 -0.7687 -1.9486 -1.8455
17823TIP3   OH274883   5.055   0.698   4.979 -0.5808 -0.0368 -0.3767
17823TIP3    H174884   5.144   0.735   4.971 -0.7792  1.0170  1.6212
17823TIP3    H274885   5.064   0.628   5.043 -1.0579 -0.4599 -0.7664
17824TIP3   OH274886   6.172   1.327   4.272 -0.1268  0.1894  0.3919
17824TIP3    H174887   6.229   1.283   4.335  0.6420  1.6354  0.7347
17824TIP3    H274888   6.200   1.294   4.187  2.0606  1.7244  0.4503
17825TIP3   OH274889   6.130   5.966  13.530  0.0134  0.5195  0.3900
17825TIP3    H174890   6.215   6.007  13.542  0.0414  0.4967  0.2738
17825TIP3    H274891   6.067   6.027  13.569  0.2262 -0.1832  1.9153
17826TIP3   OH274892   0.526   0.061   1.431  0.1406 -0.6322 -0.0832
17826TIP3    H174893   0.567   0.136   1.476  1.3373  1.3809 -4.0865
17826TIP3    H274894   0.432   0.081   1.432  0.5403  2.0827 -2.5890
17827TIP3   OH274895   2.826   5.127  12.146 -0.3581 -0.1339  0.1453
17827TIP3    H174896   2.913   5.102  12.116 -0.9425 -0.3513 -1.4654
17827TIP3    H274897   2.835   5.218  12.173  0.6805 -0.5863  1.4035
17828TIP3   OH274898   2.051   4.346   2.930 -0.4282  0.3465 -0.8421
17828TIP3    H174899   2.103   4.266   2.928 -1.2507 -0.2259 -3.4122
17828TIP3    H274900   1.997   4.338   3.009 -0.1648 -1.4367 -0.8025
17829TIP3   OH274901   1.644   4.544  13.628  0.0093  0.1521  0.2517
17829TIP3    H174902   1.734   4.569  13.607  0.1496 -0.6138 -0.0927
17829TIP3    H274903   1.613   4.614  13.685  0.9495  0.2319  0.6865
17830TIP3   OH274904   1.213   1.851  16.052  0.0835 -0.0505 -0.7215
17830TIP3    H174905   1.185   1.764  16.081  0.4972  0.3145  0.8684
17830TIP3    H274906   1.163   1.866  15.972 -1.7309 -0.8194  0.1838
17831TIP3   OH274907   5.341   1.697  14.239  0.7089  0.1878 -0.9212
17831TIP3    H174908   5.426   1.740  14.241 -0.0007  1.8331  2.6584
17831TIP3    H274909   5.284   1.759  14.192  0.5313  1.5447  0.9412
17832TIP3   OH274910   2.365   3.044   0.868  0.5977 -0.7450 -0.6348
17832TIP3    H174911   2.300   3.094   0.917  2.3907  0.2500  0.8421
17832TIP3    H274912   2.340   3.056   0.776 -0.2736  1.0630 -0.2091
17833TIP3   OH274913   5.034   6.243   0.019  0.1093  0.5566 -0.0822
17833TIP3    H174914   5.122   6.247  -0.018 -0.8157 -2.7731 -3.2797
17833TIP3    H274915   5.046   6.205   0.106  1.8341 -1.0119 -0.9442
17834TIP3   OH274916   5.139   3.799   1.056  0.1060 -0.1222  0.2799
17834TIP3    H174917   5.061   3.854   1.060  0.8804  0.9703  0.9972
17834TIP3    H274918   5.166   3.803   0.964 -0.9394 -0.9193 -0.0806
17835TIP3   OH274919   1.908   1.206   0.650 -0.3594 -0.3632 -0.0917
17835TIP3    H174920   1.968   1.264   0.603  0.4662 -1.5255 -0.5305
17835TIP3    H274921   1.878   1.258   0.724  0.0450  0.7531 -0.6773
17836TIP3   OH274922   4.839   1.288  12.447  0.1425 -0.0791 -0.1475
17836TIP3    H174923   4.923   1.291  12.494  1.2082 -0.2360 -1.9436
17836TIP3    H274924   4.779   1.247  12.509  1.3855  0.0498  1.2054
17837TIP3   OH274925   5.491   2.372  13.586  0.3001  0.6696 -0.5022
17837TIP3    H174926   5.447   2.306  13.533  1.2602  0.7004 -1.3885
17837TIP3    H274927   5.554   2.322  13.639 -0.4483  0.6699  0.4037
17838TIP3   OH274928   3.611   4.409  11.173  0.1260 -0.4612 -0.5034
17838TIP3    H174929   3.602   4.436  11.264 -0.2799 -2.8461  0.2294
17838TIP3    H274930   3.646   4.320  11.178 -1.2412 -1.1724 -2.6289
17839TIP3   OH274931   6.540   3.166  16.213 -0.0629 -0.2948 -0.5859
17839TIP3    H174932   6.592   3.091  16.243  0.2337 -0.2241 -0.9176
17839TIP3    H274933   6.477   3.129  16.151 -0.0865 -0.3069 -0.5545
17840TIP3   OH274934   4.662   0.859  12.394 -0.5416 -0.3760 -0.1196
17840TIP3    H174935   4.670   0.880  12.487 -0.7253 -0.4011 -0.0987
17840TIP3    H274936   4.748   0.880  12.358 -0.7386  0.4779 -0.1140
17841TIP3   OH274937   0.354   0.112  11.998 -0.3813 -0.2964 -0.0317
17841TIP3    H174938   0.327   0.096  12.089 -1.2225 -1.9079 -0.5229
17841TIP3    H274939   0.290   0.063  11.945  1.3372 -1.1636 -1.4035
17842TIP3   OH274940   1.035   2.499   3.266 -0.6443  0.1507 -0.0791
17842TIP3    H174941   1.045   2.571   3.328  2.5791 -0.1884 -0.0130
17842TIP3    H274942   1.033   2.421   3.322  3.4845 -0.2605 -0.1660
17843TIP3   OH274943   4.317   2.172  12.603 -0.0307  0.3323 -0.6260
17843TIP3    H174944   4.411   2.161  12.589 -0.0132 -0.8882  0.3065
17843TIP3    H274945   4.305   2.267  12.610  1.0186  0.5437 -1.4283
17844TIP3   OH274946   1.893   4.471  15.252  0.0610 -0.2744  0.1820
17844TIP3    H174947   1.812   4.440  15.293 -1.6621  3.0142 -0.3205
17844TIP3    H274948   1.952   4.488  15.326 -0.2483 -1.3389  0.6814
17845TIP3   OH274949   0.071   5.868   5.488  0.0715  0.0926  0.1539
17845TIP3    H174950   0.060   5.803   5.419 -1.0780  1.7801 -1.3421
17845TIP3    H274951   0.162   5.859   5.515  0.0827 -1.7492 -0.3596
17846TIP3   OH274952   0.705   0.253  11.397  0.0669  0.1872  0.1466
17846TIP3    H174953   0.711   0.193  11.322 -1.2255  1.5566 -1.1209
17846TIP3    H274954   0.789   0.243  11.442  0.0986 -2.1639 -0.3006
17847TIP3   OH274955   5.356   4.791   0.323 -0.2735 -0.3644 -0.3238
17847TIP3    H174956   5.308   4.716   0.358  2.3943 -1.6278  0.8758
17847TIP3    H274957   5.418   4.815   0.391  0.5204  1.4737 -1.6025
17848TIP3   OH274958   4.726   5.482  14.255  0.4155 -0.2772  0.9075
17848TIP3    H174959   4.635   5.465  14.229  1.2347 -1.2714 -1.5229
17848TIP3    H274960   4.718   5.524  14.341 -2.3543  0.2986  0.4712
17849TIP3   OH274961   4.678   6.716   3.997 -0.6663 -0.5054  0.0218
17849TIP3    H174962   4.741   6.762   4.053 -2.4500  1.5796  0.4145
17849TIP3    H274963   4.640   6.784   3.942 -1.8397 -1.8747 -0.9215
17850TIP3   OH274964   0.804   5.331  13.917  0.2321 -0.0587  0.0580
17850TIP3    H174965   0.752   5.251  13.923  0.6834 -0.3044  0.7027
17850TIP3    H274966   0.742   5.398  13.888 -0.6740 -0.1397  1.7213
17851TIP3   OH274967   1.209   5.002  12.863 -0.2931 -0.1770  0.3201
17851TIP3    H174968   1.168   4.918  12.841  1.2009 -0.5283 -1.4005
17851TIP3    H274969   1.152   5.068  12.822 -0.2204 -0.5300 -0.3719
17852TIP3   OH274970   2.788   3.423   3.548 -0.2915 -0.2571 -0.1489
17852TIP3    H174971   2.704   3.399   3.507  0.0800 -0.7333 -0.6441
17852TIP3    H274972   2.772   3.509   3.587 -0.5513  0.4100 -1.6414
17853TIP3   OH274973   2.584   2.770   3.196  0.2553 -0.4478  0.2695
17853TIP3    H174974   2.645   2.802   3.130  0.4552 -1.1697  0.0941
17853TIP3    H274975   2.521   2.717   3.147 -0.5489  0.3265  0.4407
17854TIP3   OH274976   3.014   5.821   1.827  0.3116 -0.1188 -0.0547
17854TIP3    H174977   3.092   5.766   1.824 -0.5332 -1.3518 -0.3085
17854TIP3    H274978   2.941   5.759   1.824 -0.6793  0.9970  0.2787
17855TIP3   OH274979   6.597   6.722  15.411 -0.0725 -0.1739  0.8648
17855TIP3    H174980   6.531   6.761  15.469 -0.4643  1.0088 -0.3218
17855TIP3    H274981   6.681   6.748  15.449 -0.3137 -0.0559  1.3213
17856TIP3   OH274982   5.422   3.341   4.637  0.2895  0.0952 -0.4006
17856TIP3    H174983   5.498   3.292   4.668 -1.8511 -2.7424  0.7896
17856TIP3    H274984   5.368   3.355   4.715 -0.4691  2.0285 -1.1973
17857TIP3   OH274985   6.764   4.251   0.735  0.0994 -0.0232 -0.1330
17857TIP3    H174986   6.669   4.253   0.745 -0.0784  1.6409 -1.6630
17857TIP3    H274987   6.780   4.175   0.678 -0.4653  0.4942 -1.0015
17858TIP3   OH274988   3.164   5.017  12.593  0.0673 -0.4529 -0.0937
17858TIP3    H174989   3.241   4.962  12.608 -0.7536 -1.1719  1.7843
17858TIP3    H274990   3.182   5.097  12.641  1.0127  0.7925 -2.3642
17859TIP3   OH274991   5.993   5.086  14.513 -0.6049 -0.0045  0.2379
17859TIP3    H174992   5.994   5.011  14.573 -0.2104 -1.4058 -1.4067
17859TIP3    H274993   5.930   5.061  14.445 -3.2969  2.7993  1.4804
17860TIP3   OH274994   5.731   6.477   5.608 -0.3242  0.2612 -0.1987
17860TIP3    H174995   5.695   6.515   5.688 -0.2334  0.3009 -0.1765
17860TIP3    H274996   5.772   6.396   5.636 -2.2898 -0.9279 -0.5357
17861TIP3   OH274997   2.848   4.109   2.966 -0.3275 -0.1645 -0.0361
17861TIP3    H174998   2.763   4.118   2.922 -0.6519  1.7843  0.8530
17861TIP3    H274999   2.898   4.184   2.936  0.3931 -0.2582  0.8827
17862TIP3   OH275000   1.070   0.219   2.690  0.7010  0.4468 -0.2102
17862TIP3    H175001   1.087   0.303   2.648  4.4276 -1.1888 -2.5343
17862TIP3    H275002   1.152   0.198   2.734 -0.5465 -1.4524  1.3631
17863TIP3   OH275003   3.213   6.419  11.396 -0.4728 -0.2556  0.2262
17863TIP3    H175004   3.191   6.334  11.358 -0.8768  0.2278 -0.6345
17863TIP3    H275005   3.306   6.412  11.419  0.3755  0.0889 -2.6976
17864TIP3   OH275006   1.365   6.240  13.959 -0.6420  0.2901  0.4299
17864TIP3    H175007   1.430   6.170  13.953 -1.5258 -0.5220  0.1418
17864TIP3    H275008   1.417   6.320  13.965  0.4368 -0.1329 -1.9903
17865TIP3   OH275009   1.474   6.331   4.855 -0.7527  0.6137  0.2832
17865TIP3    H175010   1.532   6.262   4.821 -0.0112  1.7489 -0.8477
17865TIP3    H275011   1.387   6.293   4.851 -0.5365  0.1941 -1.6890
17866TIP3   OH275012   0.550   6.442   2.344 -0.4062 -0.2609 -0.1645
17866TIP3    H175013   0.613   6.481   2.283 -3.8662  0.5665 -3.6558
17866TIP3    H275014   0.533   6.355   2.309 -2.1296  0.0451 -0.1685
17867TIP3   OH275015   0.648   3.111   3.579 -0.6355  0.3717 -0.1196
17867TIP3    H175016   0.554   3.092   3.584 -0.7554  0.8124 -0.6144
17867TIP3    H275017   0.665   3.167   3.654 -1.1005  1.5955 -0.8949
17868TIP3   OH275018   6.681   6.153   2.603  0.7489 -0.5049 -0.3244
17868TIP3    H175019   6.698   6.202   2.684 -0.1966 -1.3258  0.3996
17868TIP3    H275020   6.605   6.099   2.623  1.1749 -1.5666 -1.4041
17869TIP3   OH275021   4.849   1.623   2.847 -0.2256  0.7041 -0.6741
17869TIP3    H175022   4.833   1.548   2.904  1.5020 -1.2539 -2.5685
17869TIP3    H275023   4.793   1.692   2.881 -0.2736 -0.7472  2.5039
17870TIP3   OH275024   6.574   1.135  15.410  0.5598 -0.3881  0.6543
17870TIP3    H175025   6.541   1.136  15.500 -0.7967 -1.2296  0.1840
17870TIP3    H275026   6.521   1.201  15.364  0.4615 -0.7824  0.2035
17871TIP3   OH275027   3.462   5.221   4.013 -0.3283 -0.0623 -0.5068
17871TIP3    H175028   3.531   5.265   4.062 -0.7388  0.0140  0.0136
17871TIP3    H275029   3.508   5.157   3.959  0.0930 -0.6220  0.4833
17872TIP3   OH275030   6.628   1.080   3.797 -0.5518 -0.0911 -0.5629
17872TIP3    H175031   6.701   1.054   3.853 -0.1982  2.4452  0.2817
17872TIP3    H275032   6.639   1.175   3.785 -3.7577  0.4515 -0.2548
17873TIP3   OH275033   2.546   5.848   1.955 -0.0128 -0.5780 -0.5514
17873TIP3    H175034   2.492   5.928   1.953  1.4220  0.5382  1.3164
17873TIP3    H275035   2.500   5.791   2.017 -1.2030 -1.3882 -2.1158
17874TIP3   OH275036   1.901   5.475   0.703 -0.5572 -0.3881 -0.0690
17874TIP3    H175037   1.837   5.494   0.772  0.0696 -0.2654  0.4952
17874TIP3    H275038   1.948   5.398   0.735  0.1155  0.0071 -0.0871
17875TIP3   OH275039   0.242   3.650   0.339 -0.3296  0.3068  0.1648
17875TIP3    H175040   0.307   3.581   0.353 -0.9810 -0.5513 -0.8134
17875TIP3    H275041   0.219   3.641   0.247 -0.8136  1.5144  0.1610
17876TIP3   OH275042   4.871   4.645   4.175  0.3047  0.0650 -0.3989
17876TIP3    H175043   4.925   4.644   4.096  1.1236 -1.4389  0.1355
17876TIP3    H275044   4.797   4.589   4.154  1.0554 -1.2044  0.2073
17877TIP3   OH275045   4.019   3.668   3.875  0.0153 -0.3874  0.2163
17877TIP3    H175046   3.995   3.607   3.945  0.3401  0.2161  0.8670
17877TIP3    H275047   3.957   3.741   3.884  0.0647 -0.2982 -0.1244
17878TIP3   OH275048   1.485   6.465   1.345  0.3483  0.3984  0.1042
17878TIP3    H175049   1.477   6.481   1.251 -0.0852 -1.6999 -0.2597
17878TIP3    H275050   1.399   6.485   1.381  0.4226  0.8917  0.0090
17879TIP3   OH275051   4.868   6.156  16.753 -0.1370  0.4220 -0.8278
17879TIP3    H175052   4.848   6.083  16.694 -1.0324  0.3801 -0.4777
17879TIP3    H275053   4.854   6.121  16.841  2.4050  0.0954 -0.4654
17880TIP3   OH275054   0.183   6.426  12.418  0.0019  0.0813  0.1531
17880TIP3    H175055   0.164   6.345  12.465 -0.4802  0.9988  1.5829
17880TIP3    H275056   0.143   6.413  12.332 -1.4789 -0.5860  0.9047
17881TIP3   OH275057   4.275   0.642  16.336  0.0569 -0.4668 -0.2068
17881TIP3    H175058   4.260   0.690  16.417  0.0717 -2.3531  0.9718
17881TIP3    H275059   4.277   0.710  16.268  1.3797  1.3113  1.4988
17882TIP3   OH275060   3.747   5.130  17.145  0.0890  0.1002 -0.1422
17882TIP3    H175061   3.727   5.088  17.061 -0.0735 -0.1561  0.0233
17882TIP3    H275062   3.722   5.222  17.133 -0.1882  0.0068 -0.2866
17883TIP3   OH275063   2.701   5.662  13.010 -0.9552  0.4465  0.4539
17883TIP3    H175064   2.635   5.702  13.066  0.1602  2.4624  0.4194
17883TIP3    H275065   2.751   5.736  12.976  0.5478 -0.9497 -0.4933
17884TIP3   OH275066   1.006   4.910   1.259  0.1844  0.0731 -0.5422
17884TIP3    H175067   0.968   4.866   1.183  0.4841 -1.5754  0.2324
17884TIP3    H275068   1.009   5.002   1.233 -0.9261 -0.2563 -2.0204
17885TIP3   OH275069   4.468   6.023  15.297  0.2260  0.9082  0.2429
17885TIP3    H175070   4.507   6.059  15.217 -1.2688 -1.1374 -1.4982
17885TIP3    H275071   4.383   6.065  15.302 -0.1133  0.2372  0.1519
17886TIP3   OH275072   2.242   1.759  17.178  0.2475  0.1311 -0.1719
17886TIP3    H175073   2.156   1.754  17.220 -0.6170 -0.5877 -1.9367
17886TIP3    H275074   2.251   1.850  17.152  0.7174  0.5468  1.3627
17887TIP3   OH275075   3.263   2.359  15.763  0.2718  0.6136  0.3482
17887TIP3    H175076   3.206   2.282  15.766 -0.9402  1.4965  0.4420
17887TIP3    H275077   3.346   2.328  15.799 -0.5629 -0.3435  1.5341
17888TIP3   OH275078   1.084   6.591   4.368 -0.1932 -0.2562 -0.0002
17888TIP3    H175079   1.138   6.560   4.440 -0.8078  0.5717  0.8253
17888TIP3    H275080   1.088   6.686   4.372 -0.7741 -0.1862 -0.6420
17889TIP3   OH275081   4.389   4.363   4.382  0.3115  0.5483  0.3094
17889TIP3    H175082   4.404   4.331   4.293 -0.7674 -1.4304  0.7956
17889TIP3    H275083   4.333   4.297   4.422 -0.6557  2.2788  1.9306
17890TIP3   OH275084   5.287   5.878  15.181 -0.2217 -0.1077  0.0876
17890TIP3    H175085   5.353   5.936  15.220  0.3803 -1.1646  0.6970
17890TIP3    H275086   5.260   5.923  15.101  1.1064  0.4476 -0.0765
17891TIP3   OH275087   2.294   6.057   2.730  0.6649  0.5361 -0.3373
17891TIP3    H175088   2.300   6.067   2.825  0.0924  0.5000 -0.2958
17891TIP3    H275089   2.330   5.970   2.714 -0.3563  0.0430 -0.0213
17892TIP3   OH275090   4.054   4.187   0.745  0.4277  0.0397  0.5437
17892TIP3    H175091   4.102   4.192   0.828 -0.8968 -1.5334  1.4586
17892TIP3    H275092   4.016   4.274   0.734  1.7056  0.6593  0.8955
17893TIP3   OH275093   2.194   2.728   6.034  0.6299 -0.5390  0.1445
17893TIP3    H175094   2.285   2.745   6.009  0.5006 -0.8893 -0.6011
17893TIP3    H275095   2.146   2.805   6.004  0.5623 -0.7101 -0.1957
17894TIP3   OH275096   4.144   2.891   2.701  0.0774 -0.7955  0.0427
17894TIP3    H175097   4.229   2.868   2.664  0.7248 -3.0839  2.6555
17894TIP3    H275098   4.081   2.850   2.642  0.8484 -0.9385 -0.7172
17895TIP3   OH275099   3.589   1.908  16.277 -0.0101 -0.1752 -0.6046
17895TIP3    H175100   3.566   1.815  16.271 -0.5559 -0.0664 -0.2770
17895TIP3    H275101   3.565   1.933  16.367  0.0381  0.3087 -0.7234
17896TIP3   OH275102   2.563   6.393  16.785  0.4049 -0.6563 -0.0600
17896TIP3    H175103   2.588   6.478  16.749 -2.4962  0.3969  0.2009
17896TIP3    H275104   2.639   6.366  16.837  1.8446  1.2004 -1.0864
17897TIP3   OH275105   1.402   4.510  15.489 -0.3075 -1.2088 -0.1707
17897TIP3    H175106   1.462   4.436  15.495  0.7684 -0.3149  0.4316
17897TIP3    H275107   1.430   4.557  15.410  0.2040 -0.4444  0.4579
17898TIP3   OH275108   1.529   6.056   1.766 -0.2643  0.4323 -0.1233
17898TIP3    H175109   1.450   6.053   1.820 -1.3228  2.1668 -1.4681
17898TIP3    H275110   1.600   6.030   1.825 -1.8462 -1.5433  1.0261
17899TIP3   OH275111   3.122   0.587  11.733  0.4040  0.4773 -0.6143
17899TIP3    H175112   3.037   0.576  11.690  0.4413  1.2097 -0.8789
17899TIP3    H275113   3.159   0.666  11.694  0.9532  0.4925 -0.0730
17900TIP3   OH275114   0.788   3.872  12.570  0.2132  0.1439 -0.2275
17900TIP3    H175115   0.773   3.779  12.589  0.3897  0.1589 -0.0030
17900TIP3    H275116   0.799   3.912  12.657  0.7508  0.2678 -0.3505
17901TIP3   OH275117   5.994   4.211   1.762 -0.3352 -0.0418  0.3208
17901TIP3    H175118   6.089   4.204   1.775 -0.2541  0.8935  0.2523
17901TIP3    H275119   5.957   4.195   1.848  0.0495  2.6841  1.0812
17902TIP3   OH275120   1.058   0.151   5.308 -0.4985  0.0738  0.3189
17902TIP3    H175121   1.029   0.095   5.236  0.3236 -0.4331  0.3724
17902TIP3    H275122   1.005   0.122   5.383  0.7276 -1.4993  0.6504
17903TIP3   OH275123   2.962   4.749   4.265 -0.1735 -0.5684 -0.2069
17903TIP3    H175124   2.926   4.707   4.187 -0.6555  0.7760 -0.7261
17903TIP3    H275125   2.919   4.834   4.270 -0.2585 -0.6712  1.6227
17904TIP3   OH275126   3.363   0.714  12.861  0.0662 -0.4125  0.3057
17904TIP3    H175127   3.277   0.690  12.894  0.5481  0.1574  2.0519
17904TIP3    H275128   3.419   0.719  12.938  1.4682  0.0966 -0.6926
17905TIP3   OH275129   4.518   4.359   3.158 -0.8187  0.1385  0.7601
17905TIP3    H175130   4.465   4.390   3.232  1.4362  3.6209  1.1572
17905TIP3    H275131   4.478   4.399   3.081  0.1551  1.3634  0.8612
17906TIP3   OH275132   4.218   1.649  13.511  0.5286  0.4093 -0.1792
17906TIP3    H175133   4.291   1.615  13.460  2.6228 -0.5701  3.1699
17906TIP3    H275134   4.258   1.688  13.588 -2.4482 -0.2718  1.9099
17907TIP3   OH275135   1.307   0.341  16.878  0.1918 -0.0056  0.1509
17907TIP3    H175136   1.398   0.327  16.904 -0.0196  0.2204  1.0678
17907TIP3    H275137   1.256   0.299  16.947 -0.4459 -2.6024 -1.7448
17908TIP3   OH275138   4.207   3.692  14.003  0.3157  0.3089  0.3371
17908TIP3    H175139   4.239   3.607  13.971  0.4410  0.5696 -0.2465
17908TIP3    H275140   4.278   3.753  13.984  0.0087  0.6437  0.2532
17909TIP3   OH275141   5.718   0.813  12.214 -0.9012  0.2763 -0.1928
17909TIP3    H175142   5.647   0.764  12.257  0.0838  0.2741  1.5632
17909TIP3    H275143   5.675   0.860  12.143 -2.6200  0.0946  0.6537
17910TIP3   OH275144   0.758   4.531  11.414 -0.4877 -0.4672  0.0812
17910TIP3    H175145   0.839   4.537  11.466 -0.7148 -1.2740  0.5399
17910TIP3    H275146   0.788   4.535  11.323  0.0337 -0.4027  0.2495
17911TIP3   OH275147   6.117   3.157  14.406  0.6138 -0.3380  0.2004
17911TIP3    H175148   6.209   3.168  14.430  0.7275  0.0110 -0.3697
17911TIP3    H275149   6.113   3.073  14.362  1.0379  0.4771 -1.4810
17912TIP3   OH275150   5.746   3.656  16.557 -0.0105  0.1233  0.2994
17912TIP3    H175151   5.663   3.701  16.541  0.5638  0.8205 -0.8382
17912TIP3    H275152   5.783   3.700  16.634 -0.7465 -0.3060  0.9209
17913TIP3   OH275153   3.060   2.924   0.759 -0.4500 -0.0539 -0.1813
17913TIP3    H175154   3.123   2.991   0.732 -1.2604  1.6437  1.8292
17913TIP3    H275155   2.986   2.934   0.699  0.5449 -1.1317 -1.6741
17914TIP3   OH275156   6.441   2.267   4.007  0.1206 -0.3357 -0.3279
17914TIP3    H175157   6.401   2.226   4.084  1.9615 -1.2854  0.1663
17914TIP3    H275158   6.417   2.209   3.935 -1.0361  0.1878 -0.3905
17915TIP3   OH275159   6.683   5.114   0.100  0.2044 -0.2003  0.0468
17915TIP3    H175160   6.753   5.125   0.164  0.7168 -1.3506 -0.2823
17915TIP3    H275161   6.625   5.049   0.139  1.3513 -2.1287 -1.2547
17916TIP3   OH275162   0.002   3.950  15.050 -0.2441  0.0029 -0.3733
17916TIP3    H175163   0.024   4.030  15.098  1.6204 -0.8014  0.2430
17916TIP3    H275164  -0.007   3.883  15.118 -0.2666 -0.6105 -0.9685
17917TIP3   OH275165   2.798   1.797  15.568 -0.4895  0.3072 -0.1849
17917TIP3    H175166   2.723   1.792  15.509 -1.5548  0.5790  1.1036
17917TIP3    H275167   2.761   1.822  15.653  0.7630 -1.6876  1.0297
17918TIP3   OH275168   2.254   4.102  12.658 -0.5599 -0.1814 -0.0856
17918TIP3    H175169   2.263   4.056  12.574  0.0998  0.3853 -0.3282
17918TIP3    H275170   2.199   4.177  12.638 -1.2248 -0.5777  0.2088
17919TIP3   OH275171   4.188   2.035  12.409 -0.1243  0.6491 -0.0469
17919TIP3    H175172   4.251   2.031  12.337  0.7946  0.9352  0.7297
17919TIP3    H275173   4.232   2.085  12.477 -0.8668  0.1377  0.8369
17920TIP3   OH275174   3.623   4.761   4.338 -0.2823 -0.3027  0.7830
17920TIP3    H175175   3.528   4.752   4.345 -0.2720 -1.3785 -0.1447
17920TIP3    H275176   3.638   4.856   4.341 -1.3039 -0.1402  1.6390
17921TIP3   OH275177   1.218   6.487  14.849 -0.4545 -0.2703 -0.0004
17921TIP3    H175178   1.196   6.441  14.930  0.0684  0.4489  0.5709
17921TIP3    H275179   1.300   6.448  14.821 -0.4515 -0.2759  0.0149
17922TIP3   OH275180   1.743   3.642   0.773 -0.4093  0.5594  0.6298
17922TIP3    H175181   1.775   3.719   0.819  1.7750  0.4316 -0.5405
17922TIP3    H275182   1.688   3.676   0.703 -0.3474  0.9780  0.7851
17923TIP3   OH275183   4.052   4.306  15.851 -0.1729 -0.0034  0.0147
17923TIP3    H175184   3.963   4.270  15.846  0.5178 -1.7198 -0.5940
17923TIP3    H275185   4.109   4.229  15.844  1.3643  0.9842  1.1216
17924TIP3   OH275186   6.466   1.785  12.568  0.2651  0.6799 -0.2242
17924TIP3    H175187   6.379   1.802  12.532  0.3682  0.3099 -0.6540
17924TIP3    H275188   6.511   1.869  12.564  0.6248  0.4431 -1.9200
17925TIP3   OH275189   5.515   3.555   5.255 -0.0772 -0.2599  0.4314
17925TIP3    H175190   5.439   3.534   5.200  0.0937  0.1700  0.0166
17925TIP3    H275191   5.569   3.476   5.253 -0.4901 -0.5479  0.6850
17926TIP3   OH275192   5.790   5.703   4.054 -0.7713  0.4760 -0.4250
17926TIP3    H175193   5.719   5.737   3.999 -1.1751  1.3955  0.6259
17926TIP3    H275194   5.870   5.736   4.015 -0.9657  0.0582 -1.1899
17927TIP3   OH275195   6.272   5.604  11.635  0.2445 -0.1428  0.1593
17927TIP3    H175196   6.187   5.637  11.663  0.2587 -0.9130  1.1929
17927TIP3    H275197   6.303   5.668  11.572 -0.0478  1.4288  1.5347
17928TIP3   OH275198   3.587   0.956  16.042  0.4208 -0.5765 -0.0958
17928TIP3    H175199   3.577   0.872  15.996 -0.7553 -1.0046  0.9002
17928TIP3    H275200   3.521   1.013  16.001  0.3676 -0.5184  0.0709
17929TIP3   OH275201   4.035   4.899   2.190  0.1967  0.1705  0.0758
17929TIP3    H175202   4.099   4.838   2.227  1.1594  1.7625  1.1717
17929TIP3    H275203   4.048   4.980   2.239 -1.5808  1.0357 -0.7880
17930TIP3   OH275204   2.199   2.059   3.740 -0.4251  0.0467 -0.2157
17930TIP3    H175205   2.284   2.016   3.728 -1.0851 -1.0443 -1.1503
17930TIP3    H275206   2.211   2.146   3.702  0.3832  0.0372 -0.0010
17931TIP3   OH275207   1.763   4.429  13.951 -0.2388  0.3699  0.3607
17931TIP3    H175208   1.724   4.343  13.937  1.2677 -0.1094 -1.2495
17931TIP3    H275209   1.858   4.414  13.942  0.0212  2.2688 -0.4534
17932TIP3   OH275210   0.099   2.419  16.783 -0.7551 -0.1524  0.4802
17932TIP3    H175211   0.026   2.473  16.751 -0.0090 -0.5290 -2.0711
17932TIP3    H275212   0.177   2.462  16.748 -0.0850 -2.3211 -0.8468
17933TIP3   OH275213   5.343   0.820   3.167  0.5607 -0.4154  0.0168
17933TIP3    H175214   5.332   0.726   3.179 -0.0945 -0.2794  0.5602
17933TIP3    H275215   5.263   0.858   3.203  0.0936  0.2560 -1.6091
17934TIP3   OH275216   0.010   2.829  14.594  0.2115 -0.1032  0.0610
17934TIP3    H175217   0.080   2.888  14.566  0.0289  0.4541  0.7416
17934TIP3    H275218   0.050   2.770  14.657  0.0592  0.2595  0.5021
17935TIP3   OH275219   2.253   5.029   0.143  0.1701 -0.1292 -0.5934
17935TIP3    H175220   2.203   4.948   0.154 -1.2871  1.0463  2.9114
17935TIP3    H275221   2.343   5.005   0.164 -0.1058 -0.9800 -0.3672
17936TIP3   OH275222   1.135   3.430   5.642 -0.0885  0.2963  0.2011
17936TIP3    H175223   1.127   3.398   5.732 -3.1469  0.6204  0.1459
17936TIP3    H275224   1.161   3.522   5.652  2.3522 -0.3389  0.5554
17937TIP3   OH275225   1.366   0.266   5.243  0.2300 -0.1635 -0.1632
17937TIP3    H175226   1.301   0.197   5.254 -0.3618  0.1848 -1.2908
17937TIP3    H275227   1.441   0.237   5.295  0.7388 -2.6200 -2.0704
17938TIP3   OH275228   5.386   6.682   4.117  0.3434 -0.2776 -0.1195
17938TIP3    H175229   5.387   6.594   4.078  0.7228 -0.2861 -0.0992
17938TIP3    H275230   5.477   6.711   4.110  0.0304  0.5434 -1.0974
17939TIP3   OH275231   2.669   5.126  16.034  0.0143 -0.0045  0.1194
17939TIP3    H175232   2.749   5.093  16.073 -0.1197 -1.7810 -1.0080
17939TIP3    H275233   2.660   5.215  16.068  2.4802  0.2610  0.2070
17940TIP3   OH275234   5.539   2.547   2.603 -1.0664 -0.5385 -0.3766
17940TIP3    H175235   5.634   2.552   2.588 -0.6991 -1.0352  1.5184
17940TIP3    H275236   5.504   2.516   2.520  0.7183 -2.6735 -0.4388
17941TIP3   OH275237   3.785   5.444   0.083 -0.3503  0.3206  0.1867
17941TIP3    H175238   3.861   5.397   0.116 -0.5090 -0.1173 -0.0544
17941TIP3    H275239   3.798   5.535   0.110  1.4214  0.7545 -1.8476
17942TIP3   OH275240   5.609   2.945   5.109 -0.4172  0.3485  0.1309
17942TIP3    H175241   5.696   2.963   5.146 -0.0897 -0.5129 -0.1793
17942TIP3    H275242   5.558   3.023   5.128  0.9672  1.6662 -1.3071
17943TIP3   OH275243   2.777   6.084  13.853  0.1647 -0.5007 -0.8607
17943TIP3    H175244   2.826   6.164  13.868 -0.3923 -0.3125  0.0517
17943TIP3    H275245   2.724   6.102  13.775 -2.3424  1.2406  1.0945
17944TIP3   OH275246   1.019   0.586   1.268  0.5568  0.2498  0.0773
17944TIP3    H175247   1.020   0.581   1.173  1.4150 -1.2434  0.1275
17944TIP3    H275248   1.092   0.531   1.296 -0.6517 -0.6722  1.6227
17945TIP3   OH275249   5.369   3.327  11.099 -0.8779  0.4369 -0.3632
17945TIP3    H175250   5.368   3.354  11.191 -0.2105  1.5605 -0.6646
17945TIP3    H275251   5.394   3.234  11.102 -0.8779  0.4525  0.5901
17946TIP3   OH275252   4.424   0.170   1.360 -0.3138  1.1077 -0.4898
17946TIP3    H175253   4.493   0.191   1.297 -1.2383  0.5605 -1.7059
17946TIP3    H275254   4.441   0.229   1.434  2.4830 -0.1851  0.0072
17947TIP3   OH275255   5.906   4.544   2.042  0.3726  0.0356 -0.1093
17947TIP3    H175256   5.955   4.546   1.960  0.7693  0.8202  0.1321
17947TIP3    H275257   5.815   4.558   2.017  0.4610  0.0443 -0.4307
17948TIP3   OH275258   0.929   5.014  12.099  0.8638  0.1832 -0.3806
17948TIP3    H175259   0.852   4.973  12.139  3.0158 -0.6904  3.3069
17948TIP3    H275260   0.898   5.101  12.074 -1.4287 -0.2228  0.7151
17949TIP3   OH275261   3.144   0.535  12.971 -0.0719 -0.1316 -0.0153
17949TIP3    H175262   3.164   0.492  13.054  0.1835 -0.8450 -0.4371
17949TIP3    H275263   3.077   0.599  12.993  0.9558  0.6354  0.9891
17950TIP3   OH275264   2.341   3.066   5.216  0.5246 -0.4858  0.8159
17950TIP3    H175265   2.321   3.024   5.300  1.0647 -1.4565  0.4730
17950TIP3    H275266   2.424   3.027   5.189 -0.8117 -2.0626 -1.3314
17951TIP3   OH275267   0.430   6.392   5.449 -0.2422 -0.1631 -0.1031
17951TIP3    H175268   0.346   6.349   5.430  0.1600 -0.6417 -0.8499
17951TIP3    H275269   0.414   6.442   5.529 -0.4243 -2.5938  1.4955
17952TIP3   OH275270   0.096   3.952   5.584 -0.9635 -0.0181  0.2002
17952TIP3    H175271   0.120   3.940   5.492 -0.8763  0.5918  0.1360
17952TIP3    H275272   0.180   3.960   5.630 -1.0032 -0.5536  0.3686
17953TIP3   OH275273   1.849   0.365  16.702  0.6363 -0.0795 -0.6551
17953TIP3    H175274   1.931   0.354  16.654  0.5273  0.6810 -1.0354
17953TIP3    H275275   1.832   0.459  16.699  0.1515 -0.1323  0.0933
17954TIP3   OH275276   4.303   1.093   3.694  0.4907  0.2960  0.3870
17954TIP3    H175277   4.340   1.175   3.726  2.5076 -0.5367  0.2888
17954TIP3    H275278   4.228   1.077   3.751  1.1930  1.2445  1.6277
17955TIP3   OH275279   4.491   2.476   0.752  0.7282  0.6810 -0.1441
17955TIP3    H175280   4.466   2.567   0.765 -0.5338  0.4567 -0.8186
17955TIP3    H275281   4.549   2.478   0.676 -0.5065  0.7858 -1.1259
17956TIP3   OH275282   2.675   5.119  10.322 -0.3124  0.2796 -0.0447
17956TIP3    H175283   2.669   5.214  10.336  0.5944  0.1206  1.7401
17956TIP3    H275284   2.590   5.094  10.287 -1.4640  1.4280  1.7602
17957TIP3   OH275285   5.813   2.437   2.564 -0.5338 -0.6325 -0.3782
17957TIP3    H175286   5.831   2.492   2.488 -2.4644 -0.1780 -0.5721
17957TIP3    H275287   5.834   2.492   2.639  1.3767 -1.0816 -0.5375
17958TIP3   OH275288   4.102   3.205  15.851  0.3090  0.1734 -0.2483
17958TIP3    H175289   4.037   3.276  15.847 -0.2668 -0.3888 -1.0387
17958TIP3    H275290   4.119   3.183  15.760  0.5766 -0.6381 -0.0073
17959TIP3   OH275291   1.240   2.288  14.528  0.0991  0.2778  0.7084
17959TIP3    H175292   1.223   2.224  14.459  0.0739 -0.0957  1.0561
17959TIP3    H275293   1.333   2.276  14.549  0.2548  0.7962  0.3352
17960TIP3   OH275294   3.993   3.086   5.320 -0.1826  0.5091  0.2349
17960TIP3    H175295   4.075   3.080   5.272 -1.0302 -1.2603 -1.1240
17960TIP3    H275296   4.016   3.131   5.401  1.5442  2.6115 -1.2875
17961TIP3   OH275297   3.553   0.862   4.572  0.1434 -0.1450 -0.0071
17961TIP3    H175298   3.466   0.880   4.608 -0.0857  1.9694 -1.4216
17961TIP3    H275299   3.607   0.844   4.648 -1.1765  0.1862  1.0466
17962TIP3   OH275300   5.478   0.993   1.780 -0.6088 -0.4075  0.2525
17962TIP3    H175301   5.500   0.954   1.865  2.0428  0.1906 -0.0815
17962TIP3    H275302   5.462   1.085   1.800  0.1226 -0.2449  0.1001
17963TIP3   OH275303   3.338   2.387   3.872 -0.6406 -0.7726 -0.2865
17963TIP3    H175304   3.247   2.401   3.900 -0.5678 -1.6723  0.4491
17963TIP3    H275305   3.341   2.424   3.784 -1.8716 -1.1841 -0.5362
17964TIP3   OH275306   5.287   2.894   6.255  0.2557 -0.4879  0.0194
17964TIP3    H175307   5.206   2.943   6.236  0.1279 -0.2983  1.0007
17964TIP3    H275308   5.297   2.901   6.350  0.9299 -1.3022  0.0135
17965TIP3   OH275309   3.856   6.130   4.079 -0.4586 -0.4806  0.6931
17965TIP3    H175310   3.799   6.147   4.004 -1.3046 -0.5601  1.2929
17965TIP3    H275311   3.797   6.094   4.146  0.5199 -1.7548  0.9140
17966TIP3   OH275312   1.525   4.475  16.906  0.2820 -0.1456 -0.3526
17966TIP3    H175313   1.513   4.385  16.936  0.3944  0.6480  2.2492
17966TIP3    H275314   1.602   4.507  16.953 -0.4020  1.6632 -0.3750
17967TIP3   OH275315   0.145   2.638   4.722 -0.2631  0.7626  0.3845
17967TIP3    H175316   0.194   2.681   4.792 -0.8424  0.0022  1.2761
17967TIP3    H275317   0.186   2.552   4.713  0.7294  1.3651 -1.2156
17968TIP3   OH275318   2.269   0.801   3.948 -0.2855  0.0695 -0.3817
17968TIP3    H175319   2.250   0.762   4.034  0.7471 -0.6182 -0.4498
17968TIP3    H275320   2.361   0.779   3.932  0.1919  2.1121 -0.6650
17969TIP3   OH275321   5.582   3.166  16.930  0.5634 -0.4690 -0.2913
17969TIP3    H175322   5.563   3.089  16.875  1.1604 -0.4530 -0.5301
17969TIP3    H275323   5.500   3.214  16.933 -0.1326 -1.6639  0.7475
17970TIP3   OH275324   4.066   3.789  16.374  0.0637 -0.0900  0.3275
17970TIP3    H175325   3.979   3.816  16.403  0.2475  0.7174  0.1515
17970TIP3    H275326   4.087   3.712  16.428 -0.3794  0.2567  1.0101
17971TIP3   OH275327   3.096   6.264   1.631 -0.1508 -0.0798  0.5890
17971TIP3    H175328   3.021   6.322   1.642  0.1250  0.4983 -0.4153
17971TIP3    H275329   3.108   6.223   1.717 -2.2241 -0.9535  0.5255
17972TIP3   OH275330   4.895   0.143   0.297 -0.2098  0.0430  0.1378
17972TIP3    H175331   4.905   0.178   0.209  1.3426 -0.3615  0.1285
17972TIP3    H275332   4.806   0.167   0.323 -0.3081  1.1028 -1.1176
17973TIP3   OH275333   4.838   2.222   3.997  0.1217 -0.7041  0.4595
17973TIP3    H175334   4.824   2.127   3.991  0.7305 -0.9016  1.6855
17973TIP3    H275335   4.793   2.258   3.921 -1.1354 -1.8743  0.5984
17974TIP3   OH275336   1.859   5.032  10.782 -0.2821  0.0488  0.2873
17974TIP3    H175337   1.865   5.070  10.695  0.8687 -1.2152 -0.2231
17974TIP3    H275338   1.801   4.956  10.771 -2.9435  1.7783  1.3838
17975TIP3   OH275339   6.695   6.599   1.565  0.0789  0.0673  0.3807
17975TIP3    H175340   6.753   6.550   1.624 -0.7646  0.4773  1.6069
17975TIP3    H275341   6.723   6.690   1.574 -0.3921  0.1978  0.5720
17976TIP3   OH275342   2.276   3.695  15.139  0.1384  0.0948 -0.2527
17976TIP3    H175343   2.295   3.783  15.108  0.0525  0.4570  0.7022
17976TIP3    H275344   2.301   3.638  15.065 -1.0421  0.9808 -1.3857
17977TIP3   OH275345   4.481   0.290   5.265 -0.2199  0.1182  0.5897
17977TIP3    H175346   4.509   0.285   5.174  0.7751 -2.2817  0.9481
17977TIP3    H275347   4.385   0.288   5.260 -0.2030  1.0836 -0.4255
17978TIP3   OH275348   6.101   0.359   3.274 -0.0874  0.4166 -0.1186
17978TIP3    H175349   6.020   0.312   3.296 -0.4484  0.6341 -0.9584
17978TIP3    H275350   6.140   0.379   3.359 -0.6512 -0.1479  0.2858
17979TIP3   OH275351   3.123   4.610  15.796 -0.6966 -0.2110 -1.0194
17979TIP3    H175352   3.156   4.649  15.715 -0.4344 -0.8483 -1.2231
17979TIP3    H275353   3.142   4.675  15.863  1.4201 -0.7197 -1.0420
17980TIP3   OH275354   4.307   6.198   6.703  0.0369  0.1621 -0.2729
17980TIP3    H175355   4.328   6.287   6.676  1.0281  0.0576  0.1030
17980TIP3    H275356   4.360   6.142   6.646 -0.2791 -0.1793 -0.2406
17981TIP3   OH275357   5.214   3.712   1.307  0.2898  0.2243  0.1155
17981TIP3    H175358   5.172   3.739   1.226 -0.8334 -4.4398 -1.1272
17981TIP3    H275359   5.287   3.656   1.279  0.9688 -0.1021  2.3402
17982TIP3   OH275360   6.306   0.729   4.370  0.6098  0.0226 -0.0008
17982TIP3    H175361   6.232   0.777   4.408  1.8042  1.1479  1.0047
17982TIP3    H275362   6.349   0.793   4.312  2.4321  0.3711  1.6262
17983TIP3   OH275363   3.765   1.606  11.758 -0.2195 -0.1393  0.4283
17983TIP3    H175364   3.720   1.528  11.726  2.2891 -1.3700 -0.4133
17983TIP3    H275365   3.749   1.672  11.692 -0.1312 -0.7966 -0.2630
17984TIP3   OH275366   1.344   1.835   1.462  0.2963  0.1210 -0.1642
17984TIP3    H175367   1.371   1.919   1.498  6.4950  0.1552 -3.4508
17984TIP3    H275368   1.293   1.857   1.384 -0.7819  0.6104  0.6586
17985TIP3   OH275369   2.187   5.136   1.409  0.6275 -0.1383 -0.7409
17985TIP3    H175370   2.160   5.213   1.459  2.0967  0.1103 -0.2817
17985TIP3    H275371   2.157   5.062   1.462 -0.4679  0.1010 -1.0062
17986TIP3   OH275372   2.106   3.902   1.069 -0.4246  0.4135  0.1410
17986TIP3    H175373   2.145   3.917   0.983  1.9598 -1.6386  0.7486
17986TIP3    H275374   2.017   3.936   1.061 -0.1760  0.6069 -3.0064
17987TIP3   OH275375   4.840   5.255   4.309  0.0580 -0.3408  0.0403
17987TIP3    H175376   4.808   5.330   4.259  1.2104  0.5379  0.5552
17987TIP3    H275377   4.862   5.190   4.242 -1.1530 -0.3197 -0.4011
17988TIP3   OH275378   4.463   1.570   3.446 -0.9605  0.1757  0.4843
17988TIP3    H175379   4.537   1.525   3.486 -0.9804 -0.4941 -0.1974
17988TIP3    H275380   4.414   1.607   3.519 -0.6883 -0.5290  1.0356
17989TIP3   OH275381   1.148   5.712  12.007  0.1051  0.3669  0.1458
17989TIP3    H175382   1.098   5.789  12.036 -0.4318 -0.0845  0.4268
17989TIP3    H275383   1.177   5.735  11.918  0.1198  0.9704  0.3008
17990TIP3   OH275384   4.907   0.599  14.609 -0.3908  0.5079 -0.2595
17990TIP3    H175385   4.937   0.685  14.639 -0.6868  0.3969  0.3695
17990TIP3    H275386   4.954   0.585  14.527 -2.4431  2.5376 -1.9339
17991TIP3   OH275387   5.506   5.966  15.522  0.3290  0.2157 -0.2132
17991TIP3    H175388   5.528   5.963  15.615 -1.1354 -1.4250  0.1409
17991TIP3    H275389   5.580   5.925  15.477  1.0901  1.1192  0.2008
17992TIP3   OH275390   4.194   1.829  16.899 -0.3166 -0.4794  0.4480
17992TIP3    H175391   4.237   1.904  16.940  2.6568 -2.5511  1.5159
17992TIP3    H275392   4.121   1.808  16.958  0.0217  0.4013  1.2037
17993TIP3   OH275393   4.821   0.675  16.577 -0.6916  0.6043  0.0033
17993TIP3    H175394   4.905   0.638  16.605  0.0447  1.2220 -1.3048
17993TIP3    H275395   4.760   0.601  16.579  0.1920 -0.1487 -0.2924
17994TIP3   OH275396   4.646   5.466  15.297 -0.5170 -0.1130 -0.2811
17994TIP3    H175397   4.603   5.393  15.341 -0.6350  1.0166  1.5723
17994TIP3    H275398   4.711   5.497  15.361  0.2885  0.7210 -1.4668
17995TIP3   OH275399   0.984   1.188  15.509 -0.5851  0.3725 -0.4845
17995TIP3    H175400   0.969   1.099  15.478  1.4101  0.4967 -2.0225
17995TIP3    H275401   1.075   1.187  15.541 -1.2072  1.3622  1.4319
17996TIP3   OH275402   6.576   4.221   1.791 -0.7488  0.4336 -0.7467
17996TIP3    H175403   6.570   4.311   1.759 -1.6677  0.9271  0.7194
17996TIP3    H275404   6.628   4.227   1.872  0.0261 -0.5213 -1.1396
17997TIP3   OH275405   6.744   6.394  14.317 -0.1547 -0.0464  0.1383
17997TIP3    H175406   6.747   6.461  14.248  1.4342 -0.4070 -0.1834
17997TIP3    H275407   6.829   6.351  14.312 -0.4394 -0.8395  1.5996
17998TIP3   OH275408   2.863   0.957  12.076 -0.2188  0.0159 -0.4739
17998TIP3    H175409   2.926   0.886  12.070 -0.0867  0.1127 -0.2472
17998TIP3    H275410   2.785   0.925  12.030 -0.0073 -0.1039 -0.7474
17999TIP3   OH275411   4.553   3.925  13.162 -0.5449  0.3866  0.3215
17999TIP3    H175412   4.597   3.978  13.228 -1.0459 -0.1393  1.0986
17999TIP3    H275413   4.513   3.988  13.103 -0.6867  0.8742  0.9320
18000TIP3   OH275414   5.337   2.503  14.499 -0.4059 -0.4403  0.2188
18000TIP3    H175415   5.248   2.471  14.514 -0.2860 -1.0944 -0.3832
18000TIP3    H275416   5.379   2.500  14.585 -1.5968  1.9761  0.9668
18001TIP3   OH275417   5.162   6.658  14.170  0.4382  0.3975  0.1445
18001TIP3    H175418   5.089   6.616  14.215 -1.0808  0.3699 -2.1735
18001TIP3    H275419   5.165   6.747  14.205 -0.1983  0.1532  0.8263
18002TIP3   OH275420   4.627   6.574  13.686  0.3669  0.0299  0.6803
18002TIP3    H175421   4.601   6.483  13.672  0.3121  0.3210 -1.4709
18002TIP3    H275422   4.711   6.568  13.731  1.4645 -1.1846 -1.3750
18003TIP3   OH275423   6.389   0.135   0.236 -0.7215  0.1836  0.3531
18003TIP3    H175424   6.297   0.144   0.262 -0.6723 -0.7497  0.9074
18003TIP3    H275425   6.387   0.067   0.169 -0.5045  0.6229 -0.1054
18004TIP3   OH275426   1.387   1.987  15.293  0.2654 -0.1212  0.3663
18004TIP3    H175427   1.357   2.022  15.377 -0.9454 -0.7679  0.2292
18004TIP3    H275428   1.455   2.048  15.265 -0.9014  1.4231  0.7254
18005TIP3   OH275429   4.850   3.021  11.403  0.6238  0.5652  0.2340
18005TIP3    H175430   4.894   2.986  11.326  0.0450 -2.4373  1.1122
18005TIP3    H275431   4.785   2.954  11.425  0.4239  1.5475  2.9913
18006TIP3   OH275432   1.066   3.553   4.364 -0.5154  0.0743  0.3261
18006TIP3    H175433   1.112   3.571   4.446  0.7855  0.4340 -0.4558
18006TIP3    H275434   1.128   3.501   4.313 -1.5866 -0.7413 -0.1610
18007TIP3   OH275435   5.210   3.730  16.332 -0.1202 -0.2666  0.3595
18007TIP3    H175436   5.235   3.820  16.351 -2.0943  0.5278 -0.5078
18007TIP3    H275437   5.276   3.699  16.271  1.1755  0.1988  1.4774
18008TIP3   OH275438   0.083   1.819  12.755 -0.2714  0.7178 -0.1868
18008TIP3    H175439   0.001   1.777  12.782  0.2701  0.9429  2.0872
18008TIP3    H275440   0.134   1.748  12.715 -2.5644  1.1728 -4.4071
18009TIP3   OH275441   0.621   3.239   5.568 -0.1643 -0.3108 -0.2554
18009TIP3    H175442   0.638   3.145   5.578  0.1194 -0.3907 -1.4082
18009TIP3    H275443   0.548   3.256   5.629 -0.8307 -1.4656 -0.6925
18010TIP3   OH275444   0.734   4.013   0.965  0.3648  0.0205 -0.1275
18010TIP3    H175445   0.746   3.957   0.888  1.0283  0.6651 -0.5109
18010TIP3    H275446   0.804   3.985   1.025 -0.1052 -0.4295  0.2189
18011TIP3   OH275447   1.957   6.609  15.555 -0.1696 -0.4841 -0.2529
18011TIP3    H175448   1.946   6.547  15.628  0.9076 -2.9993 -2.0979
18011TIP3    H275449   1.869   6.645  15.541 -0.8832 -1.7321  0.7641
18012TIP3   OH275450   5.631   4.592  16.629  0.0457  0.2654 -0.4188
18012TIP3    H175451   5.538   4.584  16.649  0.1155  0.1498 -0.1385
18012TIP3    H275452   5.637   4.580  16.534  0.1317 -2.9519 -0.0971
18013TIP3   OH275453   1.756   1.278   1.355  0.5281  0.2418 -0.1431
18013TIP3    H175454   1.789   1.276   1.445  0.6309  2.5168 -0.0532
18013TIP3    H275455   1.832   1.305   1.303 -0.3144  2.4618 -0.3563
18014TIP3   OH275456   6.366   1.028   1.921 -0.4997 -0.2346 -0.1973
18014TIP3    H175457   6.425   1.041   1.846 -1.4459 -0.6278 -1.0357
18014TIP3    H275458   6.424   1.028   1.997  0.5265 -0.1347 -0.9507
18015TIP3   OH275459   3.660   6.244  11.367 -0.3585  0.3419 -0.0118
18015TIP3    H175460   3.592   6.188  11.329  0.8365 -0.6899 -0.7374
18015TIP3    H275461   3.667   6.215  11.458  1.4220 -2.0109 -0.7885
18016TIP3   OH275462   6.096   5.021  14.001 -0.1251 -0.1634  0.2327
18016TIP3    H175463   6.081   5.108  13.964 -0.1583  1.0656  2.8968
18016TIP3    H275464   6.010   4.978  13.997 -0.2056  0.0584 -0.7111
18017TIP3   OH275465   5.469   3.202   4.353  0.0186 -0.1309  0.2400
18017TIP3    H175466   5.417   3.157   4.286  0.2628  1.2840 -0.9672
18017TIP3    H275467   5.426   3.182   4.435 -0.3608 -1.8509 -0.3409
18018TIP3   OH275468   4.925   1.053  16.409  0.0351 -0.5567  0.0836
18018TIP3    H175469   5.018   1.073  16.405  0.0542 -0.4506  0.9534
18018TIP3    H275470   4.882   1.139  16.412 -0.0584 -0.6107  0.3068
18019TIP3   OH275471   5.264   1.442  16.669 -0.2308 -0.4414 -0.0140
18019TIP3    H175472   5.356   1.463  16.652 -0.8991  1.5316 -1.6036
18019TIP3    H275473   5.215   1.512  16.626 -2.5133 -1.6577  0.4396
18020TIP3   OH275474   0.501   2.033  11.730 -0.1081 -0.6731  0.1971
18020TIP3    H175475   0.473   1.965  11.668 -3.5845 -0.9919  1.8652
18020TIP3    H275476   0.466   2.114  11.693 -1.2961 -0.7236  1.1494
18021TIP3   OH275477   3.952   1.857   1.305  0.5429  0.3765 -0.2999
18021TIP3    H175478   3.953   1.773   1.351  2.0316 -0.1321 -1.1882
18021TIP3    H275479   3.962   1.922   1.375  1.8277 -0.3331  0.2304
18022TIP3   OH275480   2.680   0.757  15.193  0.2765  0.0065  0.2378
18022TIP3    H175481   2.668   0.846  15.225  1.2758  0.8142 -1.4773
18022TIP3    H275482   2.592   0.721  15.187 -0.8085  2.7245 -3.8544
18023TIP3   OH275483   6.219   1.506   2.699  0.4447 -0.1233 -0.2673
18023TIP3    H175484   6.208   1.544   2.786 -0.0972 -1.9340  0.5098
18023TIP3    H275485   6.284   1.437   2.711  0.5351 -0.2452 -1.3527
18024TIP3   OH275486   4.439   5.395   1.981 -0.2905  0.3504  0.1960
18024TIP3    H175487   4.358   5.421   1.937  0.2170  1.8976  0.0946
18024TIP3    H275488   4.420   5.310   2.019 -1.0369 -0.6973 -2.2945
18025TIP3   OH275489   4.248   4.971   6.425  0.3120  0.1100 -0.3117
18025TIP3    H175490   4.269   4.896   6.480  1.3066  1.1351  0.7732
18025TIP3    H275491   4.159   4.954   6.393 -0.6478 -0.1542  2.2911
18026TIP3   OH275492   1.150   1.771  14.232  0.1398 -0.4978 -0.5594
18026TIP3    H175493   1.241   1.772  14.261 -0.0623  1.0130  0.0981
18026TIP3    H275494   1.134   1.859  14.200 -1.0056 -0.8451 -0.9803
18027TIP3   OH275495   4.747   3.223  13.558  0.0556 -0.4152 -0.7149
18027TIP3    H175496   4.699   3.287  13.505 -0.4004 -0.6854 -0.6348
18027TIP3    H275497   4.681   3.159  13.584  0.2525 -0.2167  0.2916
18028TIP3   OH275498   5.043   5.710  16.874  0.1494 -0.4295  1.2240
18028TIP3    H175499   5.076   5.679  16.958  1.0045 -0.5350  0.8711
18028TIP3    H275500   5.081   5.797  16.864  1.0901 -0.9019  0.4103
18029TIP3   OH275501   3.373   0.036  16.690 -0.2364  0.2318 -0.1189
18029TIP3    H175502   3.434   0.000  16.626  0.8652  0.0332  1.0024
18029TIP3    H275503   3.370  -0.030  16.759  0.3339  1.4204  1.0754
18030TIP3   OH275504   5.374   4.610  16.715 -0.2089  0.3605  0.1609
18030TIP3    H175505   5.344   4.580  16.801  3.2771 -0.9354  1.0864
18030TIP3    H275506   5.379   4.705  16.723  1.2928  0.1905  1.9123
18031TIP3   OH275507   3.637   6.180  11.844 -0.2668  0.0803 -0.0216
18031TIP3    H175508   3.719   6.134  11.828 -1.6238 -2.1646 -1.0943
18031TIP3    H275509   3.576   6.143  11.780 -3.1380 -1.2532  3.1525
18032TIP3   OH275510   5.779   6.297   2.054  0.2976  0.1042  0.4112
18032TIP3    H175511   5.866   6.261   2.069  0.3159 -0.2572 -0.5195
18032TIP3    H275512   5.795   6.381   2.010  0.1980  0.4345  0.9974
18033TIP3   OH275513   1.409   4.749   0.494 -0.0288 -0.0887 -0.0915
18033TIP3    H175514   1.317   4.758   0.469 -0.3629 -1.5347  0.5105
18033TIP3    H275515   1.406   4.703   0.578  1.2605 -0.4606 -0.2316
18034TIP3   OH275516   0.211   5.595  17.200 -0.0638 -0.1107 -0.2656
18034TIP3    H175517   0.284   5.536  17.221 -0.2568 -0.1951  0.1864
18034TIP3    H275518   0.161   5.548  17.133  0.4203  0.0453 -0.7391
18035TIP3   OH275519   5.617   2.998   3.762 -0.0843 -0.0738  0.3652
18035TIP3    H175520   5.671   2.981   3.839 -0.2604 -2.3369  0.0808
18035TIP3    H275521   5.528   3.002   3.796 -0.1607 -1.0592  0.3258
18036TIP3   OH275522   5.265   3.639   0.255 -0.2254  0.5257  0.0370
18036TIP3    H175523   5.312   3.668   0.177  0.8283  2.0816  1.1878
18036TIP3    H275524   5.178   3.678   0.246 -0.1482  0.5972 -0.4261
18037TIP3   OH275525   6.514   3.465   4.855 -0.2171  0.0854  0.3329
18037TIP3    H175526   6.602   3.491   4.882 -0.1354 -0.8195  0.9940
18037TIP3    H275527   6.456   3.513   4.914 -0.0993 -0.5507  0.9798
18038TIP3   OH275528   0.760   0.274  10.755 -0.2362  0.2083  0.4299
18038TIP3    H175529   0.839   0.221  10.767 -1.4500 -1.3536  1.9877
18038TIP3    H275530   0.702   0.219  10.703 -0.9746  0.6025  0.8242
18039TIP3   OH275531   5.397   4.101   4.530  0.0431  0.3234 -0.0753
18039TIP3    H175532   5.370   4.022   4.578 -0.3912  0.1377 -0.6058
18039TIP3    H275533   5.485   4.081   4.500 -0.4933 -0.4690 -1.2226
18040TIP3   OH275534   2.266   4.320  11.814  0.0588 -0.0638  0.1314
18040TIP3    H175535   2.250   4.395  11.756  0.4806  0.3466  0.5346
18040TIP3    H275536   2.343   4.346  11.865  0.2374 -0.7952  0.2427
18041TIP3   OH275537   2.035   4.413  13.849  0.3657  0.1246 -0.0972
18041TIP3    H175538   2.087   4.466  13.910  2.1401 -1.5622 -0.0465
18041TIP3    H275539   2.011   4.475  13.780 -0.0612  1.6360  1.3217
18042TIP3   OH275540   4.088   0.564  12.047  0.9775  0.3136 -0.5955
18042TIP3    H175541   4.070   0.472  12.027  0.9630 -0.3691  2.0722
18042TIP3    H275542   4.042   0.614  11.980 -0.0160 -1.6168 -1.4073
18043TIP3   OH275543   1.002   3.606   2.037  0.1940  0.9406  0.2126
18043TIP3    H175544   1.053   3.625   1.958 -0.9421 -0.0255 -0.7928
18043TIP3    H275545   1.046   3.531   2.076  0.3848  1.0200  0.1535
18044TIP3   OH275546   6.135   5.959  11.767  0.0400  0.6862 -0.5245
18044TIP3    H175547   6.097   5.871  11.760  0.5141  0.4165  0.1802
18044TIP3    H275548   6.065   6.012  11.805  0.5224  0.0495  1.3815
18045TIP3   OH275549   5.270   4.445  15.131 -0.4329  0.7713 -0.1173
18045TIP3    H175550   5.323   4.503  15.186 -0.9035  0.5348  0.6076
18045TIP3    H275551   5.296   4.357  15.156  1.2981  0.5998 -2.2174
18046TIP3   OH275552   0.303   3.172   5.993 -0.4792  0.1227  0.2634
18046TIP3    H175553   0.307   3.261   6.028 -0.0430 -0.4820  1.8496
18046TIP3    H275554   0.330   3.116   6.067 -0.0741 -1.2735 -0.8983
18047TIP3   OH275555   6.181   5.782   2.192 -0.2269 -0.1308 -0.0820
18047TIP3    H175556   6.275   5.803   2.191 -0.0828 -0.5324 -2.7433
18047TIP3    H275557   6.172   5.713   2.126 -2.7611  1.7494 -1.8559
18048TIP3   OH275558   6.283   2.653  16.690 -0.1069  0.0061  0.7053
18048TIP3    H175559   6.278   2.694  16.603  0.8885 -2.1590 -0.4822
18048TIP3    H275560   6.341   2.710  16.740 -1.2889  1.6981  0.2314
18049TIP3   OH275561   6.490   2.448   2.386  0.0156  0.1734 -0.0016
18049TIP3    H175562   6.440   2.371   2.416 -0.9750  0.3439 -1.1413
18049TIP3    H275563   6.498   2.503   2.464  2.9693 -2.1676  1.5423
18050TIP3   OH275564   6.500   2.808   5.803 -0.1141 -0.7105 -0.0849
18050TIP3    H175565   6.412   2.844   5.805  0.3372  0.5326 -0.9747
18050TIP3    H275566   6.554   2.873   5.848  0.5088 -0.9506 -0.4642
18051TIP3   OH275567   2.200   6.013  16.570  0.2079 -0.0080  0.0148
18051TIP3    H175568   2.227   6.042  16.658  0.3282 -0.6416  0.1914
18051TIP3    H275569   2.283   5.994  16.525  0.2184  1.5648 -0.6917
18052TIP3   OH275570   3.204   4.410   1.606  0.8260 -0.7080 -0.2399
18052TIP3    H175571   3.131   4.427   1.546 -0.3740  2.7770  1.9314
18052TIP3    H275572   3.168   4.349   1.671  0.2599 -0.0438  0.0776
18053TIP3   OH275573   4.951   6.175  12.064 -0.4339 -0.3542 -0.2758
18053TIP3    H175574   5.022   6.138  12.012 -1.0573 -0.6344 -0.9424
18053TIP3    H275575   4.871   6.147  12.019 -1.0022 -0.9678  1.0530
18054TIP3   OH275576   6.780   3.351  13.506  0.5250  0.5002  0.3491
18054TIP3    H175577   6.790   3.443  13.483 -0.9793  0.4665 -0.6478
18054TIP3    H275578   6.818   3.304  13.432  0.2247  0.3352  0.2978
18055TIP3   OH275579   5.927   0.989   1.739 -0.3985 -0.3263 -0.8538
18055TIP3    H175580   5.923   1.075   1.780  1.2672 -0.7657  0.3174
18055TIP3    H275581   5.845   0.946   1.765 -0.5049  0.3182 -0.0986
18056TIP3   OH275582   1.855   0.249   0.748 -0.0036 -0.4931 -0.0693
18056TIP3    H175583   1.948   0.228   0.743  0.6498  0.9267  3.2940
18056TIP3    H275584   1.832   0.233   0.839 -3.2601 -1.3535 -0.9221
18057TIP3   OH275585   1.329   2.440  12.972 -0.0760  0.2080 -0.2646
18057TIP3    H175586   1.335   2.516  13.030  0.6918 -0.3647  0.4292
18057TIP3    H275587   1.271   2.380  13.019 -1.2353  0.6165 -1.1247
18058TIP3   OH275588   2.654   3.925  16.566  0.8747 -0.0432  0.5065
18058TIP3    H175589   2.601   3.857  16.608  0.3927  0.0980  0.1305
18058TIP3    H275590   2.739   3.885  16.554  0.2452 -1.0292 -0.8725
18059TIP3   OH275591   3.581   6.105   6.405 -0.0286 -0.9502  0.3622
18059TIP3    H175592   3.645   6.116   6.475  1.3140 -0.3511 -0.9269
18059TIP3    H275593   3.629   6.063   6.334 -0.9378 -0.0942 -0.7966
18060TIP3   OH275594   1.120   2.356  13.858 -0.1985  0.6972 -0.0424
18060TIP3    H175595   1.073   2.316  13.785  0.6411 -0.1698 -0.1199
18060TIP3    H275596   1.058   2.353  13.931 -0.7097  0.7331 -0.4658
18061TIP3   OH275597   2.681   3.368  12.116  0.3475  0.3312  0.4121
18061TIP3    H175598   2.743   3.441  12.122 -0.6973  1.2049  0.9847
18061TIP3    H275599   2.639   3.365  12.201 -0.7940  0.1325 -0.1402
18062TIP3   OH275600   3.342   1.135   3.314  0.2612 -0.3949  0.6011
18062TIP3    H175601   3.360   1.046   3.346 -0.7977 -0.3155  1.4951
18062TIP3    H275602   3.250   1.133   3.288  0.3899  0.2886  0.0596
18063TIP3   OH275603   3.076   1.563  12.374  0.8810 -0.4649 -0.2584
18063TIP3    H175604   3.012   1.582  12.305 -1.7209 -0.8844  1.8880
18063TIP3    H275605   3.129   1.643  12.380  1.1566 -0.3863 -2.5872
18064TIP3   OH275606   3.933   4.066   2.457  0.2915 -0.4767 -0.4831
18064TIP3    H175607   3.900   4.155   2.444  1.4427  0.0181 -0.1221
18064TIP3    H275608   3.863   4.009   2.425  0.0827  0.5846 -2.0042
18065TIP3   OH275609   3.880   6.037  11.863 -0.2986 -0.9402  0.4520
18065TIP3    H175610   3.950   6.057  11.926 -0.9563 -0.2601  0.9833
18065TIP3    H275611   3.926   6.016  11.782  0.5252 -0.1113  0.6848
18066TIP3   OH275612   5.910   0.437   3.956  0.2584 -0.2348 -0.4313
18066TIP3    H175613   5.927   0.494   4.031 -1.4014 -0.9958  0.5749
18066TIP3    H275614   5.907   0.349   3.993  0.9831 -0.8051 -1.6705
18067TIP3   OH275615   0.632   2.627   4.344 -0.5553 -0.2199 -0.2268
18067TIP3    H175616   0.659   2.716   4.366  2.0027 -1.4717  2.3978
18067TIP3    H275617   0.687   2.604   4.269 -2.0415  0.6618 -1.6816
18068TIP3   OH275618   3.683   4.685  12.907 -1.0473 -0.4273  0.2416
18068TIP3    H175619   3.649   4.732  12.831 -0.4120 -1.0448 -0.4320
18068TIP3    H275620   3.777   4.703  12.905 -1.1574  0.4128  1.4874
18069TIP3   OH275621   4.828   2.688  14.301 -0.5253 -0.4611 -0.6984
18069TIP3    H175622   4.795   2.640  14.225 -1.9960  0.6144 -0.7700
18069TIP3    H275623   4.762   2.676  14.368 -0.3264  0.4620 -0.3241
18070TIP3   OH275624   4.230   2.341  15.183 -0.1755  0.3483  0.6502
18070TIP3    H175625   4.252   2.270  15.123  1.5133  2.2152 -1.0959
18070TIP3    H275626   4.314   2.366  15.222 -0.5823  1.9285  0.5635
18071TIP3   OH275627   2.885   2.073   1.416  0.3822  0.4221 -0.0669
18071TIP3    H175628   2.916   2.043   1.330  0.0305  1.7367 -0.6714
18071TIP3    H275629   2.791   2.058   1.414  0.0286  2.4575 -0.7938
18072TIP3   OH275630   3.678   6.268   5.280 -0.3099  0.2752  0.1987
18072TIP3    H175631   3.746   6.208   5.249 -1.3450  0.0378 -1.8520
18072TIP3    H275632   3.716   6.355   5.270  0.2809  0.0878  0.7211
18073TIP3   OH275633   0.406   4.783  15.405  0.4351 -0.0819 -0.0213
18073TIP3    H175634   0.450   4.698  15.397  2.0297  0.4230  2.2577
18073TIP3    H275635   0.314   4.761  15.417  0.6636 -1.4292 -0.5467
18074TIP3   OH275636   5.702   6.427   3.050 -0.1535  0.3290 -0.1571
18074TIP3    H175637   5.740   6.502   3.004 -1.4196  1.2559  0.2597
18074TIP3    H275638   5.729   6.439   3.141  2.4950 -1.5944 -0.5645
18075TIP3   OH275639   4.927   5.854  13.551 -0.3562  0.2231 -0.1326
18075TIP3    H175640   4.924   5.767  13.510 -1.4409  0.4817 -0.6176
18075TIP3    H275641   4.995   5.901  13.502  0.4017 -0.4145  0.2862
18076TIP3   OH275642   4.851   3.899   1.003  0.1757 -0.0223  0.1432
18076TIP3    H175643   4.841   3.993   1.016  0.5757  0.0782 -0.2628
18076TIP3    H275644   4.861   3.889   0.908 -1.7345 -0.6388 -0.0398
18077TIP3   OH275645   4.662   4.240   1.580 -0.9195 -0.1367  0.1570
18077TIP3    H175646   4.618   4.258   1.664  0.3133  3.1302  0.2671
18077TIP3    H275647   4.755   4.249   1.601 -0.4680 -1.6553 -1.1195
18078TIP3   OH275648   5.954   5.573   4.734  0.1504  0.0216  0.3586
18078TIP3    H175649   5.953   5.600   4.642 -1.6590  0.7433  0.5553
18078TIP3    H275650   5.901   5.638   4.779 -0.6212 -1.4069  1.5990
18079TIP3   OH275651   0.705   3.456   3.415  0.2009  0.4533  0.4879
18079TIP3    H175652   0.674   3.537   3.375  0.6502  0.5780  0.3878
18079TIP3    H275653   0.778   3.483   3.470 -0.3273  0.2703  1.2999
18080TIP3   OH275654   6.458   4.457  12.926  0.2560  0.2268 -0.1378
18080TIP3    H175655   6.545   4.430  12.953  0.7288  1.2478 -0.5770
18080TIP3    H275656   6.433   4.523  12.990 -0.0044  0.2644 -0.2780
18081TIP3   OH275657   5.789   0.977   3.725 -0.5061 -0.2233 -0.2314
18081TIP3    H175658   5.729   1.045   3.755  0.6731  0.8683 -0.2789
18081TIP3    H275659   5.872   0.996   3.769  0.6045 -0.0124 -2.2968
18082TIP3   OH275660   2.262   5.987  11.399 -0.3448  0.7798  0.1172
18082TIP3    H175661   2.198   6.054  11.373  0.2713 -0.1330 -4.4886
18082TIP3    H275662   2.346   6.033  11.401 -0.5865  1.2835  3.0306
18083TIP3   OH275663   4.555   1.511  11.647  0.0688  0.6005 -0.1755
18083TIP3    H175664   4.556   1.527  11.741  0.5045  2.4666 -0.4579
18083TIP3    H275665   4.608   1.432  11.635 -0.5312 -0.0305  1.1818
18084TIP3   OH275666   3.563   5.747   3.415 -0.2277 -0.6494 -0.4376
18084TIP3    H175667   3.555   5.725   3.508  3.3331 -0.8219 -0.0401
18084TIP3    H275668   3.605   5.833   3.414  0.5009 -0.9853 -1.8780
18085TIP3   OH275669   6.526   2.938  13.679 -0.0605  0.2698 -0.3346
18085TIP3    H175670   6.545   3.022  13.638  2.1853  0.0199  0.0502
18085TIP3    H275671   6.542   2.953  13.772  1.6831 -0.8456 -0.3983
18086TIP3   OH275672   0.398   3.274  10.800  0.8742 -0.0063 -0.0448
18086TIP3    H175673   0.427   3.208  10.737 -0.1938 -1.0525  0.5196
18086TIP3    H275674   0.449   3.256  10.879  0.1713 -0.5677  0.2992
18087TIP3   OH275675   2.294   0.868   5.632 -0.3905 -0.4058 -0.0760
18087TIP3    H175676   2.252   0.901   5.711 -0.3217 -0.4037 -0.0401
18087TIP3    H275677   2.364   0.811   5.663 -0.1320 -0.1196 -0.1288
18088TIP3   OH275678   1.648   5.392   4.684 -0.1049 -0.0817 -0.3971
18088TIP3    H175679   1.731   5.365   4.724  0.2048  0.1660 -0.8576
18088TIP3    H275680   1.669   5.403   4.591 -0.6752 -0.0895 -0.5298
18089TIP3   OH275681   6.749   1.241  13.187  0.4757  0.7873 -0.0717
18089TIP3    H175682   6.689   1.262  13.259 -1.4271  1.9704 -1.8677
18089TIP3    H275683   6.759   1.146  13.192 -3.3112  0.1702 -0.8268
18090TIP3   OH275684   6.468   1.480   5.469 -0.3146 -0.1214  0.7545
18090TIP3    H175685   6.435   1.568   5.453  0.9780  0.5995  1.9016
18090TIP3    H275686   6.424   1.452   5.550  0.7441  0.2820  1.4955
18091TIP3   OH275687   0.610   2.623  14.661 -0.2730 -0.7827 -0.1009
18091TIP3    H175688   0.523   2.613  14.623 -0.1519 -1.7962 -0.1407
18091TIP3    H275689   0.666   2.648  14.588 -0.3938 -0.8524 -0.2168
18092TIP3   OH275690   1.839   2.863  13.397  0.7415 -0.0995  0.8781
18092TIP3    H175691   1.893   2.793  13.433  0.2505 -0.0914  1.6425
18092TIP3    H275692   1.866   2.869  13.305  1.6950 -0.4178  1.1259
18093TIP3   OH275693   5.974   3.224   3.058  0.0308  0.0370 -0.5338
18093TIP3    H175694   5.996   3.253   3.147 -2.2229  1.4174 -0.3324
18093TIP3    H275695   5.910   3.154   3.071 -1.6315  1.3856 -0.9680
18094TIP3   OH275696   0.166   5.148  10.976  0.7863 -0.0014 -0.0699
18094TIP3    H175697   0.192   5.100  11.054 -1.6227  1.5895  1.8821
18094TIP3    H275698   0.073   5.130  10.966  0.2831  2.4148 -0.5461
18095TIP3   OH275699   4.724   3.538  12.574  0.0961  0.4248 -0.3074
18095TIP3    H175700   4.659   3.541  12.504  0.3276 -0.6062 -0.5967
18095TIP3    H275701   4.701   3.609  12.633 -1.8615 -0.4879  0.1006
18096TIP3   OH275702   6.336   0.300  16.801 -0.0396  0.1827  0.3145
18096TIP3    H175703   6.406   0.355  16.833  0.4165  0.0943 -0.4925
18096TIP3    H275704   6.361   0.278  16.711  0.5677 -2.5834  1.0591
18097TIP3   OH275705   4.634   1.317  15.356 -0.2072  0.2383 -0.2391
18097TIP3    H175706   4.603   1.235  15.316  2.0292 -0.8070 -0.0173
18097TIP3    H275707   4.624   1.383  15.288  0.0711 -0.7377 -1.2579
18098TIP3   OH275708   5.361   3.669   2.850 -0.2702 -0.0158 -0.5365
18098TIP3    H175709   5.415   3.606   2.897 -1.1072  0.3449  0.9732
18098TIP3    H275710   5.419   3.744   2.835  0.4521 -0.7486 -1.4927
18099TIP3   OH275711   5.078   1.637   3.849 -0.6313  0.1602 -0.0205
18099TIP3    H175712   5.147   1.698   3.823 -2.1773  1.7746 -0.5978
18099TIP3    H275713   5.046   1.671   3.933 -0.4436 -0.8196  0.4590
18100TIP3   OH275714   3.353   5.446   4.443 -0.0772  0.3787 -0.0264
18100TIP3    H175715   3.428   5.468   4.498  0.8529  1.9534 -1.7719
18100TIP3    H275716   3.279   5.492   4.482 -0.2717 -1.4272  1.8848
18101TIP3   OH275717   5.814   6.046   5.806 -0.0157 -0.0528  0.1692
18101TIP3    H175718   5.743   5.996   5.846  0.1361 -0.4000  0.0019
18101TIP3    H275719   5.862   6.083   5.880 -0.5656  0.4619  0.2825
18102TIP3   OH275720   3.167   2.378   1.500 -0.4484 -0.0064  0.3355
18102TIP3    H175721   3.128   2.425   1.427 -1.5625  0.0190  0.9237
18102TIP3    H275722   3.261   2.381   1.483 -0.7134 -0.4023 -1.3128
18103TIP3   OH275723   5.113   2.386  13.172 -0.3016  0.1005 -0.3559
18103TIP3    H175724   5.106   2.473  13.211  0.6716 -0.6376  1.6072
18103TIP3    H275725   5.204   2.361  13.185 -0.8300 -1.6727  0.2035
18104TIP3   OH275726   2.167   1.851   3.244  0.2471 -0.0344  0.3908
18104TIP3    H175727   2.118   1.933   3.248 -0.5257 -0.4352 -0.4323
18104TIP3    H275728   2.213   1.855   3.160 -1.4192 -1.2992 -0.6424
18105TIP3   OH275729   6.120   0.348   2.780 -0.2990  0.3855  0.5657
18105TIP3    H175730   6.109   0.419   2.843 -0.0073 -0.3094  1.4101
18105TIP3    H275731   6.031   0.324   2.755 -0.3961  1.2874 -0.0207
18106TIP3   OH275732   2.953   1.782  16.480 -1.0096  0.6491  0.1707
18106TIP3    H175733   3.018   1.848  16.506  0.0588 -0.5127  0.5720
18106TIP3    H275734   2.959   1.715  16.548 -1.0739 -0.5113 -0.9277
18107TIP3   OH275735   1.533   4.097   0.717  0.1971 -0.2277  0.2782
18107TIP3    H175736   1.552   4.004   0.720  2.0835  0.1385  0.6210
18107TIP3    H275737   1.542   4.120   0.624  1.4703 -0.0798  0.4192
18108TIP3   OH275738   3.272   5.417   2.404 -0.1428 -0.1848 -0.2142
18108TIP3    H175739   3.290   5.330   2.367 -2.0066 -0.3386 -0.8864
18108TIP3    H275740   3.336   5.475   2.363 -0.0565 -0.9331 -1.1601
18109TIP3   OH275741   3.068   6.153   3.415  0.4055  0.0724  0.2466
18109TIP3    H175742   3.097   6.064   3.432  0.8562 -0.2259 -1.8253
18109TIP3    H275743   2.991   6.144   3.359  0.2342  0.9850  0.3076
18110TIP3   OH275744   1.482   2.231  13.659 -0.5125  0.0356  0.0237
18110TIP3    H175745   1.553   2.211  13.599 -0.7786 -0.8838 -0.0085
18110TIP3    H275746   1.417   2.277  13.606  0.6716  2.2436  0.3927
18111TIP3   OH275747   0.689   5.045  16.356 -0.5174  0.0153  0.0831
18111TIP3    H175748   0.757   5.056  16.424 -0.9942  0.0372  0.5629
18111TIP3    H275749   0.730   5.078  16.276  0.7373 -1.7555 -0.0647
18112TIP3   OH275750   6.375   5.502   0.307 -0.2726 -0.2883  0.1835
18112TIP3    H175751   6.414   5.513   0.394  0.4063  2.4361 -0.3632
18112TIP3    H275752   6.329   5.585   0.291 -0.0567 -0.5615 -2.2041
18113TIP3   OH275753   5.160   6.742  12.059 -0.7048 -0.2115 -0.4485
18113TIP3    H175754   5.236   6.785  12.098  0.5856 -1.3794 -1.5705
18113TIP3    H275755   5.088   6.803  12.074  0.6839  1.4887 -0.3677
18114TIP3   OH275756   2.975   0.734  11.987 -0.2335 -0.0378 -0.2039
18114TIP3    H175757   2.909   0.676  11.949  1.3316 -2.0349 -0.0828
18114TIP3    H275758   3.058   0.704  11.948  0.5243  3.3026 -1.4646
18115TIP3   OH275759   5.569   5.912  11.223  0.2177  0.3502 -0.3051
18115TIP3    H175760   5.506   5.984  11.217 -0.3434  0.1560  1.9936
18115TIP3    H275761   5.515   5.833  11.215  0.6296  0.1716 -1.4039
18116TIP3   OH275762   2.097   1.504  11.931 -0.1098 -0.4430 -0.2270
18116TIP3    H175763   2.135   1.418  11.915 -1.8909 -1.3241  0.1075
18116TIP3    H275764   2.104   1.549  11.846 -1.3740 -1.8335 -1.1273
18117TIP3   OH275765   2.822   6.723   5.431 -0.3929 -0.3747 -0.6598
18117TIP3    H175766   2.913   6.739   5.458 -0.5774  0.8190 -0.6686
18117TIP3    H275767   2.781   6.810   5.436 -1.5374 -0.9051 -0.6389
18118TIP3   OH275768   6.575   3.654   0.657 -0.4575  0.7983 -0.1215
18118TIP3    H175769   6.646   3.686   0.601  0.5819 -0.1021  0.6570
18118TIP3    H275770   6.533   3.586   0.605  0.9701 -0.5520  0.4235
18119TIP3   OH275771   5.836   0.011   2.950  0.0924 -0.2230  0.0503
18119TIP3    H175772   5.911   0.002   3.010 -0.1648  1.0856  0.6038
18119TIP3    H275773   5.775   0.067   2.997 -0.2804  0.5332 -1.2889
18120TIP3   OH275774   1.941   0.403   0.403  0.0093 -0.1041  0.5004
18120TIP3    H175775   1.867   0.349   0.429 -0.2786 -0.3880 -0.8508
18120TIP3    H275776   1.944   0.472   0.469 -1.0702 -0.4452  0.9288
18121TIP3   OH275777   6.069   3.095   4.483 -0.1826 -0.7677 -0.3294
18121TIP3    H175778   6.162   3.105   4.463 -0.4601  3.3128 -0.5232
18121TIP3    H275779   6.058   3.003   4.504  4.1373 -1.2080  0.9064
18122TIP3   OH275780   5.736   3.034   4.524 -0.3440 -0.5845  0.2973
18122TIP3    H175781   5.820   3.077   4.513 -0.7162  0.0610 -0.1029
18122TIP3    H275782   5.672   3.105   4.526 -1.0142 -1.1259 -0.8201
18123TIP3   OH275783   0.102   2.842  11.567  0.4117 -0.8817  0.1749
18123TIP3    H175784   0.173   2.853  11.631  1.4936 -0.4553 -1.0486
18123TIP3    H275785   0.028   2.888  11.605  1.3433  0.2700  0.6581
18124TIP3   OH275786   4.339   2.954   4.934  0.3885 -0.0823  0.0277
18124TIP3    H175787   4.431   2.983   4.939  0.1944  0.3988  1.1950
18124TIP3    H275788   4.341   2.865   4.969  0.5455 -0.4279 -0.8410
18125TIP3   OH275789   1.589   0.339  12.027 -0.6440 -0.1713  0.2064
18125TIP3    H175790   1.589   0.294  11.942 -1.4460  0.4060 -0.1110
18125TIP3    H275791   1.613   0.429  12.005  1.2071 -0.4573  0.8617
18126TIP3   OH275792   4.044   0.116   4.123  0.9334  0.0752 -0.2757
18126TIP3    H175793   4.008   0.087   4.039  0.9934 -0.7879 -0.0091
18126TIP3    H275794   3.971   0.112   4.183  0.9533  0.4487 -0.2229
18127TIP3   OH275795   1.679   2.254  13.477  0.2304  0.5409  0.5229
18127TIP3    H175796   1.700   2.309  13.402  1.0084  0.3927  0.6181
18127TIP3    H275797   1.755   2.195  13.485 -1.4624 -2.0024 -0.8845
18128TIP3   OH275798   6.390   4.133  12.140 -0.0793 -0.1387 -0.0718
18128TIP3    H175799   6.382   4.183  12.058 -1.1963  1.1186  0.7520
18128TIP3    H275800   6.429   4.195  12.201  0.7741 -1.0837  0.3482
18129TIP3   OH275801   2.542   0.503   0.145 -0.2169  0.3368 -0.1886
18129TIP3    H175802   2.479   0.554   0.196  1.4794  2.3454  0.0245
18129TIP3    H275803   2.505   0.501   0.057  0.0019  2.6336 -0.3791
18130TIP3   OH275804   4.271   6.566   5.133  0.4041  0.0035  0.3027
18130TIP3    H175805   4.276   6.618   5.213  3.7124 -0.9615  0.8875
18130TIP3    H275806   4.341   6.601   5.077  0.3405 -1.4661 -0.7519
18131TIP3   OH275807   0.708   4.451  14.354 -0.4788 -0.4549 -0.4281
18131TIP3    H175808   0.659   4.532  14.342 -0.9828 -0.8688 -1.2308
18131TIP3    H275809   0.748   4.459  14.440 -1.2873  0.2415 -0.1154
18132TIP3   OH275810   6.169   6.518   5.262  0.0293 -0.5584 -0.3516
18132TIP3    H175811   6.078   6.525   5.292 -0.7039 -0.9166 -2.3603
18132TIP3    H275812   6.188   6.424   5.266 -0.3589 -0.7113 -1.7212
18133TIP3   OH275813   3.420   2.239  15.959  0.4733 -0.1022  0.2116
18133TIP3    H175814   3.456   2.155  15.988  1.3167  0.4423  0.7553
18133TIP3    H275815   3.366   2.268  16.032 -0.9282 -0.7954 -0.5031
18134TIP3   OH275816   0.877   4.528  11.163  0.8013 -0.5039 -0.6592
18134TIP3    H175817   0.930   4.448  11.155 -1.6138 -2.2771  0.0488
18134TIP3    H275818   0.843   4.542  11.075 -0.4568 -1.5342 -0.3616
18135TIP3   OH275819   0.215   2.359   1.659  0.0648  0.1651 -0.1771
18135TIP3    H175820   0.148   2.406   1.708 -1.5881 -0.1632 -1.9936
18135TIP3    H275821   0.233   2.415   1.583  0.6122 -0.5398 -0.5815
18136TIP3   OH275822   4.466   1.561  16.896 -0.7174 -0.3215 -0.0734
18136TIP3    H175823   4.502   1.649  16.905 -0.0489 -0.7504  1.7521
18136TIP3    H275824   4.506   1.511  16.967 -1.8676 -1.8490 -0.4516
18137TIP3   OH275825   4.228   1.580   5.639  0.3450 -0.1675 -0.1710
18137TIP3    H175826   4.271   1.536   5.712  2.4310 -1.2438 -1.9155
18137TIP3    H275827   4.218   1.671   5.668  1.5875 -0.4407  1.2511
18138TIP3   OH275828   0.485   3.854   0.500  0.0914 -0.3515 -0.1354
18138TIP3    H175829   0.431   3.928   0.530 -3.1959 -1.7261 -2.0373
18138TIP3    H275830   0.432   3.813   0.432  3.5496 -2.1251 -2.0219
18139TIP3   OH275831   4.050   0.466  16.326 -0.5070  0.6216 -0.2405
18139TIP3    H175832   4.113   0.531  16.354  0.5167 -0.7309  0.7611
18139TIP3    H275833   4.024   0.421  16.407  0.0591 -1.2513 -1.0346
18140TIP3   OH275834   6.574   2.178   0.747 -0.4967  0.0093 -0.0370
18140TIP3    H175835   6.517   2.108   0.717 -0.4150 -0.0377 -0.0835
18140TIP3    H275836   6.654   2.168   0.695  0.0355 -0.6884  0.8783
18141TIP3   OH275837   3.465   5.455   5.417  0.8896  0.0934 -0.5595
18141TIP3    H175838   3.392   5.457   5.354  0.6622 -1.6176 -0.4095
18141TIP3    H275839   3.486   5.547   5.432 -0.4213  0.5975 -1.5554
18142TIP3   OH275840   4.209   4.343  16.154 -0.2132  0.2878  0.6694
18142TIP3    H175841   4.197   4.250  16.140  1.4225  0.1694 -0.2031
18142TIP3    H275842   4.219   4.353  16.249  0.2791 -0.5137  0.7034
18143TIP3   OH275843   3.320   5.602   3.015  0.1429  0.2799 -0.5014
18143TIP3    H175844   3.255   5.553   3.065  1.3812 -0.3227  0.6098
18143TIP3    H275845   3.351   5.669   3.076  0.8157  0.3215 -0.8813
18144TIP3   OH275846   5.715   1.768   2.182  0.3212 -0.1011 -0.1868
18144TIP3    H175847   5.761   1.806   2.108  1.1153 -1.4617 -0.4347
18144TIP3    H275848   5.775   1.779   2.256 -1.0219  2.4638  0.6208
18145TIP3   OH275849   4.510   1.456   6.271  0.2504 -0.3055  1.0377
18145TIP3    H175850   4.549   1.543   6.281 -0.9864  0.5959 -1.1718
18145TIP3    H275851   4.421   1.465   6.303  0.4604 -1.0976  1.8694
18146TIP3   OH275852   1.865   1.848   5.857 -0.2663  0.1188 -0.0044
18146TIP3    H175853   1.794   1.818   5.914 -1.0764  2.3110  0.2386
18146TIP3    H275854   1.938   1.863   5.916 -0.1180 -0.5644 -0.0102
18147TIP3   OH275855   3.771   0.157  17.024  0.4488  0.2988 -0.2717
18147TIP3    H175856   3.800   0.243  16.992  0.8811  0.6922  1.1449
18147TIP3    H275857   3.851   0.106  17.032  0.3259  0.1542  0.0296
18148TIP3   OH275858   5.330   1.683   0.249 -0.0563 -0.9845 -0.0671
18148TIP3    H175859   5.422   1.657   0.244  0.0151 -0.8501  0.4898
18148TIP3    H275860   5.328   1.752   0.316 -0.5406 -0.8910 -0.1725
18149TIP3   OH275861   5.616   0.162  13.631  0.3016 -0.3375 -0.3241
18149TIP3    H175862   5.639   0.103  13.560  0.8881 -1.9586  1.1359
18149TIP3    H275863   5.658   0.124  13.708  0.5480  1.8988  0.7335
18150TIP3   OH275864   4.888   4.241  16.131 -0.4753 -0.2617 -0.2716
18150TIP3    H175865   4.857   4.234  16.221 -1.0875  2.6554 -0.1481
18150TIP3    H275866   4.981   4.260  16.138 -0.1012 -1.9065 -0.3789
18151TIP3   OH275867   1.849   6.336   5.990 -0.3278  0.0936 -0.7503
18151TIP3    H175868   1.809   6.409   5.943  0.4601 -0.1756 -1.8750
18151TIP3    H275869   1.932   6.370   6.023 -1.0873  0.4272  0.9242
18152TIP3   OH275870   5.424   5.136  14.763 -0.7188  0.4287 -0.1810
18152TIP3    H175871   5.338   5.115  14.798  0.0728  0.8383  2.2610
18152TIP3    H275872   5.463   5.194  14.830  1.8031 -0.5297 -0.6964
18153TIP3   OH275873   5.916   1.967  11.027 -0.2902  0.5380  0.2892
18153TIP3    H175874   5.920   2.063  11.032 -1.3752  0.6906 -1.0595
18153TIP3    H275875   5.889   1.949  10.937 -0.4228 -1.0400  0.6102
18154TIP3   OH275876   5.391   5.093  12.912 -0.2067  0.3851 -0.5494
18154TIP3    H175877   5.420   5.028  12.976 -0.6330 -0.8512 -1.5790
18154TIP3    H275878   5.457   5.163  12.918 -0.3427  0.4063  1.3444
18155TIP3   OH275879   6.689   5.308  12.177  0.0739 -0.5755 -0.2189
18155TIP3    H175880   6.626   5.303  12.249  1.2514  1.2868  1.0195
18155TIP3    H275881   6.636   5.336  12.102 -0.8053 -0.3157  0.4781
18156TIP3   OH275882   2.369   6.129  14.361 -0.4100  0.4422  0.6585
18156TIP3    H175883   2.403   6.042  14.382  0.4414  0.4015 -0.8173
18156TIP3    H275884   2.274   6.120  14.372 -0.3981 -0.8752 -0.1494
18157TIP3   OH275885   3.028   5.100   6.420  0.4612  0.1478 -0.0369
18157TIP3    H175886   3.117   5.133   6.433  0.1572  1.6796 -1.4841
18157TIP3    H275887   2.999   5.141   6.338 -1.3003 -0.9398 -0.0112
18158TIP3   OH275888   2.120   4.712  10.790 -0.1891  0.1955 -0.1726
18158TIP3    H175889   2.122   4.698  10.695 -0.2100  0.8151 -0.2727
18158TIP3    H275890   2.195   4.769  10.807 -0.8616  1.0646  0.0038
18159TIP3   OH275891   0.474   5.291   3.880  0.0938 -0.0804  0.4296
18159TIP3    H175892   0.481   5.385   3.896 -1.1676  0.2770 -0.9556
18159TIP3    H275893   0.550   5.270   3.826  0.2555  0.1798  0.5544
18160TIP3   OH275894   2.175   1.182   2.964 -0.3719  0.2500  0.2711
18160TIP3    H175895   2.204   1.237   2.891 -0.3908  1.1774  0.9422
18160TIP3    H275896   2.155   1.098   2.924  1.0626  0.2661 -0.5682
18161TIP3   OH275897   3.349   4.561  12.932 -0.0394  0.5975 -0.3869
18161TIP3    H175898   3.442   4.559  12.955 -0.7808  1.2300  3.2534
18161TIP3    H275899   3.330   4.654  12.918 -0.0174  0.3890 -2.0411
18162TIP3   OH275900   1.371   2.669   5.290  0.4255  0.4406 -0.3252
18162TIP3    H175901   1.461   2.636   5.297  0.8826  0.9991 -2.6534
18162TIP3    H275902   1.327   2.608   5.231 -0.4000  0.7993 -0.0957
18163TIP3   OH275903   5.457   1.372   0.373  0.6776  0.1817 -0.3279
18163TIP3    H175904   5.497   1.416   0.298  0.2360  1.7487  0.3130
18163TIP3    H275905   5.524   1.377   0.442  0.5235  0.0875 -0.1714
18164TIP3   OH275906   2.386   3.895  13.508  0.1827  0.0769 -0.1122
18164TIP3    H175907   2.342   3.928  13.587  2.2532  0.0740  1.1066
18164TIP3    H275908   2.440   3.968  13.478 -0.0755 -0.1454 -1.1749
18165TIP3   OH275909   2.769   3.981   4.732 -0.6188 -0.2764 -0.3955
18165TIP3    H175910   2.862   3.986   4.711  0.3923 -1.4505  3.0257
18165TIP3    H275911   2.747   4.067   4.768 -0.2686 -0.5893  0.6073
18166TIP3   OH275912   1.903   6.239  14.749  0.4003 -0.3231  0.2418
18166TIP3    H175913   1.923   6.305  14.682  1.5192  0.5468  1.3834
18166TIP3    H275914   1.968   6.171  14.736  0.0611 -0.5864 -0.1043
18167TIP3   OH275915   5.937   4.015  16.929 -0.2010 -0.2995  0.3927
18167TIP3    H175916   5.905   4.104  16.947 -0.6007 -0.4890  0.6368
18167TIP3    H275917   5.988   3.992  17.007  2.0217  0.6502 -0.6893
18168TIP3   OH275918   6.290   4.280   1.500  0.2554  0.0637 -0.2368
18168TIP3    H175919   6.333   4.252   1.419 -0.1167  0.5254 -0.6020
18168TIP3    H275920   6.238   4.205   1.528  0.4682 -0.1325 -0.3668
18169TIP3   OH275921   6.057   3.226   3.747  0.3303 -0.6431  0.1230
18169TIP3    H175922   6.139   3.242   3.701 -0.5249 -1.5084 -1.8236
18169TIP3    H275923   5.993   3.281   3.702 -0.3171 -0.5948  1.0730
18170TIP3   OH275924   2.890   5.669  15.100  0.6830 -0.5609  0.6438
18170TIP3    H175925   2.968   5.648  15.049  1.4416  1.8780  0.6857
18170TIP3    H275926   2.855   5.749  15.059 -1.3200 -1.1212  1.1524
18171TIP3   OH275927   4.023   0.661  15.597  0.6618 -0.0312 -0.0503
18171TIP3    H175928   4.064   0.575  15.610  0.6498  0.1552  1.4104
18171TIP3    H275929   4.075   0.721  15.651 -0.1459  0.6306  0.0115
18172TIP3   OH275930   4.369   6.712   4.143  0.4231  0.5920 -0.0988
18172TIP3    H175931   4.360   6.804   4.169 -1.4175  0.0044  1.6222
18172TIP3    H275932   4.450   6.684   4.186  0.5037  1.1756  0.1502
18173TIP3   OH275933   2.909   3.972  12.160 -0.0336 -0.0315 -0.2234
18173TIP3    H175934   2.961   3.892  12.161 -0.2016 -0.1670 -1.0380
18173TIP3    H275935   2.973   4.041  12.139 -0.1470 -0.1866 -1.1421
18174TIP3   OH275936   5.642   4.781   2.121  0.2178  0.0195  0.3050
18174TIP3    H175937   5.610   4.707   2.172 -1.5889  0.7496  0.3205
18174TIP3    H275938   5.687   4.836   2.184 -0.2072 -0.0870  0.7053
18175TIP3   OH275939   6.208   2.027   0.822 -0.1617  0.1044  0.5413
18175TIP3    H175940   6.199   2.117   0.791 -1.2192 -0.7207 -1.7690
18175TIP3    H275941   6.145   2.020   0.894 -0.5540  1.0143  0.2980
18176TIP3   OH275942   0.842   0.285  13.776  0.3247 -0.1245  0.0640
18176TIP3    H175943   0.768   0.262  13.832 -0.0177 -0.1229 -0.3891
18176TIP3    H275944   0.868   0.372  13.805  0.7651 -0.5044  0.8685
18177TIP3   OH275945   0.887   6.143   0.777  0.0471 -0.6104  0.1484
18177TIP3    H175946   0.818   6.208   0.769  0.5979 -0.1742 -1.3996
18177TIP3    H275947   0.929   6.163   0.860  0.1642  0.9834 -0.2598
18178TIP3   OH275948   4.045   2.839  15.107  0.0220  0.1808  0.1702
18178TIP3    H175949   4.085   2.855  15.022  0.6679  0.8637  0.5936
18178TIP3    H275950   3.956   2.809  15.087 -0.7562  2.8295 -0.7274
18179TIP3   OH275951   4.921   0.042   1.781 -0.6758  0.3512 -0.0020
18179TIP3    H175952   4.931   0.032   1.876 -0.8175 -0.8448 -0.1040
18179TIP3    H275953   5.002   0.086   1.754 -0.9935  1.4687  0.7644
18180TIP3   OH275954   1.549   3.658   2.736 -0.2035  0.5631  0.0209
18180TIP3    H175955   1.483   3.596   2.764 -1.0264  1.5855  0.4104
18180TIP3    H275956   1.592   3.685   2.817  1.5545 -0.9862 -0.3264
18181TIP3   OH275957   4.444   0.970   0.559 -0.6630  0.4750 -0.0422
18181TIP3    H175958   4.519   0.933   0.512 -0.3654 -0.0172  0.7862
18181TIP3    H275959   4.481   1.044   0.607 -0.8481  0.6494 -0.1721
18182TIP3   OH275960   4.324   0.354  11.387  0.4880  0.3057 -0.2573
18182TIP3    H175961   4.301   0.267  11.355  0.4443  0.0007  0.5756
18182TIP3    H275962   4.418   0.350  11.403 -0.0214 -0.8904  3.4501
18183TIP3   OH275963   4.076   5.287   1.567 -0.1738 -0.4797  0.3175
18183TIP3    H175964   4.139   5.230   1.523  1.1484  0.8018  0.4760
18183TIP3    H275965   4.073   5.366   1.513 -0.6088  0.0299  1.0701
18184TIP3   OH275966   2.517   1.214  14.388  0.5528 -0.6868  0.2996
18184TIP3    H175967   2.476   1.215  14.475  2.2553  0.9944  1.1631
18184TIP3    H275968   2.500   1.302  14.353 -2.4944 -2.1404 -2.3599
18185TIP3   OH275969   4.071   6.386   0.266  0.2838 -0.2803 -0.5986
18185TIP3    H175970   4.164   6.408   0.270  0.5587 -1.4205 -0.2516
18185TIP3    H275971   4.028   6.457   0.313  1.1320 -0.4604  0.5123
18186TIP3   OH275972   5.752   3.247   2.001  0.3610  0.3485 -0.6463
18186TIP3    H175973   5.728   3.235   1.909 -1.1866  2.6305 -0.6138
18186TIP3    H275974   5.680   3.208   2.050 -0.1273  1.4517 -0.4610
18187TIP3   OH275975   2.229   1.114   0.409  0.3465  0.1131 -0.2670
18187TIP3    H175976   2.267   1.137   0.494 -0.7947  0.5205  0.1589
18187TIP3    H275977   2.301   1.123   0.347  1.0861  0.2646  0.5868
18188TIP3   OH275978   6.201   5.909  11.253  0.1228 -0.7203  0.2700
18188TIP3    H175979   6.135   5.841  11.234 -0.4341 -0.8232  2.2912
18188TIP3    H275980   6.251   5.873  11.327 -1.0957  1.5576  2.3600
18189TIP3   OH275981   4.271   0.152  14.800  0.2628  0.3558 -0.1781
18189TIP3    H175982   4.208   0.104  14.746  0.3227  0.6378 -0.5076
18189TIP3    H275983   4.352   0.152  14.748  0.8487 -0.8973  0.6988
18190TIP3   OH275984   5.548   6.007  12.716 -0.3222 -0.1075  0.2909
18190TIP3    H175985   5.606   6.040  12.785  0.6212  2.5755 -1.6173
18190TIP3    H275986   5.577   5.917  12.702  1.2960  0.1712  1.5170
18191TIP3   OH275987   4.624   2.873  15.204  0.2451  0.4052  0.5831
18191TIP3    H175988   4.638   2.781  15.230 -0.5491 -0.3274 -1.4182
18191TIP3    H275989   4.529   2.883  15.203  0.2803  0.7317 -0.8460
18192TIP3   OH275990   1.516   3.027   1.971  0.4208  0.5016 -0.1373
18192TIP3    H175991   1.566   3.036   2.053  0.0269  0.3450  0.1230
18192TIP3    H275992   1.425   3.023   1.999  0.2498  0.8863 -0.6184
18193TIP3   OH275993   0.333   4.550  11.920 -0.2360 -0.0260  0.6954
18193TIP3    H175994   0.387   4.477  11.951 -0.2377  0.5984  2.2757
18193TIP3    H275995   0.389   4.598  11.860  1.2773  0.9550  2.7649
18194TIP3   OH275996   1.129   5.809  10.481  0.1160 -0.6051 -0.5823
18194TIP3    H175997   1.183   5.743  10.439  1.1883 -1.4650  1.9219
18194TIP3    H275998   1.044   5.803  10.437  0.5942 -2.7125 -1.3088
18195TIP3   OH275999   3.837   6.077  10.880  0.2241 -0.2024  0.0831
18195TIP3    H176000   3.919   6.027  10.880  0.5432  0.2453  2.1032
18195TIP3    H276001   3.840   6.128  10.799  1.3518 -1.1019 -0.4718
18196TIP3   OH276002   6.392   0.351   1.371 -0.0187 -0.3817  0.0985
18196TIP3    H176003   6.446   0.342   1.449 -0.5837  2.9210  1.0180
18196TIP3    H276004   6.444   0.405   1.311 -0.3755 -1.2270 -1.0056
18197TIP3   OH276005   1.046   1.045  12.572  0.4492 -0.2235  0.2454
18197TIP3    H176006   1.053   1.140  12.579  2.2366 -0.2407 -0.8090
18197TIP3    H276007   1.129   1.012  12.607  0.4231 -1.3220 -0.6686
18198TIP3   OH276008   2.934   3.026  12.143  0.0751 -0.3793 -0.0212
18198TIP3    H176009   2.955   2.953  12.201 -1.0156  0.5295  1.6236
18198TIP3    H276010   2.843   3.048  12.165 -0.5145 -0.2349 -2.4047
18199TIP3   OH276011   0.198   2.708   1.915 -0.2228  0.2873 -0.0494
18199TIP3    H176012   0.137   2.674   1.850 -0.4120 -1.9234  1.2115
18199TIP3    H276013   0.162   2.682   1.999  1.7855  0.0069  0.7973
18200TIP3   OH276014   4.709   2.840   0.853  0.1940 -0.1438 -0.1417
18200TIP3    H176015   4.660   2.887   0.920 -2.1275 -1.2428 -0.9844
18200TIP3    H276016   4.771   2.905   0.818 -1.1282  1.5095  0.4722
18201TIP3   OH276017   0.272   6.301   3.917 -0.0603 -0.0504 -0.4346
18201TIP3    H176018   0.176   6.300   3.915 -0.0741  0.6109 -1.8805
18201TIP3    H276019   0.297   6.289   3.826  1.2606 -0.7655  0.0058
18202TIP3   OH276020   1.299   5.176   5.661 -0.6565 -0.1528 -0.5056
18202TIP3    H176021   1.327   5.257   5.703  0.0338 -0.7496  0.2124
18202TIP3    H276022   1.203   5.177   5.668 -0.7820  1.3789 -2.0037
18203TIP3   OH276023   2.591   6.092   6.244 -0.6151 -0.0157 -0.3392
18203TIP3    H176024   2.518   6.154   6.246 -1.7808 -1.2820 -1.5860
18203TIP3    H276025   2.556   6.015   6.199  2.0793  0.1291 -3.0274
18204TIP3   OH276026   1.579   4.148  12.349  0.3800  0.1728  0.2573
18204TIP3    H176027   1.515   4.088  12.310  0.9891 -0.3630  0.0774
18204TIP3    H276028   1.589   4.217  12.283  1.7667 -0.9716 -0.8078
18205TIP3   OH276029   5.447   5.220   5.402 -0.3262  0.5893  0.0046
18205TIP3    H176030   5.489   5.229   5.488  0.3470 -0.6594 -0.1695
18205TIP3    H276031   5.379   5.154   5.415  0.4593 -0.3844 -0.6300
18206TIP3   OH276032   2.484   0.761  11.752  1.0229  0.0737 -0.1554
18206TIP3    H176033   2.529   0.702  11.813 -1.9167 -0.2318  1.9901
18206TIP3    H276034   2.489   0.717  11.667  3.9482 -0.2736  0.1129
18207TIP3   OH276035   4.253   1.240   6.690 -0.1340 -0.4975 -0.4326
18207TIP3    H176036   4.311   1.313   6.670 -0.7343 -0.0551 -0.5939
18207TIP3    H276037   4.183   1.279   6.743  0.4683 -1.2974  0.9933
18208TIP3   OH276038   6.101   6.271  14.496 -0.3091 -0.3603  0.3044
18208TIP3    H176039   6.022   6.250  14.446  0.7208 -0.5021 -1.3145
18208TIP3    H276040   6.168   6.211  14.462  1.1640  1.5142 -0.2549
18209TIP3   OH276041   4.644   0.601   3.692  0.2542 -0.2408  0.7897
18209TIP3    H176042   4.684   0.553   3.765  0.8011 -0.3886  0.3980
18209TIP3    H276043   4.591   0.535   3.647 -1.3871  0.2221  1.9891
18210TIP3   OH276044   0.277   1.089   4.339 -0.4329  0.6012  0.1279
18210TIP3    H176045   0.274   0.994   4.334  1.9946  0.2397  2.7513
18210TIP3    H276046   0.329   1.116   4.264  1.2932 -0.4826  0.8685
18211TIP3   OH276047   1.743   2.204   0.667  0.2790 -0.0410 -0.2046
18211TIP3    H176048   1.830   2.240   0.685  0.3864 -0.7685  0.7575
18211TIP3    H276049   1.750   2.112   0.691 -0.6457 -0.1946 -0.5155
18212TIP3   OH276050   5.260   6.172   3.872 -0.3505 -0.8538  0.0989
18212TIP3    H176051   5.332   6.229   3.844 -2.7819  1.3536 -2.2454
18212TIP3    H276052   5.283   6.086   3.836  1.9513 -0.7453  1.1025
18213TIP3   OH276053   5.677   5.866   0.265 -0.1675 -0.8463 -0.6417
18213TIP3    H176054   5.621   5.857   0.342  0.1030 -1.1046 -0.4716
18213TIP3    H276055   5.616   5.877   0.192 -0.4177  0.3106 -0.2865
18214TIP3   OH276056   2.540   1.983  13.430  0.1939 -0.2920 -0.6393
18214TIP3    H176057   2.476   2.054  13.429 -1.0119 -1.3500 -1.5779
18214TIP3    H276058   2.623   2.024  13.403  0.1882  1.3003  1.5174
18215TIP3   OH276059   5.841   0.588  14.840 -0.5591 -0.6841  0.7506
18215TIP3    H176060   5.848   0.667  14.786  0.1487 -0.5583  1.0225
18215TIP3    H276061   5.799   0.524  14.784 -0.2855 -0.4006  0.2181
18216TIP3   OH276062   3.523   6.075   5.727 -0.1976  0.1509 -0.4592
18216TIP3    H176063   3.570   6.082   5.644  2.1177  0.9609  0.7920
18216TIP3    H276064   3.576   6.014   5.779 -1.2098  0.1858  0.6543
18217TIP3   OH276065   4.318   5.507   6.010  0.4117 -0.2074  0.3494
18217TIP3    H176066   4.336   5.594   6.044  0.1274  0.1526 -0.3962
18217TIP3    H276067   4.355   5.447   6.075 -0.1863  0.4476  1.3007
18218TIP3   OH276068   0.508   3.538  15.933 -0.2726 -0.3098 -0.4913
18218TIP3    H176069   0.520   3.603  15.864  1.5701 -0.8829 -0.7406
18218TIP3    H276070   0.413   3.535  15.946 -0.7282 -0.5787 -3.3606
18219TIP3   OH276071   0.213   3.044   0.126 -0.0787  0.0795  0.1817
18219TIP3    H176072   0.183   3.039   0.036 -1.7793  0.2474  0.7025
18219TIP3    H276073   0.158   2.981   0.173  1.6899 -1.0208  0.9012
18220TIP3   OH276074   3.743   4.528  13.853 -0.2400 -0.2618  0.0399
18220TIP3    H176075   3.678   4.569  13.796 -0.2003 -0.4859 -0.1689
18220TIP3    H276076   3.747   4.585  13.929 -0.9278 -0.4255  0.2075
18221TIP3   OH276077   6.747   1.754  16.209  0.9377  0.2048 -0.3694
18221TIP3    H176078   6.797   1.717  16.282  0.9153  1.7011  0.4265
18221TIP3    H276079   6.787   1.715  16.131  1.3889 -0.9114  0.3890
18222TIP3   OH276080   6.303   2.617  12.205  0.2523  0.4307  0.2673
18222TIP3    H176081   6.370   2.667  12.158  1.0149 -0.9687 -0.2020
18222TIP3    H276082   6.352   2.556  12.259 -0.5979 -1.3699 -0.8984
18223TIP3   OH276083   3.757   2.878   2.272 -0.4717  0.2341 -0.3288
18223TIP3    H176084   3.715   2.881   2.358 -0.2925  0.3587 -0.2445
18223TIP3    H276085   3.729   2.958   2.228 -0.6862  0.0953 -0.4446
18224TIP3   OH276086   3.893   4.439  12.843  0.5989  0.3601 -0.4643
18224TIP3    H176087   3.842   4.386  12.903 -0.6632 -0.2592 -2.0257
18224TIP3    H276088   3.880   4.529  12.873  0.9565 -0.0082  0.8630
18225TIP3   OH276089   6.503   3.288   2.720  0.1059 -0.0888  0.1334
18225TIP3    H176090   6.426   3.344   2.725  0.3756  0.1972  1.3008
18225TIP3    H276091   6.541   3.308   2.634 -0.5347  0.5340 -0.0174
18226TIP3   OH276092   5.202   0.528  16.704  0.2872  0.2146 -0.3495
18226TIP3    H176093   5.168   0.617  16.701  0.3269  0.1966 -1.9471
18226TIP3    H276094   5.228   0.515  16.795  2.4985  2.6726 -0.5450
18227TIP3   OH276095   4.534   6.227   2.713  0.5078 -0.1111 -0.6890
18227TIP3    H176096   4.468   6.194   2.653  1.5558 -1.6707 -1.0367
18227TIP3    H276097   4.566   6.307   2.672  0.4086 -0.5523 -1.6384
18228TIP3   OH276098   5.880   3.069  16.854 -0.3162  0.5032 -0.5048
18228TIP3    H176099   5.805   3.061  16.795 -0.5046 -1.2243 -0.0938
18228TIP3    H276100   5.940   2.999  16.825  1.0432  1.6774 -0.6656
18229TIP3   OH276101   1.905   3.679  16.721 -0.1130  0.1407 -0.0856
18229TIP3    H176102   1.872   3.616  16.786  1.0351 -0.0085  0.3795
18229TIP3    H276103   1.981   3.719  16.763 -0.8485  1.9209 -0.3461
18230TIP3   OH276104   0.962   2.979  12.287  0.2871 -0.0576 -0.0772
18230TIP3    H176105   0.913   2.959  12.206  1.3074  0.2409 -0.7919
18230TIP3    H276106   0.909   2.942  12.357 -1.2114  0.6908 -0.7712
18231TIP3   OH276107   1.631   4.397  16.669 -0.2820 -0.2635  0.1388
18231TIP3    H176108   1.587   4.319  16.634  0.6763 -1.7612  2.0709
18231TIP3    H276109   1.570   4.431  16.735 -1.4154  1.6590 -1.7775
18232TIP3   OH276110   1.563   4.620  13.177  0.0529 -0.7061  0.4780
18232TIP3    H176111   1.581   4.685  13.245 -2.1650 -1.6895  2.1125
18232TIP3    H276112   1.475   4.643  13.145  0.5424 -1.0246 -1.1877
18233TIP3   OH276113   5.016   4.117   5.819 -0.1746  0.3801 -0.3031
18233TIP3    H176114   4.990   4.131   5.728 -1.3387 -0.6795 -0.1669
18233TIP3    H276115   5.002   4.023   5.834  3.7165 -0.3745 -0.1517
18234TIP3   OH276116   3.707   6.452   0.645 -0.3719 -0.8716 -0.2266
18234TIP3    H176117   3.649   6.475   0.573  2.4375  1.5351 -1.9449
18234TIP3    H276118   3.680   6.509   0.717  0.6913  1.4574 -1.5381
18235TIP3   OH276119   1.685   0.623   5.494  0.1787 -0.5278  0.1102
18235TIP3    H176120   1.646   0.703   5.529 -0.5674 -0.4408 -0.8934
18235TIP3    H276121   1.617   0.557   5.505 -0.4616 -0.2880 -2.0269
18236TIP3   OH276122   2.140   1.238  16.492  0.7044 -0.0145 -0.9192
18236TIP3    H176123   2.086   1.180  16.545 -0.2266 -0.0397 -1.8564
18236TIP3    H276124   2.077   1.288  16.440  1.5693  0.2179 -1.7716
18237TIP3   OH276125   6.716   1.050  14.138 -0.5813  0.2869 -0.8603
18237TIP3    H176126   6.729   1.005  14.222 -1.3450  0.3470 -0.6991
18237TIP3    H276127   6.692   1.139  14.162  1.4695  0.9735 -1.1916
18238TIP3   OH276128   3.240   4.691  11.807 -0.3614 -0.3023 -0.2677
18238TIP3    H176129   3.276   4.698  11.719 -2.1354  0.8402 -0.9650
18238TIP3    H276130   3.172   4.624  11.801 -1.0551  0.3537 -0.0077
18239TIP3   OH276131   5.833   4.140  14.858 -0.0690 -0.4352 -0.3741
18239TIP3    H176132   5.859   4.076  14.791 -0.7382 -1.7342  0.5533
18239TIP3    H276133   5.742   4.117  14.879 -0.2543  0.6973  0.1569
18240TIP3   OH276134   4.497   2.881   2.929 -0.3603  0.2041 -0.1804
18240TIP3    H176135   4.467   2.799   2.891  2.4078 -1.8466  1.6636
18240TIP3    H276136   4.571   2.908   2.874 -0.2899  0.6009  0.0981
18241TIP3   OH276137   0.359   5.520  13.808  0.5930  0.1239 -0.2729
18241TIP3    H176138   0.329   5.551  13.723  0.1999 -0.8661 -0.5132
18241TIP3    H276139   0.331   5.428  13.811 -0.2374  0.3913  1.2983
18242TIP3   OH276140   0.811   0.694   2.722  0.5161 -0.1475  0.0771
18242TIP3    H176141   0.762   0.776   2.732 -0.9837 -1.2490  3.3154
18242TIP3    H276142   0.871   0.692   2.797  1.3068 -1.4930 -0.5552
18243TIP3   OH276143   3.295   0.818   0.536  0.6023 -0.1183 -0.1232
18243TIP3    H176144   3.299   0.816   0.632 -1.2302  0.1626 -0.0130
18243TIP3    H276145   3.305   0.910   0.514  0.5117 -0.1219 -0.1767
18244TIP3   OH276146   4.810   5.441  13.007 -0.0443 -0.4535  0.4332
18244TIP3    H176147   4.729   5.467  12.965 -0.5931 -0.4407  1.4771
18244TIP3    H276148   4.797   5.460  13.100  1.0199 -0.7668  0.6668
18245TIP3   OH276149   2.847   1.561  16.153 -0.1813 -0.0414 -0.0112
18245TIP3    H176150   2.818   1.537  16.065  1.4620  1.1022 -0.9038
18245TIP3    H276151   2.808   1.494  16.210 -0.8032 -1.1326 -1.6484
18246TIP3   OH276152   5.589   0.865   4.931 -0.2911  0.4505 -0.0981
18246TIP3    H176153   5.603   0.938   4.992  0.0339  1.0557 -0.8840
18246TIP3    H276154   5.662   0.870   4.870  0.2421 -1.1068  0.3569
18247TIP3   OH276155   3.813   5.278   3.292  0.3624  0.3632  0.1305
18247TIP3    H176156   3.859   5.317   3.217 -1.1373  1.2796 -0.3581
18247TIP3    H276157   3.771   5.352   3.335 -1.1458 -0.4954  0.1982
18248TIP3   OH276158   3.350   5.486   1.592  0.1185  0.2259  0.6287
18248TIP3    H176159   3.307   5.571   1.590 -1.2566 -0.4296  1.0633
18248TIP3    H276160   3.334   5.453   1.681  0.5673 -0.5172  0.4433
18249TIP3   OH276161   1.859   1.878   2.278 -0.7852 -0.1651  1.2691
18249TIP3    H176162   1.889   1.898   2.190  0.7109 -0.4981  1.6677
18249TIP3    H276163   1.772   1.917   2.284  0.3374  2.6326  0.6955
18250TIP3   OH276164   1.190   2.116  14.319 -0.4100  0.2936 -0.1150
18250TIP3    H176165   1.277   2.081  14.339 -0.9500 -0.3944  1.2103
18250TIP3    H276166   1.178   2.100  14.225  1.0431  0.7750 -0.4007
18251TIP3   OH276167   5.701   5.453  12.306  0.0033  0.5290  0.0856
18251TIP3    H176168   5.704   5.357  12.305  0.2539  0.5064  1.1784
18251TIP3    H276169   5.793   5.479  12.296 -0.0147  0.6411  0.2104
18252TIP3   OH276170   5.460   4.675  12.979  0.1801  0.2723  0.5917
18252TIP3    H176171   5.457   4.747  13.042 -0.1013  1.0444 -0.2902
18252TIP3    H276172   5.388   4.692  12.918  1.0713  0.1085 -0.5397
18253TIP3   OH276173   5.549   0.350  14.867  0.4570 -0.1663 -0.0065
18253TIP3    H176174   5.525   0.267  14.908  2.6172 -0.5059  0.6831
18253TIP3    H276175   5.509   0.417  14.923  0.1051 -0.7025  0.3942
18254TIP3   OH276176   1.268   5.066   4.477 -0.3115 -0.2786 -0.1787
18254TIP3    H176177   1.325   5.079   4.552  1.3334 -0.5101 -1.3315
18254TIP3    H276178   1.241   4.974   4.482 -1.8064  0.1802  1.1405
18255TIP3   OH276179   5.985   4.910  15.526  0.4958  0.3155  0.1132
18255TIP3    H176180   5.903   4.941  15.565  0.3931  1.7917 -1.2074
18255TIP3    H276181   6.047   4.982  15.541  1.5826 -0.7670  1.0607
18256TIP3   OH276182   3.937   1.951   5.065 -0.4043 -0.0619  0.2350
18256TIP3    H176183   3.988   1.875   5.094 -0.0986 -0.0371 -0.2095
18256TIP3    H276184   3.892   1.982   5.143 -1.2757 -1.2614  0.2265
18257TIP3   OH276185   2.436   1.278  16.524 -0.1954  0.3182  0.4032
18257TIP3    H176186   2.451   1.358  16.473  2.3509  0.5862  1.3951
18257TIP3    H276187   2.447   1.207  16.461  3.5270  0.6132  0.4753
18258TIP3   OH276188   4.231   3.732   6.134  0.6180  0.0200 -0.0213
18258TIP3    H176189   4.170   3.804   6.149 -0.6163 -1.2428  1.4647
18258TIP3    H276190   4.283   3.759   6.059 -1.3541  1.4463 -0.9679
18259TIP3   OH276191   2.828   4.765   4.008  0.2276  0.7863  0.3571
18259TIP3    H176192   2.848   4.697   3.944  2.3446  1.5851  0.0898
18259TIP3    H276193   2.740   4.795   3.985  0.9395  1.1122 -2.2953
18260TIP3   OH276194   0.086   5.663  15.722  0.2069 -0.4988 -0.0344
18260TIP3    H176195   0.028   5.612  15.778 -1.3849 -0.9445 -1.9977
18260TIP3    H276196   0.133   5.720  15.783 -2.0642 -0.3236  1.6823
18261TIP3   OH276197   5.631   5.453  14.014  0.4769 -0.1396  0.4322
18261TIP3    H176198   5.570   5.394  13.970 -2.1187  1.8305  1.1285
18261TIP3    H276199   5.645   5.414  14.100  1.4896 -1.3971 -0.2769
18262TIP3   OH276200   0.430   1.162   2.850 -0.5457 -0.1633 -0.0258
18262TIP3    H176201   0.383   1.217   2.787  0.3774 -0.5412 -1.0619
18262TIP3    H276202   0.452   1.221   2.922 -0.1610  0.6632 -0.8164
18263TIP3   OH276203   2.721   2.551  14.868 -0.1481  0.2384  0.4749
18263TIP3    H176204   2.758   2.632  14.905 -0.6475  1.0785 -0.7795
18263TIP3    H276205   2.753   2.550  14.778 -1.4949 -0.0848 -0.0237
18264TIP3   OH276206   0.460   1.137   3.398  0.3338 -0.3420  0.8049
18264TIP3    H176207   0.374   1.095   3.402  0.0151  0.3903  1.9877
18264TIP3    H276208   0.464   1.192   3.476  1.5454  0.2866  0.3274
18265TIP3   OH276209   3.267   4.810   3.839 -0.0354 -0.1212  0.0961
18265TIP3    H176210   3.174   4.829   3.847 -0.0488 -0.0927 -0.1284
18265TIP3    H276211   3.296   4.796   3.929  0.0091  1.1049  0.2895
18266TIP3   OH276212   3.464   5.213  15.372  0.1144  0.2593  1.0690
18266TIP3    H176213   3.429   5.181  15.456  1.1690 -0.2999  1.3065
18266TIP3    H276214   3.494   5.134  15.327  2.1489  0.7954  1.3799
18267TIP3   OH276215   3.752   1.631   2.054  0.5644 -0.0758 -0.2715
18267TIP3    H176216   3.835   1.666   2.084 -0.1874  1.6977 -0.1494
18267TIP3    H276217   3.776   1.560   1.994  2.1516  0.5860 -0.4563
18268TIP3   OH276218   0.392   0.286   0.735 -0.2577  0.1876 -0.5800
18268TIP3    H176219   0.347   0.301   0.652 -0.7902  0.9676 -0.1616
18268TIP3    H276220   0.448   0.363   0.746 -0.0279 -0.0145 -0.3152
18269TIP3   OH276221   6.315   6.213   2.018 -0.1051 -0.2150  0.3901
18269TIP3    H176222   6.340   6.149   2.084 -1.6701  0.7710  2.0322
18269TIP3    H276223   6.396   6.260   1.998  0.3092 -0.1720  2.0471
18270TIP3   OH276224   5.402   4.765   3.618  0.5692 -0.1081 -0.2945
18270TIP3    H176225   5.354   4.791   3.697 -0.4910  0.4962 -1.1185
18270TIP3    H276226   5.486   4.810   3.626 -0.5015  2.1319 -0.7452
18271TIP3   OH276227   5.383   4.696   5.037 -0.8465  0.3394  0.3568
18271TIP3    H176228   5.322   4.768   5.052  0.4875  1.8223 -1.0285
18271TIP3    H276229   5.390   4.690   4.942 -0.2599 -1.0577  0.4627
18272TIP3   OH276230   0.205   4.025   4.593  0.1074 -0.2361  0.1205
18272TIP3    H176231   0.191   4.115   4.564  1.0316  0.2898  1.2164
18272TIP3    H276232   0.257   4.033   4.673 -0.3358 -1.7218  0.5998
18273TIP3   OH276233   4.767   3.194  16.787 -0.1269  0.1933 -0.5546
18273TIP3    H176234   4.671   3.196  16.788 -0.1163  1.1496  0.2668
18273TIP3    H276235   4.791   3.247  16.710 -0.2346 -2.7424 -2.7983
18274TIP3   OH276236   1.089   6.174  13.993  0.4578  0.0788  0.0329
18274TIP3    H176237   1.179   6.200  13.971  0.5955 -0.1199  0.3433
18274TIP3    H276238   1.099   6.091  14.039  0.0847 -0.1172 -0.2357
18275TIP3   OH276239   3.803   0.228  10.878 -0.0990 -0.2495  0.4451
18275TIP3    H176240   3.897   0.214  10.865 -0.1311  0.8910 -1.3147
18275TIP3    H276241   3.780   0.299  10.819 -2.0494 -0.3376  1.0047
18276TIP3   OH276242   4.866   4.557   4.436 -0.0442 -0.2631  0.0368
18276TIP3    H176243   4.864   4.589   4.345  1.5037 -2.3756 -0.8146
18276TIP3    H276244   4.857   4.462   4.428  2.1284 -0.7085  1.9209
18277TIP3   OH276245   3.898   0.760   1.634  0.0056 -0.0184  0.2247
18277TIP3    H176246   3.875   0.853   1.633  0.4615  0.1575  1.8991
18277TIP3    H276247   3.816   0.715   1.656 -0.4080 -0.1152 -1.4188
18278TIP3   OH276248   4.725   5.995   4.552 -0.0290  0.0783  0.5697
18278TIP3    H176249   4.777   5.931   4.601 -0.9156  1.4384  3.5316
18278TIP3    H276250   4.646   5.947   4.528  0.3291 -0.5819  0.6873
18279TIP3   OH276251   4.395   1.874  15.245 -0.7017 -0.5692  0.1265
18279TIP3    H176252   4.326   1.808  15.258  0.4317 -2.2231 -1.5889
18279TIP3    H276253   4.450   1.837  15.176 -0.8765  2.9140 -2.1316
18280TIP3   OH276254   0.480   4.676  11.698 -0.2489  0.2533 -0.2372
18280TIP3    H176255   0.462   4.764  11.666  0.4551 -0.3413 -2.4896
18280TIP3    H276256   0.435   4.619  11.636  2.9767 -1.0435 -1.6051
18281TIP3   OH276257   5.511   1.095  13.911  0.2925 -0.2810 -0.6230
18281TIP3    H176258   5.433   1.066  13.959  0.0644  0.2630 -0.6480
18281TIP3    H276259   5.533   1.022  13.854  0.3359 -0.7863  0.0343
18282TIP3   OH276260   6.174   5.706   0.283  0.2200  0.0026  0.2966
18282TIP3    H176261   6.212   5.791   0.262  0.8717 -0.6421 -1.3014
18282TIP3    H276262   6.093   5.704   0.232  0.3330 -0.4399  0.1385
18283TIP3   OH276263   2.238   6.221   1.916 -0.3164 -0.1696 -0.2814
18283TIP3    H176264   2.312   6.262   1.870 -2.0389  0.0943 -3.0490
18283TIP3    H276265   2.203   6.291   1.972  1.3268 -0.2437  0.9286
18284TIP3   OH276266   1.795   0.901  15.574  0.4389 -0.6348  0.8544
18284TIP3    H176267   1.780   0.817  15.617  0.4668 -0.5166  1.0983
18284TIP3    H276268   1.830   0.878  15.488  0.8344 -0.8645  1.0726
18285TIP3   OH276269   4.056   5.150   2.330  0.0159 -0.0347 -0.3200
18285TIP3    H176270   4.100   5.223   2.374  1.1549  0.2875 -1.9247
18285TIP3    H276271   3.989   5.191   2.276 -2.3662 -0.5176  2.0248
18286TIP3   OH276272   4.677   6.198   2.343 -0.3237  0.1347 -0.2603
18286TIP3    H176273   4.712   6.140   2.275 -0.4165 -2.0227  1.4087
18286TIP3    H276274   4.743   6.196   2.412 -1.4430  0.0277  0.8470
18287TIP3   OH276275   5.986   5.341  12.847 -0.2238  0.6525 -0.1383
18287TIP3    H176276   6.073   5.379  12.858 -0.4049  1.2265 -0.6416
18287TIP3    H276277   5.995   5.283  12.772  0.1228 -0.5484  0.7959
18288TIP3   OH276278   6.213   0.748  13.265  0.5004 -0.2873  0.6205
18288TIP3    H176279   6.143   0.814  13.265  1.6171  1.1175 -2.8579
18288TIP3    H276280   6.166   0.665  13.259 -0.8932  0.3643  1.7530
18289TIP3   OH276281   1.584   3.909   1.465  0.1786  0.5341 -0.2527
18289TIP3    H176282   1.535   3.990   1.452  0.6698  0.9020  0.1118
18289TIP3    H276283   1.523   3.851   1.511  0.4877  1.4690  1.4307
18290TIP3   OH276284   0.883   3.780  11.982  0.0257  0.3672 -0.6085
18290TIP3    H176285   0.954   3.781  11.917 -1.0838  1.8379 -1.8774
18290TIP3    H276286   0.874   3.688  12.006  2.6881  0.1774  0.0088
18291TIP3   OH276287   0.794   1.883  11.539  0.0118 -0.7709 -0.4437
18291TIP3    H176288   0.826   1.922  11.457  1.1673 -0.3604  0.1951
18291TIP3    H276289   0.721   1.827  11.511 -0.7879  0.7473 -1.5529
18292TIP3   OH276290   1.631   5.958  14.883  0.0317  0.3487 -0.2819
18292TIP3    H176291   1.647   6.023  14.815 -0.0926  1.0875  0.3853
18292TIP3    H276292   1.717   5.919  14.900 -0.2106 -1.0427 -2.0363
18293TIP3   OH276293   5.558   3.479   0.449  0.3234  0.3124  0.5873
18293TIP3    H176294   5.548   3.522   0.534  1.2848  1.1556  0.2972
18293TIP3    H276295   5.499   3.404   0.452 -0.1908  0.7535  1.7215
18294TIP3   OH276296   0.070   4.224   2.833  0.2692 -0.3244 -0.2964
18294TIP3    H176297  -0.022   4.217   2.856  0.2478 -0.0166 -0.2804
18294TIP3    H276298   0.095   4.313   2.860  1.5241 -1.5806  3.1834
18295TIP3   OH276299   1.487   1.586  13.228 -0.0286  0.1763  0.0864
18295TIP3    H176300   1.498   1.679  13.248 -1.1908 -0.0282  1.9597
18295TIP3    H276301   1.393   1.575  13.216  0.0108 -0.8637  0.5891
18296TIP3   OH276302   4.573   5.042  13.448  0.0149 -0.0243  0.0439
18296TIP3    H176303   4.490   5.046  13.400 -1.1768  0.8535  2.0225
18296TIP3    H276304   4.633   5.096  13.396 -1.1064  0.5961 -0.6576
18297TIP3   OH276305   0.344   5.428  17.016  0.0413 -0.5034  0.1761
18297TIP3    H176306   0.271   5.412  16.956 -0.4624  1.5419  0.1768
18297TIP3    H276307   0.359   5.343  17.058 -2.1588 -1.0672 -0.0400
18298TIP3   OH276308   4.876   1.034   5.838 -0.6237  0.0621  0.0569
18298TIP3    H176309   4.794   1.046   5.887  0.1550 -1.1528  1.7642
18298TIP3    H276310   4.944   1.060   5.900  0.3071  1.6810 -1.5634
18299TIP3   OH276311   3.178   6.615  11.885 -0.1305  0.1109  1.0654
18299TIP3    H176312   3.126   6.685  11.925 -0.8873  0.0079  0.2781
18299TIP3    H276313   3.119   6.574  11.822  1.1016  0.3803 -0.2970
18300TIP3   OH276314   5.646   4.376  12.764  0.5062  0.0718  0.7555
18300TIP3    H176315   5.575   4.315  12.788  0.4498 -0.7415 -1.3420
18300TIP3    H276316   5.712   4.363  12.832  0.4016 -2.1911  0.4838
18301TIP3   OH276317   1.862   4.618   0.480 -0.8035 -0.1706 -0.0879
18301TIP3    H176318   1.831   4.676   0.550 -1.2781 -0.6760  0.1321
18301TIP3    H276319   1.920   4.672   0.427 -0.7217  0.3179  0.4963
18302TIP3   OH276320   5.901   4.591   3.311 -0.7047  0.6745  0.5718
18302TIP3    H176321   5.931   4.681   3.320  0.6052  0.2368  0.8553
18302TIP3    H276322   5.851   4.574   3.391  1.6806  0.2046  2.0370
18303TIP3   OH276323   3.334   6.756  14.267  0.2032 -0.1790  0.0569
18303TIP3    H176324   3.358   6.848  14.280  1.7354 -0.8152  2.3482
18303TIP3    H276325   3.241   6.753  14.286 -0.0390  0.9903 -0.7851
18304TIP3   OH276326   2.100   6.258  12.940 -0.6022  0.5187 -0.2486
18304TIP3    H176327   2.057   6.319  13.000  0.3564  1.3285 -0.3543
18304TIP3    H276328   2.032   6.197  12.915 -1.2201  0.6335  1.0594
18305TIP3   OH276329   2.283   2.633  14.376 -0.1449 -0.2484  0.0267
18305TIP3    H176330   2.274   2.639  14.281  0.5271  0.7590  0.0077
18305TIP3    H276331   2.219   2.696  14.410 -0.9903 -1.2114  0.2988
18306TIP3   OH276332   2.467   3.234  13.327 -0.3507  0.2938  0.2404
18306TIP3    H176333   2.389   3.245  13.383 -0.4865  1.5882 -0.1666
18306TIP3    H276334   2.446   3.283  13.248  0.4254 -0.3338 -0.3652
18307TIP3   OH276335   4.662   2.943  16.875 -0.1067  0.1826 -0.2612
18307TIP3    H176336   4.614   2.862  16.858 -0.0023 -0.0176  0.3710
18307TIP3    H276337   4.616   3.009  16.824  0.1287 -0.3687 -1.2211
18308TIP3   OH276338   0.165   2.419  12.536 -0.1222  0.3148  0.0735
18308TIP3    H176339   0.072   2.443  12.537 -0.6203 -1.3143 -1.5646
18308TIP3    H276340   0.188   2.412  12.629 -2.2939 -1.4620  0.5848
18309TIP3   OH276341   2.494   6.220   4.134 -0.3338  0.2176  0.7678
18309TIP3    H176342   2.449   6.298   4.101  0.5338  0.1147 -0.7531
18309TIP3    H276343   2.549   6.252   4.206  0.1387  1.0407  0.0501
18310TIP3   OH276344   4.240   4.585   4.511  0.0389  0.2524 -0.1614
18310TIP3    H176345   4.219   4.508   4.459 -1.0988 -0.8675  1.8144
18310TIP3    H276346   4.335   4.583   4.521  0.2143  0.1960 -1.6682
18311TIP3   OH276347   2.422   0.632  13.525 -0.0094  0.2161  0.3290
18311TIP3    H176348   2.493   0.633  13.589 -0.0684 -0.6264  0.4276
18311TIP3    H276349   2.357   0.572  13.563 -0.4042  0.3410 -0.1408
18312TIP3   OH276350   4.702   5.515  12.033 -0.0537  0.4718 -0.2952
18312TIP3    H176351   4.777   5.464  12.061 -0.0342  0.7741  0.2040
18312TIP3    H276352   4.695   5.497  11.939  0.8929  0.7661 -0.4368
18313TIP3   OH276353   0.540   2.912  10.914  0.0787 -0.1729 -0.1688
18313TIP3    H176354   0.620   2.919  10.863  1.6119  0.6355  2.1623
18313TIP3    H276355   0.542   2.823  10.950  0.5160  0.1974  0.7469
18314TIP3   OH276356   4.900   1.343   4.903  0.3250 -0.0018 -0.6564
18314TIP3    H176357   4.844   1.418   4.886  1.4027  0.6013 -1.6760
18314TIP3    H276358   4.876   1.314   4.991 -1.2334  0.5221 -0.8853
18315TIP3   OH276359   0.326   5.201   2.716  0.0375  0.1385 -0.1254
18315TIP3    H176360   0.265   5.259   2.670  0.1233 -1.2091 -2.0727
18315TIP3    H276361   0.387   5.260   2.760 -1.2404  1.5009 -0.0891
18316TIP3   OH276362   4.400   6.611  15.119  0.6366  0.4483 -0.5449
18316TIP3    H176363   4.352   6.541  15.163 -0.5969  1.0499 -0.9160
18316TIP3    H276364   4.449   6.566  15.050  0.5972 -0.1679 -0.1793
18317TIP3   OH276365   1.599   2.664   4.353 -0.1704  0.6060 -0.4831
18317TIP3    H176366   1.684   2.620   4.355 -0.6952 -0.4339  1.8086
18317TIP3    H276367   1.535   2.595   4.370 -1.2473  1.8057  0.5717
18318TIP3   OH276368   6.703   0.311  17.039  0.1270 -0.6344 -0.1130
18318TIP3    H176369   6.749   0.309  17.123 -0.2193  0.7019  0.1405
18318TIP3    H276370   6.754   0.373  16.986 -0.2363 -0.6820 -0.5207
18319TIP3   OH276371   5.028   3.908   3.781 -0.0153 -0.1714 -0.2420
18319TIP3    H176372   4.994   3.819   3.792  1.2097 -0.6032  0.1859
18319TIP3    H276373   5.023   3.924   3.687 -3.6064  0.7214 -0.0384
18320TIP3   OH276374   5.142   0.151  14.721 -1.2064  0.0987 -0.0716
18320TIP3    H176375   5.098   0.184  14.800  0.3804  1.3179  0.3530
18320TIP3    H276376   5.201   0.222  14.695 -0.0849 -1.1562 -1.0784
18321TIP3   OH276377   6.526   5.383  14.457 -0.1501 -0.2212  0.1577
18321TIP3    H176378   6.540   5.359  14.549 -1.9767 -1.1018  0.2623
18321TIP3    H276379   6.557   5.306  14.408  0.6718  0.1828  0.0245
18322TIP3   OH276380   1.187   3.545   0.903 -0.5275 -0.3658  0.3246
18322TIP3    H176381   1.281   3.534   0.916 -0.8434 -1.3179  2.0892
18322TIP3    H276382   1.173   3.523   0.811  1.1365  1.1056 -0.3267
18323TIP3   OH276383   2.658   1.180   1.663  0.0647 -0.4937 -0.5617
18323TIP3    H176384   2.660   1.207   1.755  1.3753  0.9740 -0.9824
18323TIP3    H276385   2.749   1.160   1.641  0.0557  0.7708 -1.9538
18324TIP3   OH276386   0.205   4.617   1.401  0.5294 -0.1449 -0.1399
18324TIP3    H176387   0.146   4.586   1.469 -1.1370 -0.5770 -1.6999
18324TIP3    H276388   0.249   4.539   1.368 -0.7537 -0.3682 -1.4108
18325TIP3   OH276389   5.375   0.668  13.813 -0.1251  0.1651 -0.4742
18325TIP3    H176390   5.302   0.694  13.869 -0.3033 -0.1530 -0.5561
18325TIP3    H276391   5.334   0.645  13.730  0.2291  1.6054 -1.0758
18326TIP3   OH276392   1.539   4.301  13.642 -0.4955 -0.0011  0.5312
18326TIP3    H176393   1.582   4.387  13.634 -0.0966 -0.0724  1.7869
18326TIP3    H276394   1.580   4.248  13.573 -0.3942  0.6670  0.0662
18327TIP3   OH276395   4.563   1.652   4.595  0.1964  0.0634 -0.3392
18327TIP3    H176396   4.492   1.666   4.532 -0.0954 -1.5626 -0.4027
18327TIP3    H276397   4.629   1.717   4.571 -1.5058  2.0901  0.1546
18328TIP3   OH276398   0.322   5.856  16.939  0.2766  0.4266  0.3403
18328TIP3    H176399   0.369   5.927  16.895  0.4953 -0.9994 -1.8685
18328TIP3    H276400   0.244   5.897  16.976  0.4361  1.8273 -0.8218
18329TIP3   OH276401   3.246   5.952   5.525  0.7198 -0.1492  0.3242
18329TIP3    H176402   3.188   6.000   5.585 -1.9317 -1.0564 -1.3340
18329TIP3    H276403   3.290   6.020   5.474 -0.1452  0.5802  0.5320
18330TIP3   OH276404   3.196   6.260   3.667  0.3407 -0.4690  0.2775
18330TIP3    H176405   3.235   6.180   3.702  0.4490 -0.5754 -0.0852
18330TIP3    H276406   3.192   6.246   3.573  4.1957  1.5810 -0.3904
18331TIP3   OH276407   5.674   1.231  16.514 -0.2706 -0.4857  0.0512
18331TIP3    H176408   5.753   1.193  16.477 -0.4295 -1.5293  0.7373
18331TIP3    H276409   5.605   1.168  16.494 -0.6997 -0.1678  0.4924
18332TIP3   OH276410   5.221   0.237  15.340 -0.1985  0.5563  0.0755
18332TIP3    H176411   5.127   0.221  15.334 -0.0640  0.3846 -3.6599
18332TIP3    H276412   5.260   0.149  15.342 -0.0486  0.6301  0.9043
18333TIP3   OH276413   1.741   2.399  11.163  0.5002  0.3644  0.3848
18333TIP3    H176414   1.695   2.465  11.111  1.2075  0.9467  0.4759
18333TIP3    H276415   1.682   2.324  11.165  0.1224  0.6187 -0.5899
18334TIP3   OH276416   1.872   1.632  13.881  0.5349 -0.2261 -0.5543
18334TIP3    H176417   1.953   1.593  13.849  0.9992 -0.3399  0.6862
18334TIP3    H276418   1.893   1.661  13.970 -0.8417 -0.4798 -0.1152
18335TIP3   OH276419   1.892   3.214  16.881 -0.6254  0.0589  0.4345
18335TIP3    H176420   1.927   3.127  16.902  3.2584  0.3685 -3.1957
18335TIP3    H276421   1.869   3.208  16.788 -3.3872  2.1672  0.8509
18336TIP3   OH276422   3.506   2.060   3.315  0.2863  0.0864  0.0680
18336TIP3    H176423   3.425   2.057   3.264  0.1111 -1.1305  0.4058
18336TIP3    H276424   3.523   1.969   3.339  1.0913  0.4857  1.0556
18337TIP3   OH276425   0.830   3.252   2.524 -0.1274  0.5050  0.3917
18337TIP3    H176426   0.748   3.270   2.570  1.8568  2.0767  3.6432
18337TIP3    H276427   0.831   3.314   2.451 -2.1868 -0.2029 -0.2934
18338TIP3   OH276428   6.645   5.581   1.061 -0.5441  0.2456  0.2064
18338TIP3    H176429   6.604   5.495   1.051  1.7660 -1.0166  0.7167
18338TIP3    H276430   6.653   5.614   0.972 -0.1881 -0.7363 -0.1422
18339TIP3   OH276431   2.050   3.409  15.814  0.2497 -0.1985  0.1559
18339TIP3    H176432   2.099   3.331  15.789  0.8915 -0.0910  1.0304
18339TIP3    H276433   2.067   3.471  15.743  1.0528 -0.3056  0.2464
18340TIP3   OH276434   6.026   4.828  11.039 -0.3348 -0.0307 -0.4783
18340TIP3    H176435   6.101   4.885  11.022 -0.3083 -0.0309 -0.3605
18340TIP3    H276436   6.064   4.740  11.042 -0.3270 -0.0213 -0.3239
18341TIP3   OH276437   0.565   6.258  11.835 -0.3419  0.2127 -0.4638
18341TIP3    H176438   0.646   6.309  11.825  2.4863 -3.4729  1.4613
18341TIP3    H276439   0.577   6.183  11.778 -2.3197 -0.5944  0.1082
18342TIP3   OH276440   6.753   3.698   3.912  0.0918  0.4018  0.1943
18342TIP3    H176441   6.836   3.706   3.864  0.1846  2.5861  0.6207
18342TIP3    H276442   6.700   3.771   3.879 -0.8144  0.3826  1.5545
18343TIP3   OH276443   2.001   2.137   0.487 -0.2062 -0.1611 -0.4815
18343TIP3    H176444   1.927   2.169   0.435  0.2229 -1.7735 -2.2522
18343TIP3    H276445   2.017   2.204   0.552 -1.5393  1.4676 -1.7519
18344TIP3   OH276446   0.787   6.428  11.650  0.3730 -0.1157 -0.1092
18344TIP3    H176447   0.818   6.338  11.659 -0.0904 -0.1152  2.1322
18344TIP3    H276448   0.813   6.454  11.562 -1.7891 -3.3091 -1.9114
18345TIP3   OH276449   1.242   4.934  14.680  0.1959 -0.2515 -0.3700
18345TIP3    H176450   1.194   4.954  14.760  0.2765 -2.7163  0.3926
18345TIP3    H276451   1.300   5.009  14.667 -1.4409  1.2486  0.5573
18346TIP3   OH276452   2.010   3.443   1.822  0.2682  0.0296  0.1747
18346TIP3    H176453   1.990   3.371   1.763 -0.5331  0.4908 -0.1329
18346TIP3    H276454   1.985   3.412   1.909 -2.1392  0.6746 -0.2177
18347TIP3   OH276455   6.679   1.490  15.782  0.1738 -0.0030  0.0233
18347TIP3    H176456   6.661   1.479  15.689 -0.5251 -0.4349  0.2027
18347TIP3    H276457   6.774   1.480  15.790  0.2280 -0.0419 -0.6269
18348TIP3   OH276458   0.669   5.643  13.059  0.4262 -0.0002 -0.5572
18348TIP3    H176459   0.614   5.684  13.126  1.9777  0.2602  0.6100
18348TIP3    H276460   0.618   5.568  13.029 -1.4153  1.3477 -0.9902
18349TIP3   OH276461   6.042   1.610   4.468 -0.1906  0.1544 -0.4771
18349TIP3    H176462   5.966   1.588   4.414  1.3092 -0.5550 -2.4443
18349TIP3    H276463   6.116   1.568   4.423  1.1936 -0.3826  2.1222
18350TIP3   OH276464   5.358   2.057  14.258  0.2738  0.1367  0.4301
18350TIP3    H176465   5.396   2.141  14.285 -0.0103  0.1914  0.6789
18350TIP3    H276466   5.331   2.016  14.341  0.8619 -0.4231  0.3517
18351TIP3   OH276467   2.100   1.091   0.059  0.2959  0.5909  0.4995
18351TIP3    H176468   2.074   1.146  -0.015 -0.1358 -0.8210 -0.4413
18351TIP3    H276469   2.020   1.083   0.112  0.1386  0.2221  0.2085
18352TIP3   OH276470   5.458   1.964   3.054 -0.2323  0.2161 -0.4756
18352TIP3    H176471   5.541   1.920   3.033  0.5181  0.5619  1.5737
18352TIP3    H276472   5.476   2.057   3.039 -0.7125  0.1720 -1.3841
18353TIP3   OH276473   2.363   0.332   3.696 -0.3072  0.3256 -0.2481
18353TIP3    H176474   2.379   0.245   3.661  1.5836  0.2419  0.6526
18353TIP3    H276475   2.391   0.391   3.626 -0.7690  0.2031 -0.5371
18354TIP3   OH276476   2.455   0.600   4.266 -0.4447 -0.3477 -0.5381
18354TIP3    H176477   2.380   0.546   4.292  0.3200 -1.3800 -0.3981
18354TIP3    H276478   2.520   0.536   4.236 -0.7278  0.6550 -3.6594
18355TIP3   OH276479   1.620   2.436  15.635 -0.5461  0.0580  0.1420
18355TIP3    H176480   1.714   2.440  15.621 -0.6522 -0.5395 -0.8305
18355TIP3    H276481   1.583   2.496  15.570 -0.8682 -0.1284  0.1507
18356TIP3   OH276482   5.790   6.684  14.819  0.4374 -0.2308 -0.1486
18356TIP3    H176483   5.825   6.733  14.744  0.8346 -0.5870 -0.1999
18356TIP3    H276484   5.776   6.595  14.786  0.0984 -0.2558  0.0543
18357TIP3   OH276485   5.853   4.879   0.654  0.2287  0.0453  0.5714
18357TIP3    H176486   5.794   4.807   0.678 -1.1019  0.8591 -0.1170
18357TIP3    H276487   5.815   4.956   0.698  1.3651  0.4182  0.9221
18358TIP3   OH276488   2.711   0.158  14.717 -0.4290 -0.0898 -0.0197
18358TIP3    H176489   2.677   0.236  14.760 -1.1791  0.7622 -2.0415
18358TIP3    H276490   2.660   0.086  14.753 -1.8312  0.7310 -0.2790
18359TIP3   OH276491   6.539   6.786   2.418  0.4077  0.3570  0.6948
18359TIP3    H176492   6.631   6.796   2.393  0.1785 -0.1400 -0.4060
18359TIP3    H276493   6.502   6.874   2.404  0.0618 -0.0981 -1.8247
18360TIP3   OH276494   1.506   3.692   5.759  0.5312  0.0654  0.1781
18360TIP3    H176495   1.585   3.659   5.715 -0.1226 -0.8630 -0.3516
18360TIP3    H276496   1.527   3.782   5.782  1.6615 -0.0919 -0.1608
18361TIP3   OH276497   0.275   4.655  16.132 -0.1780 -0.6345  0.2816
18361TIP3    H176498   0.225   4.732  16.159 -0.4024 -0.7762  0.2694
18361TIP3    H276499   0.339   4.642  16.203  0.0043 -0.3081  0.1763
18362TIP3   OH276500   0.338   4.983   3.601 -0.1931 -0.3809 -0.2427
18362TIP3    H176501   0.428   4.955   3.617  0.2155 -0.2950 -2.1877
18362TIP3    H276502   0.292   4.904   3.575 -0.8418 -0.5223  1.2417
18363TIP3   OH276503   2.860   4.357   4.374 -0.3460 -0.0208  0.4286
18363TIP3    H176504   2.871   4.263   4.363  2.5361  0.0672  1.6605
18363TIP3    H276505   2.905   4.395   4.298 -0.7227  0.3767  0.3994
18364TIP3   OH276506   3.376   4.741  17.082 -0.9986  0.2747 -0.2560
18364TIP3    H176507   3.446   4.800  17.109 -1.4713  1.5131 -1.6618
18364TIP3    H276508   3.312   4.747  17.153  0.3196 -1.0226  1.1527
18365TIP3   OH276509   4.260   5.269  15.193  0.2129  0.6372  0.1923
18365TIP3    H176510   4.217   5.350  15.164  1.2426  0.9701 -0.4325
18365TIP3    H276511   4.341   5.265  15.142 -0.2606 -1.2905 -0.4795
18366TIP3   OH276512   4.141   1.756  10.585  0.0964 -0.4575  0.0927
18366TIP3    H176513   4.164   1.824  10.647 -0.1853 -0.9583  0.7553
18366TIP3    H276514   4.163   1.674  10.629  0.7852 -0.7881 -0.8417
18367TIP3   OH276515   1.232   1.345   4.611  0.1806  0.7482 -0.2442
18367TIP3    H176516   1.197   1.285   4.677  0.7227  1.7037  0.9730
18367TIP3    H276517   1.327   1.340   4.622  0.2339  2.6275  0.7282
18368TIP3   OH276518   3.583   6.672   0.837  0.3863  0.2841 -0.0734
18368TIP3    H176519   3.537   6.752   0.812  1.8861  1.0461 -0.5649
18368TIP3    H276520   3.605   6.685   0.929 -0.6264 -0.2256  0.2542
18369TIP3   OH276521   2.672   1.653  17.172  0.1419 -0.1876  0.1677
18369TIP3    H176522   2.716   1.736  17.190  1.0775 -0.7340  0.4588
18369TIP3    H276523   2.729   1.587  17.210 -1.5070 -0.8658  1.6181
18370TIP3   OH276524   1.076   6.380  11.701 -0.6730 -0.1065  0.3348
18370TIP3    H176525   1.087   6.470  11.671  0.0815 -0.0592  0.7408
18370TIP3    H276526   1.161   6.356  11.738 -0.6512 -1.2204 -0.3791
18371TIP3   OH276527   3.074   5.177   1.477  0.1817  0.0504 -0.1267
18371TIP3    H176528   3.089   5.113   1.408  0.5180  0.2762 -0.2647
18371TIP3    H276529   2.993   5.221   1.452  0.3688  0.2147 -0.4394
18372TIP3   OH276530   2.586   1.300   3.233 -0.0112  0.1325  0.5432
18372TIP3    H176531   2.591   1.352   3.313  1.2078 -0.8629  1.1557
18372TIP3    H276532   2.507   1.332   3.189 -0.8316  0.5739  2.2232
18373TIP3   OH276533   6.112   5.242   5.164  0.0459  0.5360  0.0109
18373TIP3    H176534   6.156   5.161   5.188  0.0777  1.0079  1.6234
18373TIP3    H276535   6.113   5.296   5.243 -2.2785  1.0725 -0.2323
18374TIP3   OH276536   5.082   4.036   0.268  0.1981 -0.4889 -0.4469
18374TIP3    H176537   5.025   4.077   0.333 -0.5166 -0.8642 -0.8250
18374TIP3    H276538   5.076   4.093   0.191  1.7231  0.4324  0.0757
18375TIP3   OH276539   4.187   3.094   4.762 -0.3495  0.2850 -0.2086
18375TIP3    H176540   4.246   3.047   4.822  0.6294  1.1777 -0.4490
18375TIP3    H276541   4.112   3.036   4.753 -0.0663 -0.3227  1.0922
18376TIP3   OH276542   4.345   1.709  11.637 -0.0609  0.3944  0.3347
18376TIP3    H176543   4.386   1.791  11.665  0.0811  0.5191 -0.2242
18376TIP3    H276544   4.419   1.648  11.626  0.1037  0.8609 -1.5073
18377TIP3   OH276545   4.317   0.104   2.725  0.7811 -0.2358  0.8690
18377TIP3    H176546   4.270   0.080   2.645  1.4105  2.3089 -0.3700
18377TIP3    H276547   4.307   0.028   2.782 -3.3522 -0.5339  0.0473
18378TIP3   OH276548   4.407   0.196   4.200 -0.0229  0.0619 -0.0043
18378TIP3    H176549   4.419   0.178   4.106 -0.3500 -0.4131  0.0390
18378TIP3    H276550   4.367   0.283   4.203  0.0897  0.1247 -0.3037
18379TIP3   OH276551   0.087   3.416   0.018  0.4268 -0.4250  0.4275
18379TIP3    H176552  -0.000   3.440   0.048  0.2035 -0.1997 -0.3581
18379TIP3    H276553   0.128   3.374   0.093 -0.2529 -0.2658  0.8978
18380TIP3   OH276554   6.134   5.402  11.779  0.3692 -0.1973 -0.3244
18380TIP3    H176555   6.197   5.471  11.758 -0.5176  0.4298 -0.9674
18380TIP3    H276556   6.163   5.327  11.727  1.2189 -0.2695  0.2212
18381TIP3   OH276557   0.075   6.485   2.612  0.0208 -0.0078 -0.0080
18381TIP3    H176558   0.049   6.556   2.671 -0.5327 -1.2922  1.3716
18381TIP3    H276559   0.086   6.527   2.527  0.5143  1.8636  0.9253
18382TIP3   OH276560   0.912   1.954   2.920  0.5724  0.2819 -0.1220
18382TIP3    H176561   0.860   2.029   2.892  2.6962  0.8500 -2.9826
18382TIP3    H276562   0.938   1.974   3.010 -0.8938  1.7479  0.0247
18383TIP3   OH276563   4.351   5.417  15.426 -0.5975 -0.1791  0.0878
18383TIP3    H176564   4.277   5.385  15.375  0.0563 -3.0378  0.7358
18383TIP3    H276565   4.312   5.474  15.492 -1.9307  0.1367 -0.9354
18384TIP3   OH276566   5.172   3.583   4.044  0.6846  0.3336  0.2805
18384TIP3    H176567   5.145   3.492   4.034 -0.0072  0.5323  0.3162
18384TIP3    H276568   5.200   3.590   4.136 -0.0406  0.3532  0.5072
18385TIP3   OH276569   4.384   6.741  12.608 -0.4025 -0.0943  0.0531
18385TIP3    H176570   4.400   6.817  12.664  0.3045 -1.5844  1.9944
18385TIP3    H276571   4.345   6.676  12.667 -0.3260 -1.4935 -1.3762
18386TIP3   OH276572   6.092   4.359   2.405  0.1314  0.2201 -0.0567
18386TIP3    H176573   6.161   4.294   2.396 -0.1184 -0.1208  0.4403
18386TIP3    H276574   6.011   4.308   2.406 -0.2083  0.6619 -1.4457
18387TIP3   OH276575   0.077   4.356  11.535 -0.0489 -0.0417  0.5756
18387TIP3    H176576   0.035   4.300  11.470  0.1740  1.0263 -0.5323
18387TIP3    H276577   0.022   4.435  11.538 -0.3912 -0.3055  2.1391
18388TIP3   OH276578   3.191   0.841  14.688 -0.6271  0.8544 -0.2474
18388TIP3    H176579   3.260   0.886  14.638  0.6045 -0.7480 -0.0814
18388TIP3    H276580   3.236   0.807  14.765 -1.4195 -0.8356 -0.4760
18389TIP3   OH276581   3.943   0.691   1.161  0.6925 -0.0558 -0.0709
18389TIP3    H176582   3.945   0.670   1.254  1.1435  0.4764  0.0423
18389TIP3    H276583   3.919   0.608   1.118  3.2436 -1.0709  0.2846
18390TIP3   OH276584   1.466   1.741   2.861 -0.5639 -0.2932 -0.7204
18390TIP3    H176585   1.510   1.678   2.917 -0.9333 -1.5375 -1.7808
18390TIP3    H276586   1.394   1.775   2.915  0.3309  0.1232  0.2534
18391TIP3   OH276587   6.185   5.713  15.688  0.2365  0.2769  0.2495
18391TIP3    H176588   6.155   5.788  15.739 -1.4619 -0.1381 -0.0818
18391TIP3    H276589   6.112   5.692  15.630 -0.1136 -2.7483  1.5902
18392TIP3   OH276590   6.145   6.497   2.228  0.3132 -0.7264 -0.2298
18392TIP3    H176591   6.204   6.565   2.196  1.6199 -2.1924 -1.0340
18392TIP3    H276592   6.165   6.489   2.321 -1.2415  1.3015  0.3622
18393TIP3   OH276593   2.978   5.020   4.741  0.1908  0.5443 -0.1166
18393TIP3    H176594   2.924   5.076   4.686 -1.6132  0.1173  1.1429
18393TIP3    H276595   2.957   4.931   4.713 -0.7186  0.3251  1.1897
18394TIP3   OH276596   1.871   1.391   3.823 -0.1240 -0.0084  0.3155
18394TIP3    H176597   1.860   1.298   3.803 -1.1419 -0.1123  1.2211
18394TIP3    H276598   1.917   1.392   3.907 -1.4769  0.2328  1.0967
18395TIP3   OH276599   2.066   4.405   0.579 -0.1878  0.0241  0.1534
18395TIP3    H176600   2.038   4.327   0.531 -1.3391 -0.4452  1.5090
18395TIP3    H276601   1.986   4.456   0.591  0.3222  0.7845  0.4144
18396TIP3   OH276602   2.105   2.110  13.297 -0.1245 -0.2703 -0.0386
18396TIP3    H176603   2.136   2.119  13.207 -0.0778  1.1485  0.1005
18396TIP3    H276604   2.182   2.087  13.348  0.6392  2.4471  0.1768
18397TIP3   OH276605   3.300   3.752   4.262 -0.4716  0.2983  0.7064
18397TIP3    H176606   3.249   3.724   4.187  3.4145 -1.5999 -1.5327
18397TIP3    H276607   3.310   3.674   4.316  0.4056  0.4673  0.8200
18398TIP3   OH276608   1.163   2.919   1.232 -0.5381  0.7704  0.3396
18398TIP3    H176609   1.114   2.836   1.226 -0.3857  0.6752  0.4079
18398TIP3    H276610   1.155   2.944   1.324 -0.4360  0.7396  0.3574
18399TIP3   OH276611   3.481   2.038  12.105  0.3106 -0.4538 -0.4151
18399TIP3    H176612   3.389   2.013  12.111  0.5600 -1.6022 -1.2915
18399TIP3    H276613   3.511   2.004  12.021  1.6746 -0.5349  0.0769
18400TIP3   OH276614   0.519   2.785  16.677 -0.2681 -0.6311  0.1497
18400TIP3    H176615   0.530   2.827  16.762  1.7387  1.0841 -0.8488
18400TIP3    H276616   0.604   2.745  16.659  0.2332  1.1841 -2.0450
18401TIP3   OH276617   2.497   4.387   5.268  0.5826  0.8064  0.5428
18401TIP3    H176618   2.585   4.379   5.230  0.5457  0.3171  0.5550
18401TIP3    H276619   2.456   4.457   5.218 -0.7167 -2.0739 -2.8271
18402TIP3   OH276620   2.522   4.406  15.532 -0.2172 -0.5436  0.0741
18402TIP3    H176621   2.590   4.376  15.591  0.3265  1.1180  0.3518
18402TIP3    H276622   2.569   4.450  15.461 -0.9721  0.0985 -0.0475
18403TIP3   OH276623   1.747   6.172  13.079 -0.3022 -0.1279  0.1151
18403TIP3    H176624   1.681   6.105  13.065 -0.6750 -0.1476  1.7080
18403TIP3    H276625   1.718   6.246  13.026  0.2931 -1.2992 -1.9206
18404TIP3   OH276626   0.989   2.410  15.434  0.5054  0.3591  0.5840
18404TIP3    H176627   1.021   2.498  15.414 -0.9660  1.3659  2.3561
18404TIP3    H276628   1.051   2.352  15.390  2.1197  2.2436  0.2091
18405TIP3   OH276629   3.747   3.505   3.174  0.0286  0.1091 -0.6416
18405TIP3    H176630   3.813   3.570   3.150  0.8851 -0.3114  0.4962
18405TIP3    H276631   3.736   3.516   3.269 -1.0219 -0.3048 -0.7080
18406TIP3   OH276632   6.444   4.511  17.114 -0.2090 -0.1322  0.6602
18406TIP3    H176633   6.376   4.452  17.144 -0.5962  0.0103  0.0825
18406TIP3    H276634   6.419   4.534  17.025 -0.6950  1.8097  1.2427
18407TIP3   OH276635   0.449   6.019   6.328 -0.4481  0.0244 -0.3474
18407TIP3    H176636   0.540   6.019   6.358 -0.2915  0.6865 -0.8159
18407TIP3    H276637   0.416   6.106   6.349 -0.7391  0.0478 -0.8785
18408TIP3   OH276638   1.914   3.317   3.253 -0.0171 -0.4773 -0.1041
18408TIP3    H176639   1.870   3.304   3.337 -1.5541 -2.8151 -1.1681
18408TIP3    H276640   1.990   3.259   3.257  0.5793  0.3101  0.1055
18409TIP3   OH276641   4.936   4.853   3.936  0.3534  0.1434  0.4827
18409TIP3    H176642   4.874   4.811   3.876  1.0994 -0.9429  0.4379
18409TIP3    H276643   4.896   4.937   3.958  0.0923  0.6211 -1.6127
18410TIP3   OH276644   6.172   4.177  13.216  0.1543 -0.0858  0.2451
18410TIP3    H176645   6.185   4.120  13.140 -0.7822  1.4749 -1.1663
18410TIP3    H276646   6.259   4.210  13.237  0.5145 -1.0410  0.2845
18411TIP3   OH276647   5.090   6.524  15.109 -0.5522 -0.5634 -0.1084
18411TIP3    H176648   5.155   6.462  15.077 -1.1522 -1.2785  0.0215
18411TIP3    H276649   5.086   6.509  15.203  1.4311  1.7473  0.4411
18412TIP3   OH276650   5.448   3.150   2.711  0.0984 -0.2535 -0.8058
18412TIP3    H176651   5.513   3.221   2.713  1.7853 -1.7519  0.8312
18412TIP3    H276652   5.497   3.075   2.679 -0.7438 -1.4930  0.7059
18413TIP3   OH276653   2.430   2.909   2.935 -0.3653  0.4660 -0.2336
18413TIP3    H176654   2.373   2.862   2.875  0.5985  0.5151 -1.2035
18413TIP3    H276655   2.515   2.865   2.929 -0.4811 -0.1684  1.8582
18414TIP3   OH276656   0.910   4.484   3.539  0.1518  0.7503  0.0202
18414TIP3    H176657   0.946   4.432   3.611  0.4328  2.5146  1.2130
18414TIP3    H276658   0.825   4.443   3.521 -0.2366  0.6568  1.8360
18415TIP3   OH276659   4.217   4.433  12.478  0.4228  0.1071  0.4887
18415TIP3    H176660   4.121   4.437  12.478  0.4478  1.1973  1.2047
18415TIP3    H276661   4.244   4.519  12.444  1.1533 -0.0299  0.7143
18416TIP3   OH276662   1.114   4.550   5.470  0.4484  0.0054  0.1998
18416TIP3    H176663   1.071   4.559   5.556  1.4936 -1.0559  0.8617
18416TIP3    H276664   1.163   4.632   5.460  1.2192 -0.3072  1.1611
18417TIP3   OH276665   6.467   2.290  13.232 -0.0089  0.0862  0.1841
18417TIP3    H176666   6.525   2.235  13.180  0.2976 -1.3072  1.8946
18417TIP3    H276667   6.526   2.346  13.283 -0.2682  0.6906 -0.1667
18418TIP3   OH276668   0.247   1.617  17.171  0.1713  0.0375 -0.4956
18418TIP3    H176669   0.177   1.552  17.164  0.9763 -0.9535  0.3438
18418TIP3    H276670   0.328   1.567  17.159  0.7587  1.1695 -1.5004
18419TIP3   OH276671   0.246   5.482   4.147 -0.0285  0.0144  0.5481
18419TIP3    H176672   0.184   5.448   4.211 -2.1917 -1.4151 -2.1051
18419TIP3    H276673   0.193   5.505   4.071  2.5235  0.2657 -1.3206
18420TIP3   OH276674   2.055   5.403  12.655  0.1285  0.0201 -0.5728
18420TIP3    H176675   2.064   5.436  12.566 -0.0690  1.7880  0.0314
18420TIP3    H276676   2.136   5.353  12.670 -0.0213 -0.6499 -1.8546
18421TIP3   OH276677   3.375   0.809  14.937  0.3309 -0.0694  0.3475
18421TIP3    H176678   3.466   0.839  14.938  0.5465 -0.5996 -0.9554
18421TIP3    H276679   3.323   0.890  14.944  0.8724  0.1641  2.0173
18422TIP3   OH276680   4.340   4.472   2.093  0.1555 -0.0535 -0.1119
18422TIP3    H176681   4.283   4.459   2.169  0.5554 -1.0889  0.0204
18422TIP3    H276682   4.422   4.429   2.118  0.5795  0.3462 -0.7969
18423TIP3   OH276683   0.742   6.368   3.749  0.8594  0.4762  0.2129
18423TIP3    H176684   0.735   6.273   3.744  2.5388  0.2313  1.6342
18423TIP3    H276685   0.679   6.394   3.816  1.2112  0.2282  0.6418
18424TIP3   OH276686   0.120   3.155  11.561  0.0093  0.8792 -0.1832
18424TIP3    H176687   0.149   3.245  11.553  2.1755  0.0894 -2.0099
18424TIP3    H276688   0.200   3.105  11.577 -0.8431 -0.9586 -1.3584
18425TIP3   OH276689   4.396   3.722  12.915 -0.1913 -1.0882  0.1623
18425TIP3    H176690   4.377   3.628  12.915 -1.3974 -0.8659 -0.3009
18425TIP3    H276691   4.376   3.751  12.826 -0.0049 -0.3575  0.3493
18426TIP3   OH276692   6.011   0.179  15.193  0.1297  0.1118 -0.0520
18426TIP3    H176693   6.002   0.181  15.288 -0.5406 -1.5575 -0.0333
18426TIP3    H276694   5.965   0.257  15.162 -2.5766 -1.0163  0.8516
18427TIP3   OH276695   6.158   1.692  14.236  0.5868 -0.1479  0.4988
18427TIP3    H176696   6.217   1.629  14.194  3.0385  0.3506  2.9360
18427TIP3    H276697   6.097   1.639  14.286 -2.0239 -0.7273 -2.9438
18428TIP3   OH276698   1.273   0.491  12.251  0.3973 -0.7167  0.4860
18428TIP3    H176699   1.192   0.497  12.302  0.3966 -1.9939  0.6718
18428TIP3    H276700   1.262   0.413  12.197  0.2766  0.7728 -1.7588
18429TIP3   OH276701   6.057   5.125   3.902  0.3680 -0.2033 -0.0148
18429TIP3    H176702   6.137   5.072   3.907  0.0353 -0.7786 -0.7257
18429TIP3    H276703   6.065   5.185   3.976  0.4646 -1.6557  1.2073
18430TIP3   OH276704   4.489   0.926  14.840 -0.2963 -0.4546 -0.2101
18430TIP3    H176705   4.504   1.005  14.788  1.2466 -1.0896 -0.7810
18430TIP3    H276706   4.417   0.950  14.899  0.4069  1.5341 -0.0560
18431TIP3   OH276707   6.012   3.304  10.636 -0.5204 -0.4303 -0.2388
18431TIP3    H176708   6.039   3.268  10.552  0.4177 -0.0321 -0.1223
18431TIP3    H276709   6.092   3.341  10.673 -1.1626  0.4809  0.2910
18432TIP3   OH276710   6.360   0.141   4.191  0.3115 -0.0741  0.1196
18432TIP3    H176711   6.308   0.219   4.209 -2.0709 -1.5068 -0.1072
18432TIP3    H276712   6.318   0.102   4.113  3.5024  0.1437 -1.8669
18433TIP3   OH276713   4.392   0.180  13.706 -0.4635  0.6661 -0.8193
18433TIP3    H176714   4.459   0.223  13.759 -0.5032  2.5258 -2.1870
18433TIP3    H276715   4.438   0.105  13.667  0.2163  0.6848 -0.0782
18434TIP3   OH276716   5.820   5.382  11.040 -0.3901 -0.1431 -0.1692
18434TIP3    H176717   5.836   5.340  10.955  0.2169 -0.4290  0.0802
18434TIP3    H276718   5.769   5.460  11.019 -1.3331 -0.8579 -0.6733
18435TIP3   OH276719   3.688   6.580  16.042  0.5661 -0.6227 -0.7496
18435TIP3    H176720   3.631   6.647  16.079  3.2712  2.4205 -1.6208
18435TIP3    H276721   3.694   6.512  16.109 -0.4489  1.1603  1.2436
18436TIP3   OH276722   5.241   1.566   1.946  0.5623 -0.3705  0.4134
18436TIP3    H176723   5.215   1.658   1.950 -0.2491 -0.5750 -0.0972
18436TIP3    H276724   5.332   1.566   1.978  0.0819  0.3973  1.8603
18437TIP3   OH276725   5.493   5.188  13.944  0.3892  0.2179 -0.1638
18437TIP3    H176726   5.539   5.209  13.863 -0.8627 -1.0672 -1.2651
18437TIP3    H276727   5.436   5.115  13.921  0.0659 -0.2542  1.9166
18438TIP3   OH276728   1.011   4.597  14.078 -0.3761 -0.0775 -0.0419
18438TIP3    H176729   1.017   4.501  14.082  1.2305 -0.1443 -2.4905
18438TIP3    H276730   1.015   4.618  13.985 -0.5317  2.4211  0.4384
18439TIP3   OH276731   6.272   6.070   3.563  0.1238  0.0497  0.6216
18439TIP3    H176732   6.205   6.025   3.613 -1.4192  1.5862  0.0597
18439TIP3    H276733   6.251   6.163   3.573  0.2686  0.4581 -2.0862
18440TIP3   OH276734   1.317   2.569  16.013 -0.5581  0.0591  0.1404
18440TIP3    H176735   1.362   2.493  15.976 -0.3415  0.3286 -0.1566
18440TIP3    H276736   1.359   2.582  16.098 -0.4662 -0.0385  0.1107
18441TIP3   OH276737   4.675   4.811  11.348  0.2723 -0.1388 -0.6232
18441TIP3    H176738   4.748   4.760  11.312 -1.1584 -0.8657 -2.6837
18441TIP3    H276739   4.675   4.892  11.296 -0.7697 -0.4464 -1.1290
18442TIP3   OH276740   1.309   4.065  14.028 -0.2212 -0.1942  0.4554
18442TIP3    H176741   1.385   4.011  14.006  1.0006  0.7756  2.0045
18442TIP3    H276742   1.329   4.151  13.992 -0.6600  0.0274  0.7276
18443TIP3   OH276743   5.688   1.123  15.159  0.0092 -0.1550 -0.0349
18443TIP3    H176744   5.766   1.161  15.201 -1.6797  2.0571  1.3296
18443TIP3    H276745   5.695   1.029  15.176  0.8757  0.3229  2.7475
18444TIP3   OH276746   1.040   6.750   1.656  0.2371 -0.2876  0.5483
18444TIP3    H176747   0.981   6.826   1.655  0.1972 -0.3103 -1.2027
18444TIP3    H276748   1.009   6.697   1.729 -2.7003 -0.8625 -0.9661
18445TIP3   OH276749   4.966   4.724   2.119  0.0919 -0.3240  0.0252
18445TIP3    H176750   4.958   4.812   2.083  0.2859 -0.5335 -0.5395
18445TIP3    H276751   5.052   4.723   2.161  0.0367 -0.2059  0.1424
18446TIP3   OH276752   2.244   2.761   0.322  0.4730  0.4072 -0.5681
18446TIP3    H176753   2.192   2.723   0.251  1.2217 -0.8833 -0.4717
18446TIP3    H276754   2.180   2.803   0.379 -0.9445 -3.3317  0.9435
18447TIP3   OH276755   5.845   1.911   6.027  0.0185  0.6984 -0.1807
18447TIP3    H176756   5.933   1.898   5.993 -0.1118  1.4920 -0.8587
18447TIP3    H276757   5.848   1.998   6.069 -0.6521  1.1135 -0.9599
18448TIP3   OH276758   1.518   3.840  16.200 -0.2059  0.5411 -0.0610
18448TIP3    H176759   1.483   3.830  16.289 -1.3361  1.0298 -0.4379
18448TIP3    H276760   1.613   3.844  16.212 -0.2459 -0.8677  0.9863
18449TIP3   OH276761   0.044   3.448  12.191 -0.0381  0.0685 -0.1946
18449TIP3    H176762  -0.041   3.427  12.153 -0.0264  1.9979 -1.4774
18449TIP3    H276763   0.104   3.448  12.116  0.6351  0.8688  0.3167
18450TIP3   OH276764   6.167   6.511  13.743 -0.8510 -0.1474  0.2501
18450TIP3    H176765   6.180   6.540  13.833 -2.2009 -1.4472  0.8890
18450TIP3    H276766   6.176   6.416  13.746  0.8098 -0.0935 -1.3205
18451TIP3   OH276767   0.960   1.211   5.205  0.9533 -0.0553 -0.0716
18451TIP3    H176768   1.029   1.200   5.270  0.8714  0.4148  0.1022
18451TIP3    H276769   0.886   1.162   5.240  0.6582  0.8317  0.5821
18452TIP3   OH276770   5.497   3.348   5.514  0.0677  0.1390  0.2906
18452TIP3    H176771   5.577   3.303   5.486  0.4758  2.5491 -3.1037
18452TIP3    H276772   5.527   3.432   5.549 -0.9099  0.9788 -0.8099
18453TIP3   OH276773   4.456   5.734  16.064  0.3046  0.3664  0.3866
18453TIP3    H176774   4.491   5.779  15.987 -0.5554  0.1344 -0.1543
18453TIP3    H276775   4.478   5.642  16.050 -1.8035 -0.0275 -0.7358
18454TIP3   OH276776   1.073   6.322   3.756  1.1758  0.1676 -0.2022
18454TIP3    H176777   0.999   6.382   3.757  1.0392 -0.0034  0.0857
18454TIP3    H276778   1.129   6.354   3.686  0.5935  0.0156 -0.7501
18455TIP3   OH276779   4.363   5.039  15.573  0.7770  0.5145  0.2650
18455TIP3    H176780   4.391   5.130  15.576  0.3542  0.6376  2.0418
18455TIP3    H276781   4.359   5.013  15.665 -4.1546  0.2913  0.2024
18456TIP3   OH276782   3.763   4.290  12.352  0.1723 -0.1255 -0.3066
18456TIP3    H176783   3.768   4.264  12.260  0.6179  0.2995 -0.4080
18456TIP3    H276784   3.670   4.306  12.367 -0.1105 -1.5982 -0.2808
18457TIP3   OH276785   5.675   5.665  16.199  0.0451 -0.5007 -0.1229
18457TIP3    H176786   5.684   5.739  16.259  0.9507 -0.1205 -0.6994
18457TIP3    H276787   5.629   5.598  16.249  1.3899 -0.4606  1.2463
18458TIP3   OH276788   4.692   5.477   1.945 -0.0347 -0.1885 -0.3272
18458TIP3    H176789   4.668   5.503   1.856 -0.4948 -1.5692 -0.6332
18458TIP3    H276790   4.616   5.427   1.976  0.3076 -0.1040  0.6821
18459TIP3   OH276791   5.463   2.879  12.125 -0.5667  0.1046  0.5388
18459TIP3    H176792   5.503   2.792  12.133  2.2128  1.2966  0.7168
18459TIP3    H276793   5.402   2.870  12.052  0.6973 -1.6661 -0.3804
18460TIP3   OH276794   0.365   6.747  15.716 -0.6445  0.0961 -0.2765
18460TIP3    H176795   0.295   6.761  15.780 -0.8102 -0.9995 -0.1958
18460TIP3    H276796   0.330   6.780  15.634 -0.6748  0.9267  0.0652
18461TIP3   OH276797   3.418   2.554   0.421  0.2813  0.4896 -0.1690
18461TIP3    H176798   3.494   2.582   0.471  0.9763  0.0596 -0.9558
18461TIP3    H276799   3.418   2.610   0.343 -0.0246  0.2705 -0.3297
18462TIP3   OH276800   5.462   6.337  13.778  0.1923  0.3426 -0.2455
18462TIP3    H176801   5.462   6.253  13.731 -0.9169  0.0049  0.3146
18462TIP3    H276802   5.459   6.403  13.709  1.4979 -0.0515 -0.7067
18463TIP3   OH276803   6.679   3.145  12.166 -0.1454  0.1632  0.0842
18463TIP3    H176804   6.654   3.080  12.101 -0.6249 -0.2503  0.6671
18463TIP3    H276805   6.739   3.099  12.224 -0.2613  0.3227  0.3329
18464TIP3   OH276806   1.411   6.610  11.576 -0.2472  0.2486  0.1724
18464TIP3    H176807   1.385   6.587  11.665  0.2373 -0.3636  0.1640
18464TIP3    H276808   1.342   6.669  11.545 -1.8011 -1.5649  0.0197
18465TIP3   OH276809   1.002   5.613  14.974 -0.6626  0.0038  0.4215
18465TIP3    H176810   1.068   5.623  14.905 -0.4826 -0.5704  0.5026
18465TIP3    H276811   1.040   5.658  15.050 -0.6282  0.1866  0.2961
18466TIP3   OH276812   0.081   4.327  11.160  0.1339  0.1870 -0.0113
18466TIP3    H176813   0.129   4.269  11.218 -1.6594  0.3171  1.6817
18466TIP3    H276814   0.142   4.345  11.088  1.2778 -2.5251  0.1763
18467TIP3   OH276815   4.210   6.034  14.061 -0.5903 -0.1741 -0.7329
18467TIP3    H176816   4.270   5.973  14.103 -3.2314 -1.3159  1.8261
18467TIP3    H276817   4.127   6.022  14.109 -2.1576  3.0986 -2.2789
18468TIP3   OH276818   0.981   4.194  16.936 -0.2681  0.0712 -0.0986
18468TIP3    H176819   0.957   4.191  17.028 -0.9006 -1.1641 -0.2781
18468TIP3    H276820   1.038   4.118  16.923 -1.1279 -0.4567 -0.9579
18469TIP3   OH276821   3.634   3.486   2.015 -0.0977 -0.1359 -0.6771
18469TIP3    H176822   3.712   3.475   1.960  0.0558 -1.1898 -0.2818
18469TIP3    H276823   3.623   3.581   2.024  0.4306  0.0357 -1.7323
18470TIP3   OH276824   5.939   0.936   5.122  1.0377 -0.5469  0.3999
18470TIP3    H176825   5.948   0.969   5.211 -0.4906 -1.8242  1.0623
18470TIP3    H276826   5.852   0.965   5.094  0.8228 -1.5889 -0.0538
18471TIP3   OH276827   2.627   6.636   3.335  0.0907  0.0631  0.1289
18471TIP3    H176828   2.569   6.693   3.285  0.0635  0.8247  0.9966
18471TIP3    H276829   2.715   6.664   3.310  0.0794 -0.0094  0.0080
18472TIP3   OH276830   0.298   2.559   4.093 -0.1940  0.0277  0.0328
18472TIP3    H176831   0.320   2.612   4.169 -0.5714 -1.3686  1.1564
18472TIP3    H276832   0.217   2.598   4.058 -1.5604 -0.8943  1.9931
18473TIP3   OH276833   6.673   6.734  11.334 -0.2494 -0.3809 -0.2841
18473TIP3    H176834   6.624   6.655  11.312  1.3672 -1.3419 -0.6078
18473TIP3    H276835   6.685   6.729  11.429  0.1041 -0.6796 -0.3440
18474TIP3   OH276836   1.524   3.455  10.936  0.2082 -0.2447 -0.8407
18474TIP3    H176837   1.519   3.411  11.020  0.2139 -0.2157 -0.8258
18474TIP3    H276838   1.602   3.417  10.894  0.6908  0.3415 -0.4918
18475TIP3   OH276839   0.545   6.099   0.762 -0.4198 -0.3172  0.3654
18475TIP3    H176840   0.557   6.167   0.828 -3.4914 -1.5379  2.4487
18475TIP3    H276841   0.469   6.127   0.712  0.9297 -0.1913 -1.7372
18476TIP3   OH276842   4.267   1.598   3.963 -0.2053  0.1955 -0.8946
18476TIP3    H176843   4.306   1.621   3.879  0.1084  0.5827 -0.6458
18476TIP3    H276844   4.173   1.597   3.946 -0.0973 -0.8280 -1.5189
18477TIP3   OH276845   2.650   6.227  15.840 -0.1756 -0.2314  0.7791
18477TIP3    H176846   2.558   6.252  15.826 -0.2613 -0.5288  0.8010
18477TIP3    H276847   2.694   6.250  15.759 -0.5418 -1.3496  0.2424
18478TIP3   OH276848   4.782   0.397   3.445  0.0207  0.3461  0.6585
18478TIP3    H176849   4.844   0.384   3.517  2.3211  0.8200 -1.1350
18478TIP3    H276850   4.822   0.353   3.370 -2.1623  0.1129 -0.4744
18479TIP3   OH276851   4.580   5.550  14.530  0.5834 -0.5623  0.8012
18479TIP3    H176852   4.519   5.566  14.602  1.4164  0.1579  1.3669
18479TIP3    H276853   4.631   5.631  14.523  1.6691 -1.2401  0.5455
18480TIP3   OH276854   1.120   0.894  17.089 -0.0915 -0.0443 -1.0198
18480TIP3    H176855   1.064   0.885  17.011 -2.1247  0.5154  0.2904
18480TIP3    H276856   1.114   0.809  17.132 -1.1952  0.4594 -0.1206
18481TIP3   OH276857   1.596   4.164  17.174 -0.6674 -0.4072  0.1420
18481TIP3    H176858   1.620   4.223  17.245 -1.8468  0.3972 -0.1017
18481TIP3    H276859   1.512   4.197  17.142  0.4357  0.1153 -2.5387
18482TIP3   OH276860   6.318   4.285  12.394  0.2439  0.0580  0.2019
18482TIP3    H176861   6.295   4.193  12.398 -0.4697  0.1621 -0.9321
18482TIP3    H276862   6.243   4.331  12.430  0.0731  0.2382 -0.3648
18483TIP3   OH276863   3.946   1.522  12.457 -0.1809  0.6681 -0.0906
18483TIP3    H176864   3.976   1.480  12.537 -1.2176  0.8535  0.4174
18483TIP3    H276865   3.852   1.537  12.472 -0.7859 -0.8487 -2.0242
18484TIP3   OH276866   2.208   6.110   0.019 -0.0988 -0.0134 -0.2751
18484TIP3    H176867   2.130   6.057   0.002 -1.3694  1.1976  1.4403
18484TIP3    H276868   2.184   6.198  -0.013  0.4488  0.4375  0.5207
18485TIP3   OH276869   4.747   3.237   5.545  0.0500 -0.3181 -0.0841
18485TIP3    H176870   4.807   3.199   5.609  1.5790  1.6958 -0.2377
18485TIP3    H276871   4.788   3.218   5.460  0.4692  0.9836 -0.1956
18486TIP3   OH276872   1.450   3.723  12.244 -0.0056 -0.6077  0.4567
18486TIP3    H176873   1.364   3.681  12.245  0.1080 -0.9048 -0.5407
18486TIP3    H276874   1.512   3.651  12.253  0.1451 -0.3422  1.6966
18487TIP3   OH276875   6.691   4.412  16.489 -0.1294 -0.1538  0.1695
18487TIP3    H176876   6.668   4.418  16.396  0.7623  1.5730  0.0158
18487TIP3    H276877   6.623   4.463  16.534  1.2850  1.9313  0.0711
18488TIP3   OH276878   6.780   4.850  17.110 -0.4584 -0.0908 -0.2139
18488TIP3    H176879   6.788   4.845  17.014  3.1614 -0.4532 -0.0349
18488TIP3    H276880   6.760   4.942  17.127  0.4716  0.3364 -1.2873
18489TIP3   OH276881   3.869   1.448   2.515  0.4440  0.0592 -0.9942
18489TIP3    H176882   3.913   1.425   2.433 -0.2780 -0.0624 -1.3550
18489TIP3    H276883   3.911   1.529   2.543  1.2610 -0.3328 -1.0500
18490TIP3   OH276884   5.511   1.987  14.028  0.0167  0.0538  0.5492
18490TIP3    H176885   5.605   1.992  14.044 -0.1913  0.7432  1.6220
18490TIP3    H276886   5.473   1.968  14.114 -0.9027  0.8775  0.3400
18491TIP3   OH276887   3.270   4.938   2.210  0.0322  0.3447  0.2723
18491TIP3    H176888   3.247   4.934   2.117  1.6367  2.7215 -0.3396
18491TIP3    H276889   3.341   4.875   2.220  0.0995  0.3363 -0.2267
18492TIP3   OH276890   4.848   2.246   2.635 -0.6514 -0.0610 -0.2618
18492TIP3    H176891   4.783   2.290   2.690  0.3203  0.6436  0.3493
18492TIP3    H276892   4.796   2.195   2.573 -1.7873  0.5934  0.1240
18493TIP3   OH276893   6.402   2.398  14.675 -0.4172  0.1934 -0.2356
18493TIP3    H176894   6.462   2.470  14.696 -0.2543  0.4083 -1.3717
18493TIP3    H276895   6.443   2.321  14.714  0.2989  0.4443 -0.4557
18494TIP3   OH276896   2.533   4.298   0.137  0.6312 -0.2268 -1.1148
18494TIP3    H176897   2.582   4.366   0.183 -1.0934  0.5460 -0.3289
18494TIP3    H276898   2.573   4.216   0.167  1.4592  0.3611 -0.5535
18495TIP3   OH276899   0.952   4.205  13.282  0.0262 -0.8138 -0.0808
18495TIP3    H176900   0.997   4.127  13.249  0.6270 -0.7663  0.5957
18495TIP3    H276901   0.898   4.234  13.209 -1.1031 -2.5101  0.0134
18496TIP3   OH276902   2.398   4.563   5.496  0.3369 -0.0447  0.2138
18496TIP3    H176903   2.439   4.525   5.418 -1.7422 -1.2508 -0.3667
18496TIP3    H276904   2.337   4.629   5.461  0.5940  0.5840  0.9366
18497TIP3   OH276905   5.140   1.487   2.477 -0.1680  0.0185 -0.1124
18497TIP3    H176906   5.140   1.494   2.381 -1.1077  0.2522 -0.1044
18497TIP3    H276907   5.191   1.409   2.495  0.8104  0.4801 -0.7615
18498TIP3   OH276908   5.496   2.316  15.466 -0.3137  0.0710  0.4201
18498TIP3    H176909   5.517   2.223  15.472  1.2262  0.4852  2.3750
18498TIP3    H276910   5.425   2.330  15.529 -1.1883  0.1041 -0.5306
18499TIP3   OH276911   0.741   3.280  11.580 -0.6508  0.6203  0.0737
18499TIP3    H176912   0.732   3.359  11.634 -0.0007  1.6623 -1.2686
18499TIP3    H276913   0.819   3.236  11.614  2.0731  3.2189 -2.1987
18500TIP3   OH276914   0.464   0.549   0.650 -0.3634  0.5809  0.4930
18500TIP3    H176915   0.512   0.611   0.705 -2.4638  2.9468 -0.1279
18500TIP3    H276916   0.374   0.583   0.649 -1.2249 -1.5068 -1.3636
18501TIP3   OH276917   2.101   1.143   1.441 -0.0238 -0.3627 -0.7147
18501TIP3    H176918   2.194   1.128   1.427  0.7274  1.9621  1.3120
18501TIP3    H276919   2.082   1.224   1.394 -0.6966 -0.1022 -0.0114
18502TIP3   OH276920   4.707   2.872   3.957  0.0503  0.1520 -0.8474
18502TIP3    H176921   4.771   2.879   3.886 -1.0029  1.6104 -1.7108
18502TIP3    H276922   4.713   2.956   4.003  0.8581 -0.8501  0.9642
18503TIP3   OH276923   5.669   2.768   5.510  0.0386 -0.3774  0.3681
18503TIP3    H176924   5.660   2.695   5.449 -0.5063  0.0663 -0.0979
18503TIP3    H276925   5.761   2.794   5.502 -0.2491  0.3419 -1.0825
18504TIP3   OH276926   3.790   0.277   0.419 -0.0112 -0.2911 -0.1632
18504TIP3    H176927   3.717   0.257   0.360 -0.1323 -0.4536  0.0378
18504TIP3    H276928   3.838   0.347   0.375  0.1606 -0.7218 -0.6692
18505TIP3   OH276929   0.773   4.324   3.853  0.0502 -0.3206  0.2678
18505TIP3    H176930   0.734   4.406   3.823  2.0786  0.3232 -0.7971
18505TIP3    H276931   0.741   4.314   3.943 -2.2007  0.3151 -0.3988
18506TIP3   OH276932   4.795   5.958   1.575 -0.6237 -0.7679  0.3717
18506TIP3    H176933   4.853   6.034   1.567 -0.2159 -1.2001 -1.0137
18506TIP3    H276934   4.843   5.898   1.632 -0.4588 -0.4371  0.5881
18507TIP3   OH276935   5.774   4.647  11.586 -0.4876  0.9096 -0.0565
18507TIP3    H176936   5.698   4.702  11.570 -0.1155  1.4920  0.1486
18507TIP3    H276937   5.848   4.697  11.553 -0.2308  0.1426 -0.6989
18508TIP3   OH276938   3.788   1.667   3.708 -0.2237 -0.0227 -0.2982
18508TIP3    H176939   3.712   1.627   3.665 -0.4374  0.4546 -0.3786
18508TIP3    H276940   3.770   1.761   3.704 -0.5056  0.0123  1.3031
18509TIP3   OH276941   1.082   2.575   0.330 -0.6659 -0.2923  0.5423
18509TIP3    H176942   1.177   2.577   0.340 -0.5657  0.5528 -0.3896
18509TIP3    H276943   1.048   2.599   0.417 -0.0738 -1.8156  1.2194
18510TIP3   OH276944   5.813   2.072   4.896 -0.4176  0.0772  0.2816
18510TIP3    H176945   5.893   2.021   4.907  0.0278  0.7732  0.3243
18510TIP3    H276946   5.756   2.044   4.967  1.2820  2.3795  2.7588
18511TIP3   OH276947   2.163   6.450  15.059 -0.5881  0.4207 -0.7418
18511TIP3    H176948   2.202   6.366  15.082 -0.9137  0.0051 -1.6615
18511TIP3    H276949   2.209   6.514  15.113 -0.5683 -0.3864  0.2065
18512TIP3   OH276950   1.277   1.352   0.953 -0.1505  0.7634 -0.2230
18512TIP3    H176951   1.195   1.313   0.921 -0.1717  0.3195  0.3635
18512TIP3    H276952   1.321   1.280   0.998  1.0201  0.7386 -1.3739
18513TIP3   OH276953   6.196   6.348  14.950 -0.5688 -0.0766 -0.0542
18513TIP3    H176954   6.171   6.315  14.863  0.8216 -0.7611 -0.2163
18513TIP3    H276955   6.201   6.270  15.005 -2.1012  0.4179  0.8582
18514TIP3   OH276956   1.314   0.078  13.675  0.0105 -0.6302 -0.7968
18514TIP3    H176957   1.231   0.124  13.664  0.3312  0.0420 -0.4560
18514TIP3    H276958   1.356   0.082  13.589  0.0853 -0.1869 -0.7403
18515TIP3   OH276959   4.405   0.852  15.360  0.2762  0.3128  0.2299
18515TIP3    H176960   4.442   0.815  15.280  2.7678  2.4675  0.2424
18515TIP3    H276961   4.381   0.776  15.413  1.6985 -1.2116 -1.1939
18516TIP3   OH276962   3.665   5.220  14.076 -0.7333  0.2357 -0.0757
18516TIP3    H176963   3.726   5.293  14.084  0.5008 -0.8438  0.7546
18516TIP3    H276964   3.711   5.155  14.022 -1.9887  0.2234 -1.1951
18517TIP3   OH276965   0.593   1.499  13.557  0.3786 -0.0810 -0.0884
18517TIP3    H176966   0.503   1.477  13.578  0.3492  1.6846  2.0078
18517TIP3    H276967   0.617   1.566  13.621  2.4742  1.0990 -1.9634
18518TIP3   OH276968   1.392   3.111  11.501 -0.0226 -0.6039 -0.4813
18518TIP3    H176969   1.354   3.171  11.436 -1.5985 -0.0249  0.9152
18518TIP3    H276970   1.318   3.064  11.537  0.3328  1.0594  2.8506
18519TIP3   OH276971   5.187   1.657   1.027  0.3593 -0.1708 -0.0895
18519TIP3    H176972   5.251   1.656   1.097  0.3108  0.5917 -0.0249
18519TIP3    H276973   5.222   1.721   0.964  1.1076 -1.8203 -1.4362
18520TIP3   OH276974   0.162   3.463  14.070  0.0365 -0.3163  0.1573
18520TIP3    H176975   0.211   3.424  13.998  0.2348 -0.0583  0.1510
18520TIP3    H276976   0.193   3.553  14.074  1.5088 -0.8388  1.8386
18521TIP3   OH276977   6.362   1.817   6.088 -0.0265 -0.0993 -0.5355
18521TIP3    H176978   6.402   1.819   6.175 -0.7750 -0.8684 -0.1634
18521TIP3    H276979   6.346   1.724   6.071  0.4436  0.0069 -1.6572
18522TIP3   OH276980   6.593   0.752   4.707 -0.4577 -0.4259  0.2297
18522TIP3    H176981   6.667   0.739   4.766  0.8412 -0.5619 -1.3340
18522TIP3    H276982   6.580   0.847   4.704 -0.1355 -0.3806  0.2748
18523TIP3   OH276983   6.131   4.463  15.762 -0.3942  0.2190  0.2092
18523TIP3    H176984   6.171   4.501  15.840 -1.1140 -0.8458  1.1277
18523TIP3    H276985   6.161   4.372  15.761  0.9535  0.6186 -1.7170
18524TIP3   OH276986   2.104   3.558   3.494  0.2030 -0.0358  0.0214
18524TIP3    H176987   2.048   3.616   3.442 -1.1042  0.9457  2.3449
18524TIP3    H276988   2.113   3.479   3.441 -1.3171  0.7639 -1.5259
18525TIP3   OH276989   5.527   4.035   0.151  0.2331 -0.3105  0.1645
18525TIP3    H176990   5.548   4.042   0.058  1.4888  0.0636  0.4499
18525TIP3    H276991   5.600   3.985   0.188  0.8428  1.3409  1.2845
18526TIP3   OH276992   4.901   0.044  16.790  0.6375 -0.6453 -0.2280
18526TIP3    H176993   4.918   0.132  16.757 -0.8429 -0.1319  0.2827
18526TIP3    H276994   4.828   0.012  16.737  2.2074 -2.2634 -1.5394
18527TIP3   OH276995   0.194   2.015   5.685 -0.1782 -0.0024 -0.2910
18527TIP3    H176996   0.113   1.995   5.732  1.1324 -0.2129  1.9716
18527TIP3    H276997   0.172   2.093   5.633 -1.8977 -0.2279  0.0126
18528TIP3   OH276998   5.403   5.856   2.679  0.5230 -0.4005 -0.1420
18528TIP3    H176999   5.353   5.936   2.694 -1.3871 -1.5039 -0.2716
18528TIP3    H277000   5.393   5.807   2.761  1.2138 -0.7452 -0.2597
18529TIP3   OH277001   0.241   6.496  14.014  0.8187 -0.8602 -0.3175
18529TIP3    H177002   0.185   6.551  14.070  1.1584 -0.5434 -0.2869
18529TIP3    H277003   0.205   6.508  13.926  0.4081 -1.2031 -0.1995
18530TIP3   OH277004   3.468   0.935   1.809 -0.2718 -0.1977 -0.2409
18530TIP3    H177005   3.481   0.841   1.822  0.3938 -0.2722 -1.3095
18530TIP3    H277006   3.534   0.976   1.864  1.1198 -0.4490 -1.6316
18531TIP3   OH277007   5.752   3.280  17.140  0.1601 -0.5112 -0.4088
18531TIP3    H177008   5.703   3.230  17.075  0.2080  0.3741 -1.1542
18531TIP3    H277009   5.685   3.309  17.202  0.1964 -1.8347  0.2718
18532TIP3   OH277010   4.192   0.050   4.365 -0.3671 -0.6605 -0.0628
18532TIP3    H177011   4.193   0.087   4.276  0.6444  0.8730  0.5413
18532TIP3    H277012   4.273   0.082   4.405 -1.3073 -0.4302  1.7700
18533TIP3   OH277013   3.773   1.179  11.379 -0.8434 -0.4304  0.1524
18533TIP3    H177014   3.799   1.094  11.414 -2.2362 -1.1072 -0.3997
18533TIP3    H277015   3.686   1.195  11.414 -0.9930  0.3204 -0.5217
18534TIP3   OH277016   0.280   6.589   3.422 -0.1536 -0.0194  0.8162
18534TIP3    H177017   0.288   6.677   3.385 -0.0874 -0.9708 -1.6471
18534TIP3    H277018   0.305   6.598   3.514 -0.7090  2.6154  0.7741
18535TIP3   OH277019   0.758   2.274   3.482 -0.5640  0.5037  0.0055
18535TIP3    H177020   0.692   2.240   3.542 -1.3773  2.0003 -0.0072
18535TIP3    H277021   0.768   2.366   3.506  0.2732  0.7213 -1.0982
18536TIP3   OH277022   0.918   5.796  16.071  0.3186  0.4099  0.3655
18536TIP3    H177023   0.869   5.714  16.074  0.9863  0.0109  0.6703
18536TIP3    H277024   1.007   5.772  16.098  1.0896  0.8246 -1.6510
18537TIP3   OH277025   4.481   5.111   1.895 -0.5622 -0.1037 -0.3918
18537TIP3    H177026   4.563   5.063   1.906 -0.9422 -0.5753  0.5036
18537TIP3    H277027   4.487   5.148   1.807  0.1476 -1.0211 -0.7566
18538TIP3   OH277028   5.365   5.627  12.913  0.1031  0.5957 -0.7935
18538TIP3    H177029   5.363   5.572  12.835 -2.6671 -1.6304  0.6797
18538TIP3    H277030   5.410   5.575  12.979 -0.5541  1.0204  0.0161
18539TIP3   OH277031   1.382   6.634   4.918 -0.4133  0.7274 -0.1683
18539TIP3    H177032   1.446   6.585   4.867 -0.2937  0.6835  0.0196
18539TIP3    H277033   1.331   6.566   4.963  0.0888  0.7829  0.4958
18540TIP3   OH277034   5.540   2.065   1.065  0.0540  0.3869 -0.1582
18540TIP3    H177035   5.600   2.138   1.049 -0.8698  1.2317  0.0945
18540TIP3    H277036   5.538   2.017   0.982  0.6697  0.6526 -0.3344
18541TIP3   OH277037   5.561   0.506   2.993  0.0167 -0.0946 -0.0346
18541TIP3    H177038   5.602   0.500   3.079  0.0508  0.0726 -0.0392
18541TIP3    H277039   5.632   0.531   2.934  0.1047 -0.7215 -0.2011
18542TIP3   OH277040   3.664   3.930   4.982  0.0103  0.0503  0.1580
18542TIP3    H177041   3.587   3.986   4.990  1.2778  1.8866  0.0547
18542TIP3    H277042   3.710   3.962   4.905  0.7691 -1.1667  0.0802
18543TIP3   OH277043   1.915   0.995   4.589  0.1316 -0.4224 -0.4768
18543TIP3    H177044   1.995   1.046   4.604 -0.0918  1.3855 -4.3982
18543TIP3    H277045   1.844   1.051   4.620  0.1290  0.0992 -1.3913
18544TIP3   OH277046   0.438   4.219   5.520  0.4082  0.0313 -0.1157
18544TIP3    H177047   0.400   4.154   5.579  2.7649 -1.2134  0.1354
18544TIP3    H277048   0.430   4.302   5.568  0.0674 -0.5646  0.8992
18545TIP3   OH277049   2.242   2.167   1.648 -0.1519 -0.3251 -0.0356
18545TIP3    H177050   2.278   2.079   1.661  1.5614  0.2651 -0.5824
18545TIP3    H277051   2.318   2.224   1.640 -1.2071  0.9511 -1.5690
18546TIP3   OH277052   4.715   3.244   3.454  0.1088  0.4576 -0.0869
18546TIP3    H177053   4.699   3.266   3.546  0.3100  0.4918 -0.0596
18546TIP3    H277054   4.698   3.325   3.406  0.4640  0.5713 -0.0280
18547TIP3   OH277055   6.684   2.154   0.989  0.1741  0.4742 -0.2254
18547TIP3    H177056   6.761   2.099   0.978 -1.9663 -2.9146  0.2684
18547TIP3    H277057   6.654   2.173   0.900  0.5891  0.3140 -0.3980
18548TIP3   OH277058   6.205   4.451   5.449  0.2689 -0.3357 -0.6956
18548TIP3    H177059   6.251   4.504   5.514  0.5571 -1.9038  0.4441
18548TIP3    H277060   6.273   4.399   5.407 -0.1708 -0.8575 -0.7751
18549TIP3   OH277061   3.740   2.482  13.104  0.2224 -0.4273  0.1743
18549TIP3    H177062   3.676   2.553  13.097 -0.9235 -1.3554  0.7192
18549TIP3    H277063   3.782   2.478  13.019  0.1693  0.7764  0.0843
18550TIP3   OH277064   1.438   0.297  13.031  0.4398 -0.1222 -0.5816
18550TIP3    H177065   1.434   0.214  13.078 -2.7081 -0.3287 -0.9344
18550TIP3    H277066   1.512   0.344  13.069  1.3358 -2.4433  0.7220
18551TIP3   OH277067   2.416   5.690  14.278 -0.3602 -0.4307  0.3154
18551TIP3    H177068   2.450   5.766  14.232  1.4089 -1.4529 -0.1366
18551TIP3    H277069   2.323   5.688  14.256 -0.3378  1.3036 -0.0435
18552TIP3   OH277070   1.171   4.770  11.803  0.1072 -0.0797 -0.1496
18552TIP3    H177071   1.105   4.772  11.872  0.5883  3.3591  0.4286
18552TIP3    H277072   1.121   4.773  11.721 -0.5528  1.8193  0.2651
18553TIP3   OH277073   3.715   0.438  10.594  0.5221  0.3586 -0.3209
18553TIP3    H177074   3.737   0.345  10.589 -0.2101  0.2304 -1.4050
18553TIP3    H277075   3.658   0.453  10.519  2.0934  2.0968 -1.2420
18554TIP3   OH277076   6.060   5.856   1.350  0.5390 -0.6452 -0.0551
18554TIP3    H177077   6.008   5.786   1.309 -0.8844  0.5659 -0.3956
18554TIP3    H277078   6.091   5.908   1.276  1.4559 -0.8096  0.2076
18555TIP3   OH277079   1.439   3.189   4.578 -0.0426  0.2790  0.0073
18555TIP3    H177080   1.419   3.121   4.513 -1.1845 -0.3401  0.9604
18555TIP3    H277081   1.502   3.147   4.636 -1.1942 -0.2082  0.9392
18556TIP3   OH277082   0.510   1.999  12.337 -0.3021 -0.0827 -0.7713
18556TIP3    H177083   0.455   2.070  12.371 -0.0052 -0.4264  0.4837
18556TIP3    H277084   0.575   1.984  12.406 -1.9199 -3.3369  0.2926
18557TIP3   OH277085   5.748   0.314   5.641 -0.2772 -0.2430 -0.2657
18557TIP3    H177086   5.748   0.226   5.677  2.6780 -0.7943 -1.3625
18557TIP3    H277087   5.790   0.368   5.708  0.7245 -0.3187 -0.8070
18558TIP3   OH277088   5.107   5.665   1.675  0.2689  0.4590  0.2362
18558TIP3    H177089   5.014   5.689   1.678 -0.0005 -0.6595  1.4780
18558TIP3    H277090   5.125   5.628   1.761  1.5870 -0.3687 -0.3752
18559TIP3   OH277091   4.145   6.593  10.589 -0.9104 -0.8480  0.1019
18559TIP3    H177092   4.090   6.519  10.615 -0.3795 -2.1584 -2.2267
18559TIP3    H277093   4.169   6.574  10.498 -1.9162  2.8956 -1.1323
18560TIP3   OH277094   2.758   0.560   3.466 -0.0815 -0.4452 -0.3987
18560TIP3    H177095   2.817   0.512   3.524  0.3986  1.3339  0.6750
18560TIP3    H277096   2.769   0.652   3.491 -2.5266  0.0577 -0.9083
18561TIP3   OH277097   1.608   1.486  13.508 -0.2146  0.1641  0.2569
18561TIP3    H177098   1.691   1.470  13.464 -1.2953 -1.0479 -1.4423
18561TIP3    H277099   1.550   1.417  13.476 -1.0389 -0.9977  3.8383
18562TIP3   OH277100   3.227   0.786   5.404  0.0951  0.0806 -0.1608
18562TIP3    H177101   3.153   0.846   5.414 -0.4207 -0.5146 -0.3371
18562TIP3    H277102   3.276   0.821   5.330 -0.8452 -0.3433 -1.0219
18563TIP3   OH277103   2.228   2.489   4.856  0.0474 -0.5621 -0.0952
18563TIP3    H177104   2.150   2.544   4.849 -0.1658 -0.2697  3.2421
18563TIP3    H277105   2.298   2.548   4.880  0.3975 -1.3716  0.9345
18564TIP3   OH277106   1.788   5.370   2.864  0.1162  0.2233  0.0844
18564TIP3    H177107   1.704   5.345   2.826  0.4147  0.5388 -0.8076
18564TIP3    H277108   1.843   5.292   2.853 -0.1781 -0.1400  1.0731
18565TIP3   OH277109   5.217   5.408   4.414  0.7902 -0.1588 -0.5282
18565TIP3    H177110   5.173   5.329   4.445  1.1970 -0.9842 -1.9481
18565TIP3    H277111   5.188   5.418   4.323 -0.6624  2.3798  0.1073
18566TIP3   OH277112   1.437   5.432   1.661 -0.1396 -0.0661 -0.0783
18566TIP3    H177113   1.479   5.349   1.682  1.0143  0.5155  0.0102
18566TIP3    H277114   1.376   5.411   1.590  1.4750 -0.6996 -1.3571
18567TIP3   OH277115   2.353   0.050   6.376  0.5750 -0.1375 -0.5149
18567TIP3    H177116   2.409  -0.025   6.397  1.4592  0.3632 -1.0370
18567TIP3    H277117   2.390   0.123   6.426 -0.2427 -0.0178 -0.0595
18568TIP3   OH277118   1.097   1.778   5.430  0.1872 -0.2908  0.0510
18568TIP3    H177119   1.110   1.838   5.503  0.1677 -0.4185  0.1612
18568TIP3    H277120   1.018   1.810   5.387 -0.5581 -0.9735  0.8639
18569TIP3   OH277121   3.113   2.883   3.414  0.3208  0.2894 -0.3034
18569TIP3    H177122   3.060   2.948   3.461  0.5493  0.3888 -0.1806
18569TIP3    H277123   3.164   2.840   3.482  0.3136  0.1128 -0.4085
18570TIP3   OH277124   0.229   2.586  15.566  0.2902 -0.1613  0.0004
18570TIP3    H177125   0.218   2.491  15.565  3.1369 -0.5709 -0.5371
18570TIP3    H277126   0.199   2.614  15.480 -1.1225 -0.4601  0.3698
18571TIP3   OH277127   5.876   3.109   4.798  0.2496 -0.2120  0.2413
18571TIP3    H177128   5.875   3.057   4.878  0.8617 -0.3920  0.1353
18571TIP3    H277129   5.943   3.176   4.814 -1.5882  1.5849  1.0147
18572TIP3   OH277130   5.647   0.849   2.891 -0.0904  0.5299  0.3257
18572TIP3    H177131   5.694   0.918   2.843  0.4059  1.2775  1.8315
18572TIP3    H277132   5.693   0.769   2.869 -0.3731  0.7234 -1.0768
18573TIP3   OH277133   5.542   2.570  15.418  0.3423  0.1527 -0.4178
18573TIP3    H177134   5.534   2.475  15.428 -0.5236  0.3284  0.7103
18573TIP3    H277135   5.634   2.588  15.436  0.3674 -0.3990  0.0428
18574TIP3   OH277136   1.021   3.937   4.186  0.5453  0.3422 -0.0460
18574TIP3    H177137   0.980   3.854   4.162 -0.1354  0.7209 -0.2040
18574TIP3    H277138   1.114   3.915   4.198  0.2521 -0.5724  0.5961
18575TIP3   OH277139   2.401   6.052  15.752 -0.1559 -0.1896 -0.2684
18575TIP3    H177140   2.374   6.117  15.686 -0.4568  1.0541  1.0277
18575TIP3    H277141   2.483   6.016  15.718 -0.1138  0.6990 -1.1450
18576TIP3   OH277142   3.688   0.341   1.793  0.3719  0.3350  0.2308
18576TIP3    H177143   3.694   0.293   1.875 -0.3496  0.8973  0.6273
18576TIP3    H277144   3.630   0.288   1.737 -1.3352  1.2368  1.0615
18577TIP3   OH277145   0.615   0.695   5.718  0.3016  0.3023 -0.0324
18577TIP3    H177146   0.644   0.609   5.687  0.1645 -0.6819  2.3170
18577TIP3    H277147   0.638   0.695   5.811 -0.3588  2.5507  0.1811
18578TIP3   OH277148   6.158   2.147  15.837 -0.3089 -0.1791  0.1746
18578TIP3    H177149   6.243   2.107  15.855 -0.3995 -1.2309 -1.5296
18578TIP3    H277150   6.107   2.078  15.795 -0.7345  1.4577 -2.2356
18579TIP3   OH277151   1.484   1.463   0.046 -0.4447  0.3683 -0.4247
18579TIP3    H177152   1.431   1.465  -0.034 -0.4956 -1.6884 -0.4945
18579TIP3    H277153   1.435   1.406   0.105  1.1325 -0.6527 -0.0699
18580TIP3   OH277154   1.025   6.499   3.423 -0.2196  0.1868  0.0669
18580TIP3    H177155   1.112   6.529   3.450 -0.0176  0.0789 -0.4534
18580TIP3    H277156   0.969   6.576   3.433  0.1478  0.5418 -0.5619
18581TIP3   OH277157   4.137   2.158  11.449  0.2288 -0.3780 -0.2209
18581TIP3    H177158   4.100   2.083  11.402 -0.1097  0.3508 -1.1529
18581TIP3    H277159   4.221   2.174  11.406 -1.0235  1.6607 -2.1629
18582TIP3   OH277160   6.171   5.510  15.218  0.6034  0.2716 -0.0062
18582TIP3    H177161   6.091   5.557  15.242  0.4577 -0.7599  1.7995
18582TIP3    H277162   6.240   5.576  15.222 -0.0120  0.9637 -0.5883
18583TIP3   OH277163   3.748   1.753  11.985 -0.3355 -0.3791 -0.6573
18583TIP3    H177164   3.742   1.696  12.062 -1.3014 -1.4311 -1.4690
18583TIP3    H277165   3.752   1.692  11.911 -0.4722  0.6122 -1.5013
18584TIP3   OH277166   5.007   6.244   4.559 -0.2212 -0.8839 -0.0557
18584TIP3    H177167   4.985   6.264   4.468  1.3383  0.6637 -0.1424
18584TIP3    H277168   5.065   6.168   4.553  0.0053 -0.6894 -0.3721
18585TIP3   OH277169   5.644   0.405  14.586 -0.2062  0.3737 -0.0209
18585TIP3    H177170   5.599   0.366  14.661  0.7205 -2.3076 -0.7488
18585TIP3    H277171   5.609   0.360  14.510 -0.5713  2.5001 -1.2033
18586TIP3   OH277172   4.881   3.372  11.811 -0.4438 -0.4206 -0.0128
18586TIP3    H177173   4.921   3.394  11.895  1.6700 -2.5287 -0.3648
18586TIP3    H277174   4.808   3.433  11.802 -0.5719  0.0528  3.2124
18587TIP3   OH277175   6.576   3.891   2.041  0.2808  0.1094 -0.2282
18587TIP3    H177176   6.569   3.980   2.078 -0.4231 -0.3261  0.7344
18587TIP3    H277177   6.666   3.865   2.059  0.1338  0.1548  0.6501
18588TIP3   OH277178   4.969   1.328  12.912  0.0669  0.4253  0.0977
18588TIP3    H177179   4.953   1.422  12.924 -0.3299  0.3829 -0.1049
18588TIP3    H277180   5.062   1.318  12.933 -0.0346  0.7549  0.7644
18589TIP3   OH277181   2.697   1.109  12.657 -0.5747  0.0798 -0.0327
18589TIP3    H177182   2.757   1.085  12.587  0.7848  1.3699  0.6480
18589TIP3    H277183   2.612   1.077  12.627 -0.0667  0.6875 -2.3093
18590TIP3   OH277184   3.842   3.560   5.354 -0.4451 -0.1587  0.0668
18590TIP3    H177185   3.775   3.517   5.408  0.2504 -2.3836 -0.7204
18590TIP3    H277186   3.793   3.623   5.301 -1.9517 -1.5419 -0.2975
18591TIP3   OH277187   4.817   4.137  15.492  0.0277  0.5612 -1.1328
18591TIP3    H177188   4.781   4.147  15.580 -0.2956  1.4537 -1.3528
18591TIP3    H277189   4.902   4.182  15.495 -0.7185  2.1004 -1.6977
18592TIP3   OH277190   5.111   5.823   5.314  0.0770  0.1253 -0.0444
18592TIP3    H177191   5.073   5.802   5.399  2.6434 -0.3037  1.0841
18592TIP3    H277192   5.152   5.909   5.327 -1.3858  1.1003 -1.5389
18593TIP3   OH277193   3.665   4.908   5.181 -0.0359  0.2475 -0.0996
18593TIP3    H177194   3.720   4.886   5.256 -0.4938  0.3495  0.2678
18593TIP3    H277195   3.578   4.878   5.205 -0.1623  0.1671 -0.6454
18594TIP3   OH277196   4.248   3.083   1.482  0.3570  0.3146 -0.1560
18594TIP3    H177197   4.223   3.126   1.564  0.6108 -2.0298  1.2589
18594TIP3    H277198   4.261   3.155   1.420 -1.4802  2.0996  1.3598
18595TIP3   OH277199   0.078   0.587   2.919  0.5965 -0.7067 -0.0179
18595TIP3    H177200   0.069   0.493   2.899 -0.6338 -0.4962 -0.4991
18595TIP3    H277201   0.100   0.627   2.835  0.1066 -0.4359 -0.0190
18596TIP3   OH277202   2.602   0.037   4.147  0.0023  0.0193  0.5548
18596TIP3    H177203   2.613  -0.003   4.233 -0.8705  0.4546  0.8762
18596TIP3    H277204   2.533   0.103   4.159 -2.3120 -1.9208 -1.1144
18597TIP3   OH277205   2.120   0.084  10.659 -0.6051 -0.2487 -0.1804
18597TIP3    H177206   2.049   0.060  10.719 -0.6916  1.0310  0.2740
18597TIP3    H277207   2.170   0.150  10.707  0.9580 -1.2021 -0.4651
18598TIP3   OH277208   4.480   2.739  13.714 -0.2200 -0.5102  0.1950
18598TIP3    H177209   4.488   2.700  13.627  0.3118  0.8874 -0.4201
18598TIP3    H277210   4.537   2.687  13.770  0.9135 -0.2740 -0.7184
18599TIP3   OH277211   4.980   2.001   0.993  0.0244 -0.1471 -0.3391
18599TIP3    H177212   4.983   1.935   1.062 -0.1760 -0.3262 -0.5004
18599TIP3    H277213   5.066   2.044   0.997 -0.1003  0.0606  0.2284
18600TIP3   OH277214   4.209   5.218   2.925  0.1431 -0.6427 -0.0946
18600TIP3    H177215   4.199   5.161   3.002 -1.7816  0.4538  0.5332
18600TIP3    H277216   4.134   5.277   2.929  2.4652  2.5616 -0.2313
18601TIP3   OH277217   3.027   2.474  14.092  0.5043 -0.4798 -0.5404
18601TIP3    H177218   2.975   2.524  14.156 -0.0740 -0.3063 -1.1335
18601TIP3    H277219   3.028   2.530  14.014  1.3034 -0.6390 -0.6483
18602TIP3   OH277220   1.519   2.879  12.610  0.1531  0.2176 -0.2448
18602TIP3    H177221   1.606   2.917  12.605  0.1303  0.4935  1.0628
18602TIP3    H277222   1.532   2.785  12.597  0.6210  0.2737 -0.1702
18603TIP3   OH277223   4.789   1.042  15.670  0.2640  0.9817  0.0774
18603TIP3    H177224   4.733   0.966  15.684  0.0248  1.5621  2.7734
18603TIP3    H277225   4.875   1.005  15.649  0.6236 -0.2340  3.1345
18604TIP3   OH277226   2.450   3.857   1.547  0.5229 -0.0978  0.1924
18604TIP3    H177227   2.450   3.866   1.643 -2.2114  2.6181  0.0888
18604TIP3    H277228   2.361   3.829   1.526  0.8668  0.0702 -1.6108
18605TIP3   OH277229   0.872   2.416   0.726  0.1943 -0.3081 -0.3138
18605TIP3    H177230   0.792   2.399   0.676  0.2493 -0.3207 -0.3977
18605TIP3    H277231   0.845   2.409   0.818 -0.2304  1.1363 -0.2957
18606TIP3   OH277232   6.627   5.004  13.570 -0.0951 -0.4557  0.0284
18606TIP3    H177233   6.670   4.940  13.513  0.9531 -0.6381  0.9871
18606TIP3    H277234   6.575   4.951  13.631 -0.0184 -0.3511  0.1869
18607TIP3   OH277235   6.497   5.096   4.394 -0.8508 -0.4030  0.3820
18607TIP3    H177236   6.555   5.044   4.339  0.0485  2.0106 -1.1337
18607TIP3    H277237   6.413   5.097   4.347 -1.2884 -1.5361  1.1051
18608TIP3   OH277238   6.353   1.353  15.705 -0.4896 -0.0478  0.1828
18608TIP3    H177239   6.386   1.443  15.705 -3.2531  1.0699  0.3620
18608TIP3    H277240   6.333   1.335  15.614 -3.5179  1.0788  0.5045
18609TIP3   OH277241   0.553   4.830  15.656 -0.4011  0.2785 -0.4835
18609TIP3    H177242   0.519   4.862  15.572  0.4545 -0.0732 -0.9800
18609TIP3    H277243   0.590   4.744  15.635  1.0040  0.7511 -0.0212
18610TIP3   OH277244   4.962   0.094   0.707 -0.3453 -0.5896  0.1655
18610TIP3    H177245   4.993   0.062   0.792 -1.2753 -0.9913  0.3605
18610TIP3    H277246   4.940   0.186   0.723 -0.3452 -0.6141  0.3064
18611TIP3   OH277247   2.725   3.026   5.729 -0.2316  0.2592 -0.1185
18611TIP3    H177248   2.665   3.090   5.768  0.5309  0.0197  1.4974
18611TIP3    H277249   2.801   3.077   5.702  0.8714 -0.0357  2.1936
18612TIP3   OH277250   3.731   2.509   2.952 -0.2217  0.2073 -0.1890
18612TIP3    H177251   3.820   2.515   2.918 -0.2323  0.4240 -0.1827
18612TIP3    H277252   3.736   2.546   3.040  0.0619 -1.5148  0.5544
18613TIP3   OH277253   1.050   3.467  16.895 -0.1545 -0.1803  0.1663
18613TIP3    H177254   1.041   3.452  16.989 -0.4726  0.7497  0.3007
18613TIP3    H277255   1.035   3.382  16.854 -2.6493 -0.1326  0.8039
18614TIP3   OH277256   4.340   6.110   5.621 -0.3643 -0.5874 -0.1837
18614TIP3    H177257   4.352   6.204   5.607 -1.2853 -0.4139  0.1320
18614TIP3    H277258   4.420   6.082   5.666  0.1573 -0.0676 -0.7601
18615TIP3   OH277259   1.556   0.858   0.042 -0.2222  0.1380 -0.2225
18615TIP3    H177260   1.471   0.882   0.078 -0.3535 -1.4114  0.5818
18615TIP3    H277261   1.618   0.881   0.111 -0.1634 -0.2519 -0.1478
18616TIP3   OH277262   1.653   5.027   1.604 -0.0325  0.0897 -0.3336
18616TIP3    H177263   1.638   4.943   1.647 -0.7305  0.5218  0.2822
18616TIP3    H277264   1.586   5.032   1.536 -0.2372  0.3127 -0.1184
18617TIP3   OH277265   5.923   3.019   0.182  0.7322  0.3156  0.3659
18617TIP3    H177266   5.960   3.026   0.094 -0.8370  1.2228 -0.2671
18617TIP3    H277267   5.886   3.106   0.199 -0.3174 -0.2894  1.2866
18618TIP3   OH277268   0.135   0.190   3.523  0.0284  0.4271 -0.0356
18618TIP3    H177269   0.059   0.153   3.568 -1.2720  1.9421 -0.9003
18618TIP3    H277270   0.181   0.240   3.591 -0.7272  0.9245  0.1234
18619TIP3   OH277271   4.614   2.263  13.873 -0.6343 -0.7433  0.2796
18619TIP3    H177272   4.552   2.261  13.800 -0.4386 -0.0040  0.0863
18619TIP3    H277273   4.699   2.247  13.833 -0.2683  1.4871  0.0336
18620TIP3   OH277274   3.144   1.797  16.773 -0.2044  0.6609 -0.0643
18620TIP3    H177275   3.075   1.862  16.759  0.4313  1.0616 -1.4800
18620TIP3    H277276   3.108   1.716  16.736  0.2842  1.0000 -1.3060
18621TIP3   OH277277   5.778   3.548  12.851  0.7860 -0.1182  0.0684
18621TIP3    H177278   5.870   3.570  12.868  0.8570 -0.5459  0.2557
18621TIP3    H277279   5.747   3.619  12.795  1.6256 -0.7023 -1.1896
18622TIP3   OH277280   5.245   1.835   0.849 -0.3052 -0.3998  0.0132
18622TIP3    H177281   5.203   1.849   0.764  0.7753  0.0825 -0.4540
18622TIP3    H277282   5.238   1.919   0.894  1.3242  0.0958 -0.6070
18623TIP3   OH277283   2.464   6.498  12.837  0.0049 -0.1895  0.4686
18623TIP3    H177284   2.433   6.407  12.836  0.5675 -0.4828  2.7458
18623TIP3    H277285   2.559   6.490  12.834  0.0970  0.2317  1.6804
18624TIP3   OH277286   4.188   5.806   0.329 -0.3661  0.3088 -0.0530
18624TIP3    H177287   4.163   5.896   0.350 -0.9487  0.0966  0.1986
18624TIP3    H277288   4.137   5.785   0.252  0.3009  0.4245 -0.5345
18625TIP3   OH277289   4.631   5.102  11.989 -0.3792 -0.2460 -0.7163
18625TIP3    H177290   4.627   5.155  12.069  0.8331 -1.5316  0.2576
18625TIP3    H277291   4.543   5.108  11.952 -1.0695  0.1531  0.8809
18626TIP3   OH277292   4.089   0.657  11.447 -1.1371 -0.5545  0.6072
18626TIP3    H177293   4.093   0.752  11.455 -1.4271 -0.4811 -0.0084
18626TIP3    H277294   4.129   0.623  11.527 -0.8080  0.0841  0.7105
18627TIP3   OH277295   3.300   6.149   4.274  0.4374 -0.2184 -0.2531
18627TIP3    H177296   3.359   6.163   4.200 -0.4659 -0.9890 -1.1342
18627TIP3    H277297   3.302   6.055   4.289 -1.6103 -0.4614 -1.2062
18628TIP3   OH277298   4.833   2.027  12.994  0.1059  0.1889  0.0688
18628TIP3    H177299   4.836   2.069  13.080  1.1532 -0.6255  0.4558
18628TIP3    H277300   4.907   2.062  12.946 -0.1363  0.2080 -0.2981
18629TIP3   OH277301   1.340   4.377   5.279  0.1860  0.1518 -0.1767
18629TIP3    H177302   1.264   4.324   5.300  1.0049 -1.5134 -1.2278
18629TIP3    H277303   1.359   4.359   5.187  2.0745  0.1934  0.1526
18630TIP3   OH277304   0.065   6.129  16.551  0.7173  0.2381  0.1333
18630TIP3    H177305   0.113   6.212  16.550  3.1007 -0.9605 -3.6144
18630TIP3    H277306   0.118   6.070  16.604  0.6254  0.2991  0.2928
18631TIP3   OH277307   0.627   6.557  16.188  0.3479 -0.0846 -0.1382
18631TIP3    H177308   0.613   6.483  16.247 -0.2924 -0.6180 -0.9425
18631TIP3    H277309   0.620   6.634  16.245 -0.8521 -0.5591  0.4082
18632TIP3   OH277310   5.231   0.124  15.964  0.0103 -0.5765  0.1818
18632TIP3    H177311   5.188   0.050  15.920  0.0071  0.8739 -2.4652
18632TIP3    H277312   5.170   0.197  15.954  1.3739  0.5612 -0.2043
18633TIP3   OH277313   0.941   5.303   3.711 -0.0186 -0.6016 -0.3064
18633TIP3    H177314   0.921   5.396   3.722  0.1867 -0.6057  0.1162
18633TIP3    H277315   1.029   5.293   3.748 -0.1142 -0.9986 -0.1872
18634TIP3   OH277316   3.028   5.782   3.026  0.2687 -0.0534  0.1085
18634TIP3    H177317   3.006   5.744   3.111  0.9991  0.4575  0.5320
18634TIP3    H277318   2.971   5.736   2.964  0.6158 -1.3286  0.7013
18635TIP3   OH277319   1.286   3.019   0.066  0.0803 -0.4263 -0.2157
18635TIP3    H177320   1.283   3.101   0.016  1.1318  0.5402  1.2411
18635TIP3    H277321   1.342   2.962   0.014  1.0988  0.5355 -0.2228
18636TIP3   OH277322   0.505   3.249   0.937 -0.3338 -0.1555  0.0391
18636TIP3    H177323   0.546   3.183   0.993  3.6721  1.2958 -0.8031
18636TIP3    H277324   0.464   3.310   0.997  1.1268 -0.2982  1.2381
18637TIP3   OH277325   5.146   4.759   5.784  0.1325 -0.1203  0.3284
18637TIP3    H177326   5.070   4.811   5.757  0.3547  0.8788  1.5788
18637TIP3    H277327   5.216   4.788   5.726 -0.3571 -0.9305 -0.7222
18638TIP3   OH277328   6.665   4.839   3.248  0.1714 -0.0157 -0.0451
18638TIP3    H177329   6.671   4.753   3.290 -1.0925 -0.6016 -1.0080
18638TIP3    H277330   6.684   4.901   3.319  0.3894 -1.0556  0.8356
18639TIP3   OH277331   5.276   6.099   3.329 -0.2701  0.1302  0.7411
18639TIP3    H177332   5.294   6.168   3.392  1.2306  0.3294  0.1302
18639TIP3    H277333   5.214   6.138   3.268 -2.8890 -0.5119  2.7961
18640TIP3   OH277334   6.779   5.783   5.199 -0.4583 -0.0221  0.3247
18640TIP3    H177335   6.812   5.873   5.195 -1.9806  0.5474 -0.1280
18640TIP3    H277336   6.686   5.791   5.177 -1.0289 -1.4781  1.9794
18641TIP3   OH277337   5.993   5.675   6.176 -0.0049  0.3244  0.4883
18641TIP3    H177338   5.971   5.760   6.215 -0.2861  0.5938 -0.2370
18641TIP3    H277339   5.910   5.627   6.175  0.2059 -0.0494  1.1216
18642TIP3   OH277340   2.114   4.299   3.817 -0.0768  0.0233 -0.1813
18642TIP3    H177341   2.141   4.390   3.833  0.4787 -0.1803  0.0647
18642TIP3    H277342   2.149   4.280   3.729 -1.3040  0.4564 -0.7837
18643TIP3   OH277343   1.353   0.458  12.843 -0.5773  0.2951 -0.5502
18643TIP3    H177344   1.337   0.532  12.901  0.6124 -0.0467  0.2343
18643TIP3    H277345   1.390   0.390  12.900 -2.1287 -1.1205 -1.1363
18644TIP3   OH277346   6.260   3.414   2.376  0.0268  0.5533  0.3911
18644TIP3    H177347   6.261   3.475   2.450  1.0700  0.3534  0.5552
18644TIP3    H277348   6.173   3.425   2.338  0.5590  3.0770 -0.3443
18645TIP3   OH277349   6.662   5.551  10.558  0.5399  0.1953  0.6673
18645TIP3    H177350   6.714   5.590  10.629  2.4395 -0.9562 -0.0050
18645TIP3    H277351   6.647   5.623  10.497  0.8283  0.6892  1.1715
18646TIP3   OH277352   2.173   3.813   1.474 -0.1749 -0.0856 -0.0058
18646TIP3    H177353   2.116   3.739   1.496  0.4825 -0.3814  0.7759
18646TIP3    H277354   2.152   3.879   1.540  0.6764 -0.3685  0.5783
18647TIP3   OH277355   0.347   0.161  12.280 -0.1950  0.1459 -0.1073
18647TIP3    H177356   0.386   0.241  12.247  0.5710  0.1231  0.6913
18647TIP3    H277357   0.276   0.190  12.337  0.4072  0.2783  0.5822
18648TIP3   OH277358   0.673   2.160  11.532 -0.1624  0.1560 -0.0324
18648TIP3    H177359   0.584   2.193  11.548 -0.2319 -0.8212  1.8667
18648TIP3    H277360   0.664   2.065  11.533  1.0675  0.0162  1.4232
18649TIP3   OH277361   0.133   0.046  15.846  0.3576  0.2740 -0.3598
18649TIP3    H177362   0.142   0.135  15.813 -0.8239  0.0881 -1.2481
18649TIP3    H277363   0.041   0.038  15.870  0.5617 -0.5446  0.1914
18650TIP3   OH277364   4.175   2.404  15.595  0.3083  0.3395  0.0626
18650TIP3    H177365   4.220   2.334  15.549 -0.8116  0.5962 -1.4958
18650TIP3    H277366   4.222   2.413  15.678  1.2026 -1.4279 -0.2177
18651TIP3   OH277367   0.894   4.437   1.393 -0.3706  0.3812  0.6063
18651TIP3    H177368   0.892   4.524   1.435 -0.8622  0.5068  0.3380
18651TIP3    H277369   0.801   4.414   1.384 -0.2677  0.2997 -0.2938
18652TIP3   OH277370   5.460   6.563  15.752 -0.0497 -0.4466 -0.3442
18652TIP3    H177371   5.511   6.639  15.782 -0.4570  0.5670 -2.0694
18652TIP3    H277372   5.523   6.512  15.701  0.1149 -1.0848  0.4735
18653TIP3   OH277373   2.599   3.736   1.350 -0.7071 -0.0668 -0.1236
18653TIP3    H177374   2.689   3.745   1.380 -0.4669  0.6373 -1.0108
18653TIP3    H277375   2.549   3.796   1.406 -0.4654  0.2571 -0.2487
18654TIP3   OH277376   4.706   3.325   2.192  0.0195 -0.3927  0.3476
18654TIP3    H177377   4.635   3.309   2.254 -0.7230 -0.7542 -0.5617
18654TIP3    H277378   4.664   3.316   2.106  1.2561 -1.0449 -0.2077
18655TIP3   OH277379   2.578   4.997   4.938  0.3327 -0.0290 -0.1568
18655TIP3    H177380   2.658   4.952   4.963  1.2451  0.8981 -1.2671
18655TIP3    H277381   2.527   5.003   5.019 -0.1460 -3.5129 -0.0478
18656TIP3   OH277382   6.765   3.497  14.938  0.7160  0.3453  0.1911
18656TIP3    H177383   6.814   3.420  14.907  0.2474 -0.0872  0.5087
18656TIP3    H277384   6.760   3.484  15.033 -0.2608  0.2446  0.1281
18657TIP3   OH277385   4.199   1.982  13.524  0.6721 -1.1316 -0.3847
18657TIP3    H177386   4.150   1.963  13.605  1.4857 -1.3521  0.0715
18657TIP3    H277387   4.178   1.908  13.466 -1.1339 -0.2124 -0.9813
18658TIP3   OH277388   5.505   1.628   0.889  0.1768  0.3502 -0.3014
18658TIP3    H177389   5.431   1.637   0.829 -0.2054  2.2727  0.3818
18658TIP3    H277390   5.514   1.534   0.903 -0.2763 -0.0867 -2.6455
18659TIP3   OH277391   1.825   5.154   5.570 -0.7117  0.2453  0.3693
18659TIP3    H177392   1.881   5.190   5.501  0.8451 -0.7236  1.0398
18659TIP3    H277393   1.749   5.119   5.524  0.0355  0.1014 -0.8108
18660TIP3   OH277394   0.523   5.601  12.007  0.5666  1.0808  0.0384
18660TIP3    H177395   0.545   5.535  11.941  0.1295  1.1564 -0.1901
18660TIP3    H277396   0.481   5.552  12.078 -1.0539  1.2557 -0.7429
18661TIP3   OH277397   0.874   2.820  16.909  0.0970  0.2198 -0.0185
18661TIP3    H177398   0.815   2.800  16.982 -1.7039  1.0354 -1.1673
18661TIP3    H277399   0.914   2.904  16.932 -1.2308  0.9820 -0.3620
18662TIP3   OH277400   0.546   2.480  16.491 -0.1006 -0.3835 -0.3815
18662TIP3    H177401   0.508   2.396  16.467 -2.0379  0.7502 -1.4948
18662TIP3    H277402   0.616   2.494  16.427  0.1544 -1.0656 -0.2601
18663TIP3   OH277403   3.318   1.208   0.050  0.2365 -0.2708 -0.0951
18663TIP3    H177404   3.297   1.133   0.105  0.4307 -0.6005 -0.4685
18663TIP3    H277405   3.413   1.202   0.037 -0.0274 -1.1377 -1.8367
18664TIP3   OH277406   4.669   3.958   5.796  0.2674 -0.4748  0.1942
18664TIP3    H177407   4.672   3.945   5.890  0.1452  0.3789  0.3282
18664TIP3    H277408   4.661   4.053   5.785  0.5236 -0.5400 -0.6774
18665TIP3   OH277409   3.411   4.928  14.419  0.0539 -0.7754 -0.0471
18665TIP3    H177410   3.340   4.901  14.362 -1.1508  1.5401  0.2656
18665TIP3    H277411   3.460   4.993  14.368  0.2220 -0.2427  0.7716
18666TIP3   OH277412   1.433   4.412   3.788 -0.0677 -0.0582  0.5114
18666TIP3    H177413   1.458   4.504   3.801 -1.5546  0.6805 -1.3433
18666TIP3    H277414   1.509   4.373   3.743  0.6855  0.1632  1.5581
18667TIP3   OH277415   2.668   2.840   0.350  0.4215 -0.3069 -0.2566
18667TIP3    H177416   2.629   2.923   0.377  1.4654  0.2560 -0.4142
18667TIP3    H277417   2.602   2.774   0.372 -1.1399  0.7100 -1.6498
18668TIP3   OH277418   2.084   0.183  14.617  0.1573 -0.1639  0.4881
18668TIP3    H177419   2.024   0.257  14.624  1.0115  0.6626 -0.4096
18668TIP3    H277420   2.110   0.183  14.524  0.3471 -1.4530  0.5279
18669TIP3   OH277421   1.941   1.838   4.041  0.7339  0.1099 -0.3275
18669TIP3    H177422   2.004   1.889   3.990  0.5605  0.9833  0.3221
18669TIP3    H277423   1.918   1.894   4.115  0.0978 -0.6794  0.0890
18670TIP3   OH277424   2.912   2.763  16.317 -0.6584 -0.1816 -0.4679
18670TIP3    H177425   2.906   2.826  16.246 -0.6874 -0.1604 -0.4460
18670TIP3    H277426   2.894   2.813  16.396  1.9008  0.3780 -0.1483
18671TIP3   OH277427   0.577   5.924  15.213 -0.3473 -0.4349  0.0027
18671TIP3    H177428   0.644   5.980  15.252 -0.5688 -0.2161  0.0681
18671TIP3    H277429   0.556   5.861  15.282  0.6393 -1.2581 -0.4066
18672TIP3   OH277430   0.150   3.345  12.642  0.3995  0.4673 -0.1872
18672TIP3    H177431   0.230   3.337  12.694 -0.8350  0.8090  1.8975
18672TIP3    H277432   0.176   3.320  12.553  2.7074  0.2060  0.4935
18673TIP3   OH277433   2.332   3.527   3.261  0.0907  0.0864 -0.5426
18673TIP3    H177434   2.396   3.489   3.201  0.3925 -1.1417  0.5067
18673TIP3    H277435   2.249   3.525   3.213  0.5888  0.4161 -1.4159
18674TIP3   OH277436   6.269   4.819  15.849  0.0991  0.1447 -0.1425
18674TIP3    H177437   6.341   4.758  15.838 -0.3002 -0.5440  0.8600
18674TIP3    H277438   6.203   4.790  15.786  0.0300 -0.2834  0.1210
18675TIP3   OH277439   5.130   1.468   2.204  0.0786 -0.7259  0.2873
18675TIP3    H177440   5.065   1.399   2.197 -0.4962 -0.3938  1.9390
18675TIP3    H277441   5.084   1.548   2.180  0.2664 -0.6785  0.0780
18676TIP3   OH277442   1.089   5.530   5.913 -0.4092  0.4723 -0.4368
18676TIP3    H177443   1.088   5.451   5.967 -0.4204 -0.0052 -1.1134
18676TIP3    H277444   1.089   5.497   5.823  1.3324  1.2073 -0.7576
18677TIP3   OH277445   1.890   1.601  16.440 -0.5872  0.0607  0.4893
18677TIP3    H177446   1.830   1.620  16.368 -0.7112  1.9740  1.0262
18677TIP3    H277447   1.938   1.682  16.453  2.4717 -1.5134 -0.1617
18678TIP3   OH277448   6.781   0.925   0.758  0.2780 -0.0437 -0.7027
18678TIP3    H177449   6.751   1.013   0.734  0.8307  0.8904  1.7219
18678TIP3    H277450   6.700   0.875   0.771 -0.4700  1.8693  3.7085
18679TIP3   OH277451   2.811   6.792   4.794  0.3885  0.1565 -0.1571
18679TIP3    H177452   2.903   6.805   4.819  0.6773  0.7168 -1.4618
18679TIP3    H277453   2.780   6.879   4.770 -0.8540  0.1808  1.3703
18680TIP3   OH277454   2.041   6.167  11.292 -0.0895 -0.4472 -0.0436
18680TIP3    H177455   1.970   6.182  11.230  0.1354  1.5404  0.1170
18680TIP3    H277456   2.004   6.109  11.358 -1.0478 -0.7162 -0.7960
18681TIP3   OH277457   0.611   2.118  16.071  0.3187  0.5760  0.2850
18681TIP3    H177458   0.524   2.122  16.032  0.5396 -1.9394 -0.6232
18681TIP3    H277459   0.671   2.120  15.997  0.8667 -1.0442  0.6414
18682TIP3   OH277460   3.472   1.527  14.304 -0.3735 -1.0014 -0.5251
18682TIP3    H177461   3.439   1.449  14.260  1.2674 -0.8802 -2.0716
18682TIP3    H277462   3.442   1.600  14.249  0.2991 -0.7337 -0.5438
18683TIP3   OH277463   1.460   6.414  14.421 -0.4756 -0.0286 -0.2970
18683TIP3    H177464   1.436   6.322  14.426 -3.3425  0.6873  0.6376
18683TIP3    H277465   1.411   6.448  14.346  0.7817  0.7267 -0.8173
18684TIP3   OH277466   1.800   5.451  11.885  0.2921  0.5226 -0.2126
18684TIP3    H177467   1.759   5.453  11.798  1.3359 -0.6684 -0.7676
18684TIP3    H277468   1.834   5.539  11.897 -0.6527  0.9575 -0.6175
18685TIP3   OH277469   2.877   5.564   5.805 -0.0109 -0.1714  0.5796
18685TIP3    H177470   2.936   5.502   5.763 -1.5887 -1.8783  0.7010
18685TIP3    H277471   2.871   5.533   5.895 -0.5509  0.3723  0.7359
18686TIP3   OH277472   5.505   2.719  12.772 -0.0531  0.5614 -0.5114
18686TIP3    H177473   5.456   2.774  12.711 -1.9526 -1.6504 -1.1228
18686TIP3    H277474   5.447   2.708  12.847  1.0222  0.7779  0.3835
18687TIP3   OH277475   2.708   1.497   1.049  0.0650 -0.0631  0.1753
18687TIP3    H177476   2.647   1.556   1.005 -0.2518 -0.6164 -0.1448
18687TIP3    H277477   2.761   1.460   0.978  2.8492  2.6222  0.6582
18688TIP3   OH277478   4.442   3.230   3.076  0.8089 -0.0273  0.8342
18688TIP3    H177479   4.536   3.246   3.089  0.8624 -0.0147  0.4563
18688TIP3    H277480   4.435   3.136   3.063  0.6003 -0.2233  2.1836
18689TIP3   OH277481   6.441   0.726  12.533  0.3434 -0.0116 -0.3002
18689TIP3    H177482   6.366   0.667  12.524 -0.2814  0.7651 -0.2679
18689TIP3    H277483   6.442   0.750  12.626  1.2736 -0.8300 -0.0777
18690TIP3   OH277484   5.753   2.435   5.666 -0.2524 -0.8206  0.7867
18690TIP3    H177485   5.821   2.497   5.639 -1.0005  0.8545  2.4789
18690TIP3    H277486   5.759   2.433   5.762 -3.0044 -0.0204  1.0742
18691TIP3   OH277487   2.204   2.119   2.422  0.0629  0.3811 -0.0804
18691TIP3    H177488   2.108   2.117   2.420 -0.1894  1.1552  3.7236
18691TIP3    H277489   2.225   2.212   2.417  0.5083  0.3158  0.5280
18692TIP3   OH277490   2.604   1.854  14.449  0.4077  0.1124 -0.6189
18692TIP3    H177491   2.607   1.941  14.408  0.2602  2.4207  3.6261
18692TIP3    H277492   2.696   1.828  14.456  0.4574 -0.0970 -1.8765
18693TIP3   OH277493   4.808   1.326   5.216 -0.5858 -0.1826  0.4830
18693TIP3    H177494   4.761   1.393   5.167 -0.7860 -1.0474 -0.5535
18693TIP3    H277495   4.805   1.355   5.307 -0.2295  1.4506 -0.0046
18694TIP3   OH277496   3.956   0.337  13.686  0.7926 -0.5310  0.2755
18694TIP3    H177497   3.998   0.251  13.696  1.2790 -0.5918 -1.7943
18694TIP3    H277498   4.005   0.379  13.615 -0.4806  0.8070  0.1434
18695TIP3   OH277499   0.688   3.653   1.785  0.1397 -0.3264  0.7311
18695TIP3    H177500   0.668   3.642   1.692  1.7334  0.4459  0.2675
18695TIP3    H277501   0.764   3.598   1.800 -0.2964 -0.6876  1.6761
18696TIP3   OH277502   5.783   3.743   5.169  0.1010  0.2934  0.2939
18696TIP3    H177503   5.765   3.651   5.150  1.7739  0.0118 -0.1022
18696TIP3    H277504   5.857   3.765   5.113  0.6699  1.4736  1.4494
18697TIP3   OH277505   6.037   2.377  14.742  0.2215 -0.6967  0.3948
18697TIP3    H177506   5.974   2.322  14.789 -1.1823 -0.1470 -0.7578
18697TIP3    H277507   6.047   2.454  14.797 -0.8445 -0.3795  0.1687
18698TIP3   OH277508   2.680   6.435  11.733  0.4020  0.3434  0.3069
18698TIP3    H177509   2.760   6.415  11.686  1.4798  1.0292  1.7673
18698TIP3    H277510   2.619   6.365  11.709  2.2310 -1.6134  1.0315
18699TIP3   OH277511   4.144   1.126   4.149 -0.9580 -0.5419  0.1679
18699TIP3    H177512   4.138   1.175   4.231  1.4764  0.6682 -0.2878
18699TIP3    H277513   4.136   1.034   4.176 -2.4766 -0.0796  1.4308
18700TIP3   OH277514   2.049   3.515   2.800 -0.5663 -0.2858 -0.1008
18700TIP3    H177515   2.125   3.542   2.852 -0.2658  0.5079 -0.9169
18700TIP3    H277516   1.989   3.476   2.863  0.3550 -0.5664  0.6194
18701TIP3   OH277517   6.018   0.516  15.309  0.4623 -0.5133 -0.0923
18701TIP3    H177518   5.951   0.525  15.241  0.0750  1.6545  0.4876
18701TIP3    H277519   5.971   0.484  15.385  0.1304  0.6058  0.1915
18702TIP3   OH277520   6.087   1.787   5.944  0.6422  0.4588 -0.0052
18702TIP3    H177521   6.172   1.824   5.969 -0.5461  1.1181  3.7128
18702TIP3    H277522   6.097   1.693   5.953  0.6700  0.6095  1.8247
18703TIP3   OH277523   2.466   3.140  15.079  0.0892 -0.1820 -0.4404
18703TIP3    H177524   2.506   3.054  15.087 -0.2612 -0.2084  1.2329
18703TIP3    H277525   2.537   3.202  15.094  0.6988 -0.0751 -3.1743
18704TIP3   OH277526   0.369   4.352   3.719 -0.4312 -0.0253  0.3446
18704TIP3    H177527   0.398   4.261   3.719 -1.1743 -0.2807 -0.5290
18704TIP3    H277528   0.428   4.396   3.780 -1.2312 -1.4282  2.1936
18705TIP3   OH277529   3.324   1.065   5.683 -0.2311 -0.1037  0.2687
18705TIP3    H177530   3.309   1.150   5.724 -2.1038  0.1989 -0.8785
18705TIP3    H277531   3.346   1.085   5.592  1.8934 -0.8095  0.5817
18706TIP3   OH277532   6.231   5.196  14.258 -0.0514  0.1156 -1.1940
18706TIP3    H177533   6.273   5.262  14.204  0.3667  0.2765 -0.6717
18706TIP3    H277534   6.300   5.133  14.278 -0.0526  0.3907 -0.3207
18707TIP3   OH277535   0.372   4.490   0.483  0.5622  0.7979 -0.5753
18707TIP3    H177536   0.341   4.455   0.400  0.8338 -1.7237  0.2996
18707TIP3    H277537   0.298   4.479   0.543  1.1831  0.2248  0.1055
18708TIP3   OH277538   2.017   3.631  17.135  0.3197 -0.3683 -0.3269
18708TIP3    H177539   2.012   3.685  17.214  0.8136  0.1937 -0.6647
18708TIP3    H277540   2.086   3.672  17.083  0.5747 -1.2219 -0.6824
18709TIP3   OH277541   1.861   5.366   3.636 -0.4545  0.0410  0.4341
18709TIP3    H177542   1.902   5.326   3.713 -0.2256 -0.6211 -0.0186
18709TIP3    H277543   1.895   5.315   3.562 -1.2404  0.1959 -0.0458
18710TIP3   OH277544   3.833   4.650  10.864  0.0511 -0.4542 -0.0539
18710TIP3    H177545   3.905   4.656  10.927 -0.5777  1.3412  0.5462
18710TIP3    H277546   3.870   4.601  10.791  2.1078  0.8959 -0.0171
18711TIP3   OH277547   5.244   5.778  14.238 -0.2715 -0.3196 -1.1440
18711TIP3    H177548   5.302   5.705  14.219  1.4208  0.9638 -1.2076
18711TIP3    H277549   5.291   5.855  14.206 -0.7228  1.1031  1.3232
18712TIP3   OH277550   2.980   4.177  14.179 -0.7237 -0.2279 -0.4948
18712TIP3    H177551   2.927   4.228  14.240 -0.6886 -0.4855 -0.2483
18712TIP3    H277552   2.917   4.129  14.126 -0.8101  1.1062 -1.6461
18713TIP3   OH277553   5.169   4.244  16.084 -0.5512 -0.0161 -0.1750
18713TIP3    H177554   5.224   4.265  16.009  1.8468 -2.5513  0.7152
18713TIP3    H277555   5.180   4.318  16.143  0.3073  0.4363 -0.8794
18714TIP3   OH277556   1.497   3.470  14.235 -0.1011  0.1362  0.0356
18714TIP3    H177557   1.403   3.457  14.251 -0.2580 -1.7798 -1.8885
18714TIP3    H277558   1.502   3.553  14.188 -1.1013 -0.5905 -1.4415
18715TIP3   OH277559   5.290   2.786   0.461 -0.3663 -0.3022  0.4753
18715TIP3    H177560   5.369   2.763   0.413  1.0536  1.8522  1.6177
18715TIP3    H277561   5.305   2.753   0.549 -0.5773  0.4216  0.7881
18716TIP3   OH277562   5.571   5.295  11.429 -0.2654 -0.3179  0.3264
18716TIP3    H177563   5.627   5.316  11.354  0.9309 -0.8661  1.0314
18716TIP3    H277564   5.627   5.243  11.486 -1.6315 -1.1924  0.9024
18717TIP3   OH277565   3.258   5.998  17.146 -0.3146  0.2979 -0.4688
18717TIP3    H177566   3.208   6.053  17.086 -0.4323  0.8822  0.1491
18717TIP3    H277567   3.338   5.976  17.098 -0.3603  0.8366 -0.8012
18718TIP3   OH277568   6.604   4.932  11.742  0.2320  0.1425 -0.0767
18718TIP3    H177569   6.586   4.975  11.825  0.3742 -0.4785  0.2798
18718TIP3    H277570   6.518   4.905  11.709  0.1793  0.3523 -0.1070
18719TIP3   OH277571   0.324   5.582  15.528  0.3275  0.3976 -0.2603
18719TIP3    H177572   0.356   5.638  15.598  0.5029 -0.9447  0.7760
18719TIP3    H277573   0.287   5.642  15.464  0.6634  1.6929  0.7248
18720TIP3   OH277574   0.759   2.585   2.269  0.3932  0.1848  0.1381
18720TIP3    H177575   0.810   2.564   2.190  1.4475  1.9195  0.2922
18720TIP3    H277576   0.696   2.651   2.240 -0.1153 -0.1409  0.4836
18721TIP3   OH277577   6.754   6.503   0.333  0.6622  0.0488 -0.6138
18721TIP3    H177578   6.783   6.478   0.246  1.7654  0.9958 -0.5472
18721TIP3    H277579   6.757   6.598   0.333  2.9681  0.0861  1.1347
18722TIP3   OH277580   3.072   0.714   1.134  0.5399  0.4958 -0.4560
18722TIP3    H177581   3.035   0.635   1.173 -3.4226  2.3605  0.0482
18722TIP3    H277582   3.139   0.742   1.196  0.3165 -1.1539  0.5980
18723TIP3   OH277583   2.254   3.096   1.346  0.2950 -0.0582 -0.6527
18723TIP3    H177584   2.165   3.072   1.373  0.5921  0.2913  0.7132
18723TIP3    H277585   2.285   3.153   1.417  1.7606 -0.5207 -0.9064
18724TIP3   OH277586   4.895   2.080  12.502 -0.0714  0.1058 -0.4853
18724TIP3    H177587   4.925   2.149  12.562  2.2118 -0.3288 -1.0355
18724TIP3    H277588   4.959   2.080  12.432 -1.2998 -1.0976 -1.6673
18725TIP3   OH277589   3.577   1.817  14.860 -0.3201  0.2745  0.6805
18725TIP3    H177590   3.487   1.849  14.869  0.7847  3.8049  0.6869
18725TIP3    H277591   3.610   1.815  14.950  0.3906  1.8086  0.4910
18726TIP3   OH277592   1.520   5.924   3.078  0.3497 -0.1878 -0.5661
18726TIP3    H177593   1.542   5.931   2.985 -0.8113 -1.0604 -0.9365
18726TIP3    H277594   1.431   5.890   3.079 -0.1927  1.1585  0.8703
18727TIP3   OH277595   2.148   2.388   3.001 -0.5192 -0.5208 -0.2456
18727TIP3    H177596   2.095   2.467   3.004  0.6274  0.2589  0.5333
18727TIP3    H277597   2.197   2.394   2.919 -3.3977 -2.5053 -2.2736
18728TIP3   OH277598   4.427   6.528   0.682  0.5209 -0.1559 -0.4790
18728TIP3    H177599   4.475   6.608   0.704 -0.8026 -0.0061  2.2916
18728TIP3    H277600   4.448   6.513   0.590  3.1711  1.7066 -0.3228
18729TIP3   OH277601   6.363   1.851   4.451 -0.6179  0.2188  0.0704
18729TIP3    H177602   6.382   1.778   4.393  1.1280  1.2521 -0.7207
18729TIP3    H277603   6.269   1.845   4.468 -0.6542 -1.6919 -0.6455
18730TIP3   OH277604   4.676   1.497  12.335  0.6644 -0.0657  0.2457
18730TIP3    H177605   4.722   1.446  12.402 -0.2288  0.3216  1.1751
18730TIP3    H277606   4.593   1.521  12.376 -0.6488 -1.2389 -1.5838
18731TIP3   OH277607   6.266   2.950   5.831  0.5012 -0.5998 -0.2309
18731TIP3    H177608   6.180   2.985   5.853  0.0050 -0.9924 -1.4437
18731TIP3    H277609   6.309   3.021   5.783  0.5560 -0.6838 -0.3058
18732TIP3   OH277610   1.624   4.841  13.356  0.0405  0.1364 -0.4212
18732TIP3    H177611   1.672   4.836  13.439 -1.2255 -2.0084  0.2811
18732TIP3    H277612   1.628   4.933  13.331  0.1143  0.9597  2.2646
18733TIP3   OH277613   4.190   3.710   2.680  0.8265  0.2457  0.0713
18733TIP3    H177614   4.102   3.747   2.680  1.0560  0.9703 -2.3250
18733TIP3    H277615   4.247   3.784   2.657  2.0697 -0.2487  1.3958
18734TIP3   OH277616   5.929   3.112  10.800 -0.0159 -0.6373  0.5191
18734TIP3    H177617   5.836   3.095  10.815  0.1701 -0.3565  2.1370
18734TIP3    H277618   5.930   3.183  10.736 -0.9052 -0.6950  0.4242
18735TIP3   OH277619   0.612   0.854   4.899 -0.0408  0.7372  0.3613
18735TIP3    H177620   0.621   0.875   4.992 -1.3395 -0.5916  0.8426
18735TIP3    H277621   0.522   0.821   4.891  0.3689 -0.1017 -1.1670
18736TIP3   OH277622   2.973   0.005   2.187  0.1150  0.2562  0.8255
18736TIP3    H177623   2.910  -0.062   2.161 -1.0169  1.6589 -0.2151
18736TIP3    H277624   2.942   0.085   2.144  1.3983  1.4614  2.0423
18737TIP3   OH277625   5.042   6.189   0.289 -0.1313  0.3086  0.6561
18737TIP3    H177626   5.067   6.198   0.381 -1.8203  1.3393  1.0717
18737TIP3    H277627   4.967   6.248   0.279 -0.8970 -0.8757 -1.0278
18738TIP3   OH277628   2.031   5.396  15.435 -0.4325  0.1933  0.0042
18738TIP3    H177629   1.989   5.408  15.520 -1.7251 -1.6872 -0.3161
18738TIP3    H277630   2.120   5.369  15.457  0.3544  2.9875  0.6915
18739TIP3   OH277631   3.607   0.596   2.691 -0.8426  0.6635  0.0378
18739TIP3    H177632   3.596   0.588   2.597 -1.7554  2.2393 -0.0246
18739TIP3    H277633   3.610   0.690   2.708  1.7702  0.4326  1.3506
18740TIP3   OH277634   6.551   3.870   3.300 -0.7398  0.7443 -0.3779
18740TIP3    H177635   6.585   3.798   3.247  1.1281  1.8905 -0.8227
18740TIP3    H277636   6.512   3.930   3.237 -0.8369  0.8920 -0.1799
18741TIP3   OH277637   1.638   1.081   5.517 -0.3656  0.0951 -0.4554
18741TIP3    H177638   1.646   1.150   5.452 -1.1818 -0.5084 -1.2127
18741TIP3    H277639   1.676   1.119   5.597  2.4078  0.1856 -1.7065
18742TIP3   OH277640   0.531   1.691  11.184  0.1727 -0.0244  0.4751
18742TIP3    H177641   0.437   1.675  11.190  0.6353 -3.4321  0.4677
18742TIP3    H277642   0.561   1.690  11.275  0.4647 -1.1463  0.3765
18743TIP3   OH277643   0.498   2.734   2.422  0.2548 -0.0544 -0.4229
18743TIP3    H177644   0.410   2.723   2.386  0.1597  1.7343 -0.8431
18743TIP3    H277645   0.525   2.646   2.446 -0.8116 -0.9413 -2.2458
18744TIP3   OH277646   6.456   6.624  13.807  0.0793  0.2361  0.4547
18744TIP3    H177647   6.484   6.706  13.766 -0.3713 -0.4744 -1.4260
18744TIP3    H277648   6.367   6.642  13.838 -1.3265 -0.3229 -2.8279
18745TIP3   OH277649   6.481   5.164  12.864 -0.6639  0.3417  0.2577
18745TIP3    H177650   6.456   5.120  12.945  1.2102 -1.9428 -0.2849
18745TIP3    H277651   6.574   5.185  12.876 -0.2881 -0.2404 -1.3424
18746TIP3   OH277652   2.933   6.659   1.587  0.2333  0.1686 -0.4591
18746TIP3    H177653   3.014   6.653   1.537 -0.0136 -2.0297 -0.7025
18746TIP3    H277654   2.961   6.657   1.678  0.5489  1.5924 -0.5113
18747TIP3   OH277655   2.333   5.810  16.931  0.4130 -0.0152 -1.0054
18747TIP3    H177656   2.361   5.901  16.929 -1.5029  0.6290 -3.3302
18747TIP3    H277657   2.351   5.777  16.843 -0.9514 -1.1785 -0.8904
18748TIP3   OH277658   0.866   6.667  13.841  0.0958  0.1895  0.0226
18748TIP3    H177659   0.874   6.762  13.832 -0.5595  0.1927 -0.7424
18748TIP3    H277660   0.841   6.653  13.932  0.8978  0.6948  0.3295
18749TIP3   OH277661   0.687   3.244  16.722 -0.5894 -0.0194 -0.3204
18749TIP3    H177662   0.669   3.194  16.802 -2.2334  1.2272  0.1527
18749TIP3    H277663   0.745   3.315  16.750 -0.3064 -0.1904 -0.4673
18750TIP3   OH277664   3.351   2.474   2.430 -0.2735  0.0411  0.1455
18750TIP3    H177665   3.274   2.454   2.482  0.0837 -0.1187  0.6194
18750TIP3    H277666   3.351   2.408   2.360 -1.2619  0.8174 -0.6226
18751TIP3   OH277667   5.715   6.355   5.974 -0.0427 -0.4851 -0.1008
18751TIP3    H177668   5.798   6.311   5.991 -0.0233 -0.0603  0.9735
18751TIP3    H277669   5.651   6.284   5.967  0.2924 -0.7780 -0.1978
18752TIP3   OH277670   0.290   4.902  15.749  0.5435 -0.1516  0.0644
18752TIP3    H177671   0.312   4.903  15.842  0.8644  0.7005 -0.0066
18752TIP3    H277672   0.367   4.864  15.706 -0.0363 -1.5744  0.2270
18753TIP3   OH277673   2.869   1.051  15.047 -0.2845  0.0864  0.0116
18753TIP3    H177674   2.896   0.989  14.979 -2.5048  0.2597 -1.1178
18753TIP3    H277675   2.904   1.135  15.018  2.3790 -0.4741  1.3329
18754TIP3   OH277676   5.853   1.158  12.380 -0.1032  0.2724 -0.3749
18754TIP3    H177677   5.761   1.143  12.356  0.0367  0.0848 -0.8028
18754TIP3    H277678   5.889   1.070  12.393  0.0551  0.3418 -0.3485
18755TIP3   OH277679   0.493   6.772  14.615 -0.3323 -0.9753  0.0896
18755TIP3    H177680   0.553   6.829  14.567 -1.3661 -1.4673 -1.8804
18755TIP3    H277681   0.456   6.829  14.683  0.0941  0.1611 -0.6029
18756TIP3   OH277682   0.109   5.445   2.844 -0.1798  0.5499 -0.4970
18756TIP3    H177683   0.057   5.516   2.806  2.6075  4.0011  1.4857
18756TIP3    H277684   0.198   5.462   2.813  1.1002 -0.1730  2.4729
18757TIP3   OH277685   5.198   2.432  13.577 -0.1126 -0.2463 -0.2731
18757TIP3    H177686   5.293   2.439  13.587  0.0750 -1.8973 -0.6664
18757TIP3    H277687   5.184   2.416  13.484 -1.0433  3.1210 -0.8224
18758TIP3   OH277688   2.131   0.204  11.264  0.1494  0.6427  0.0387
18758TIP3    H177689   2.077   0.250  11.200  0.8069  1.2526 -0.1057
18758TIP3    H277690   2.221   0.220  11.233  0.6113  2.6043  2.1346
18759TIP3   OH277691   6.332   2.219  15.091  0.1440 -0.3565 -0.3821
18759TIP3    H177692   6.359   2.195  15.003  1.4993 -0.4741  0.0483
18759TIP3    H277693   6.395   2.286  15.118 -1.6074  1.3932 -0.3398
18760TIP3   OH277694   5.078   3.611   5.326 -0.8083  0.1636  0.3627
18760TIP3    H177695   5.142   3.550   5.363 -2.4009 -1.6276  0.3541
18760TIP3    H277696   5.017   3.630   5.398  0.1528  2.5584  0.6294
18761TIP3   OH277697   0.623   4.574  15.622 -0.0029 -0.1220 -0.4348
18761TIP3    H177698   0.675   4.508  15.669 -0.0718  0.1946  0.0963
18761TIP3    H277699   0.532   4.548  15.637 -0.0150 -0.2704 -0.7655
18762TIP3   OH277700   4.602   3.479   3.569 -0.7404 -0.0396 -0.0243
18762TIP3    H177701   4.524   3.441   3.609 -1.3874 -0.6009 -1.7221
18762TIP3    H277702   4.569   3.556   3.522 -0.4708 -0.7786 -1.4936
18763TIP3   OH277703   1.001   2.243  13.600  0.1949  0.0928  0.5747
18763TIP3    H177704   0.977   2.309  13.536 -0.9423  0.1954  1.0720
18763TIP3    H277705   0.930   2.179  13.595  1.5704 -1.4308 -0.3283
18764TIP3   OH277706   0.561   6.796  15.308 -0.2008 -0.4676  0.2296
18764TIP3    H177707   0.621   6.723  15.294  0.2742 -0.0068 -0.1767
18764TIP3    H277708   0.564   6.811  15.403  2.6004  1.4036 -0.0169
18765TIP3   OH277709   4.518   6.221   3.060  0.1899  0.2566  0.2811
18765TIP3    H177710   4.553   6.309   3.049 -0.4008  0.7100  1.7973
18765TIP3    H277711   4.536   6.199   3.151  0.5155 -1.2917 -0.1168
18766TIP3   OH277712   5.799   3.369  12.486  0.4897 -0.1433 -0.1253
18766TIP3    H177713   5.734   3.434  12.459  0.6166 -0.9135 -2.5439
18766TIP3    H277714   5.877   3.420  12.508 -0.0317  0.6217 -0.0201
18767TIP3   OH277715   6.371   2.461  13.948 -0.2797 -0.0308 -0.3108
18767TIP3    H177716   6.453   2.434  13.989 -1.4194 -1.7847  1.0075
18767TIP3    H277717   6.360   2.401  13.874 -0.3632  0.2200 -0.5042
18768TIP3   OH277718   6.125   6.144  14.754 -0.3302  0.6299  0.1042
18768TIP3    H177719   6.122   6.191  14.670  1.4476  0.8227  0.1105
18768TIP3    H277720   6.044   6.093  14.755  0.3839 -0.7872 -2.5958
18769TIP3   OH277721   6.109   1.461   2.947  0.3706 -0.1235 -0.2536
18769TIP3    H177722   6.053   1.469   3.024  1.8838  2.3473  0.7070
18769TIP3    H277723   6.198   1.468   2.981  1.2530 -2.2405 -1.9221
18770TIP3   OH277724   3.388   0.109  10.489 -0.4414 -0.1655  0.3761
18770TIP3    H177725   3.293   0.100  10.495 -0.9056  2.3346 -1.4664
18770TIP3    H277726   3.413   0.153  10.570 -1.3215  1.6128 -0.2598
18771TIP3   OH277727   6.743   2.642  16.981 -0.4836  0.3546 -0.3895
18771TIP3    H177728   6.819   2.589  16.957  0.2195  1.8993 -1.8845
18771TIP3    H277729   6.771   2.690  17.059  0.0780  0.8551 -0.8861
18772TIP3   OH277730   0.542   4.344  14.140  0.0505 -0.4765  0.1467
18772TIP3    H177731   0.563   4.253  14.119  1.8384 -0.2207  0.6387
18772TIP3    H277732   0.599   4.365  14.214  1.1148  1.6036 -1.1734
18773TIP3   OH277733   4.652   6.663   0.404 -0.4493 -0.9478 -0.2827
18773TIP3    H177734   4.689   6.609   0.474  0.0245  0.8804  0.9419
18773TIP3    H277735   4.728   6.699   0.358 -0.7368 -0.1508 -0.1441
18774TIP3   OH277736   3.622   4.394  13.513 -0.2454 -0.2511  0.0075
18774TIP3    H177737   3.604   4.448  13.437  1.2823  0.8901  0.4082
18774TIP3    H277738   3.596   4.449  13.588 -0.0144 -0.6287  0.3684
18775TIP3   OH277739   3.527   1.507  16.569 -0.1933  0.2986  0.1825
18775TIP3    H177740   3.563   1.443  16.630 -2.4870 -0.2685  1.0818
18775TIP3    H277741   3.543   1.592  16.611  0.8431  0.1463  0.1038
18776TIP3   OH277742   3.540   3.618  14.227 -0.7091 -0.8462  0.4558
18776TIP3    H177743   3.558   3.595  14.136 -2.9669 -0.4960 -0.1547
18776TIP3    H277744   3.616   3.670  14.253 -1.1567  1.3890 -2.1567
18777TIP3   OH277745   2.884   2.875  14.293  0.5687  0.2496  0.3757
18777TIP3    H177746   2.958   2.820  14.319 -1.4334 -2.3094  1.0743
18777TIP3    H277747   2.821   2.866  14.364 -0.9122  1.4332 -0.7119
18778TIP3   OH277748   5.946   5.728  13.566  0.3813  0.0689 -0.4079
18778TIP3    H177749   6.002   5.724  13.489  1.9595  1.3572  0.6196
18778TIP3    H277750   5.912   5.817  13.568  0.5066  0.1112  0.4746
18779TIP3   OH277751   4.368   6.484   4.809  0.6638 -0.8486  0.0345
18779TIP3    H177752   4.316   6.555   4.772 -2.3077 -1.4012  2.7241
18779TIP3    H277753   4.428   6.527   4.869  1.2670 -0.4241 -0.8477
18780TIP3   OH277754   5.364   3.268   0.486 -0.6888  0.1029 -0.1972
18780TIP3    H177755   5.406   3.204   0.542  0.0591 -0.2358 -1.1118
18780TIP3    H277756   5.282   3.289   0.530 -0.0137  0.0478  1.1345
18781TIP3   OH277757   2.278   6.411   4.046  0.0340  0.2722 -0.4363
18781TIP3    H177758   2.218   6.479   4.014  0.2152  0.2438 -0.8492
18781TIP3    H277759   2.222   6.338   4.070 -0.1700  0.5960  0.0855
18782TIP3   OH277760   0.285   3.467   3.479 -0.0517 -0.5971 -0.1567
18782TIP3    H177761   0.196   3.442   3.503 -0.7339  0.4058 -1.5374
18782TIP3    H277762   0.282   3.483   3.385  1.3757  0.3511 -0.0830
18783TIP3   OH277763   2.557   2.127  11.849 -0.2326  0.1417 -0.0678
18783TIP3    H177764   2.606   2.164  11.923 -1.4855 -0.6193  1.1952
18783TIP3    H277765   2.474   2.174  11.849 -0.6461 -0.5724 -0.3459
18784TIP3   OH277766   6.472   3.532   3.972 -0.2166  0.5382 -0.2395
18784TIP3    H177767   6.470   3.555   3.879 -1.9990  0.2539 -0.3016
18784TIP3    H277768   6.387   3.494   3.990  0.1972  0.3044  1.4625
18785TIP3   OH277769   0.749   5.662  15.658  0.0037  0.6250 -0.3197
18785TIP3    H177770   0.695   5.658  15.736 -0.1497 -1.6148 -0.4610
18785TIP3    H277771   0.787   5.750  15.659  2.5517 -0.2073  4.0077
18786TIP3   OH277772   0.790   0.095   5.343 -0.6892  0.1910 -0.1136
18786TIP3    H177773   0.766   0.097   5.250  0.7529 -0.0057 -0.5241
18786TIP3    H277774   0.820   0.005   5.358 -0.1410  0.4402  0.3247
18787TIP3   OH277775   5.984   6.583   6.020 -0.0970  0.0973  0.5573
18787TIP3    H177776   5.977   6.649   5.951  0.8059  1.0601  1.3440
18787TIP3    H277777   6.045   6.518   5.985 -0.9906 -0.3411 -0.2229
18788TIP3   OH277778   5.581   3.044   2.085 -0.0899 -0.0614  0.2327
18788TIP3    H177779   5.602   2.955   2.056 -1.5261 -0.8017  1.3588
18788TIP3    H277780   5.486   3.045   2.091 -0.0332  1.2615  1.2108
18789TIP3   OH277781   5.424   1.337   5.068  0.7772 -0.3926  0.2919
18789TIP3    H177782   5.369   1.266   5.035  1.5776 -0.0448 -1.9615
18789TIP3    H277783   5.503   1.294   5.101  1.1968 -0.5745 -0.9306
18790TIP3   OH277784   6.485   0.098   1.960 -0.1390  0.4645  0.3229
18790TIP3    H177785   6.532   0.101   1.877 -0.8121 -0.5387 -0.1162
18790TIP3    H277786   6.394   0.081   1.935 -0.7044  2.0519  1.1643
18791TIP3   OH277787   3.382   4.843   3.397 -0.6122 -0.4719 -1.1014
18791TIP3    H177788   3.328   4.765   3.413 -1.5810 -0.0392 -2.1288
18791TIP3    H277789   3.326   4.901   3.345  0.5103  0.4121 -1.3735
18792TIP3   OH277790   4.372   5.464  13.286 -0.0458  0.4887 -0.6080
18792TIP3    H177791   4.410   5.383  13.252  2.1799  0.7968  0.9677
18792TIP3    H277792   4.411   5.475  13.373 -1.6238  2.3668 -0.0612
18793TIP3   OH277793   2.454   3.625  11.700  0.2487  0.6088  0.4201
18793TIP3    H177794   2.421   3.647  11.786  3.3706 -0.4770  2.0709
18793TIP3    H277795   2.529   3.684  11.687 -1.1583  2.0073 -2.4436
18794TIP3   OH277796   1.999   1.404   4.067  0.3019  0.2767  0.1019
18794TIP3    H177797   1.933   1.381   4.132  0.6302  0.7390  0.5986
18794TIP3    H277798   2.059   1.463   4.112  0.3002  0.9385 -0.7276
18795TIP3   OH277799   1.206   4.607  10.462 -0.4792 -0.1489 -0.0353
18795TIP3    H177800   1.130   4.564  10.502 -1.0015 -0.6866 -1.5359
18795TIP3    H277801   1.169   4.684  10.418 -0.0024  0.1461  0.0838
18796TIP3   OH277802   3.187   3.322  13.948 -0.2279 -0.0966  0.4764
18796TIP3    H177803   3.125   3.384  13.986 -0.1156 -0.6934  1.6589
18796TIP3    H277804   3.263   3.325  14.006  0.2231 -0.5257 -0.0836
18797TIP3   OH277805   4.559   0.965  11.001 -0.3882  0.5169  0.3202
18797TIP3    H177806   4.546   0.885  10.950  0.4805  0.1541  0.6458
18797TIP3    H277807   4.576   1.033  10.936  1.1560 -0.0246  0.1027
18798TIP3   OH277808   6.757   3.116  11.244 -0.3877 -0.5011 -0.5289
18798TIP3    H177809   6.831   3.056  11.251  1.3399  1.4561 -0.7645
18798TIP3    H277810   6.773   3.164  11.162 -0.3490  1.8343  0.7455
18799TIP3   OH277811   4.160   2.900  13.273 -0.2598  0.7096  0.0736
18799TIP3    H177812   4.154   2.804  13.279  0.9179  0.6659  0.9817
18799TIP3    H277813   4.089   2.932  13.329 -1.1437  0.3974 -0.8310
18800TIP3   OH277814   4.249   5.532  15.668  0.7492  0.7638  0.4503
18800TIP3    H177815   4.157   5.529  15.645  1.1421 -0.6097 -1.2167
18800TIP3    H277816   4.270   5.625  15.676 -0.4084  1.1549 -0.7950
18801TIP3   OH277817   3.172   6.739   2.561 -0.0349 -0.3995  0.3599
18801TIP3    H177818   3.134   6.815   2.516  0.6501  0.4932  1.2505
18801TIP3    H277819   3.098   6.700   2.608 -0.0391  0.9056  1.4994
18802TIP3   OH277820   4.501   5.416  11.688  0.0784 -0.5508  0.2961
18802TIP3    H177821   4.453   5.409  11.771  1.6414 -0.4713  1.2520
18802TIP3    H277822   4.588   5.446  11.714  0.0490  1.3852 -1.5738
18803TIP3   OH277823   5.546   2.784  14.503  0.1468  0.1390 -0.0865
18803TIP3    H177824   5.476   2.738  14.549 -1.4320  2.8737  0.4675
18803TIP3    H277825   5.540   2.753  14.413 -0.4052 -1.1640  0.3645
18804TIP3   OH277826   0.511   1.500  17.093  0.0010 -0.0624 -0.1583
18804TIP3    H177827   0.484   1.514  17.002 -0.4778 -1.8140 -0.3232
18804TIP3    H277828   0.553   1.414  17.092 -0.2013 -0.1975  1.3114
18805TIP3   OH277829   3.113   4.579   0.432  0.1799  0.4305  0.1654
18805TIP3    H177830   3.174   4.549   0.499  1.8957  0.4351 -1.2945
18805TIP3    H277831   3.038   4.614   0.480  1.0401 -0.1793  2.0265
18806TIP3   OH277832   4.473   5.690  12.749  0.0454 -0.0146  0.0420
18806TIP3    H177833   4.506   5.724  12.832  1.0305  0.2733 -0.4532
18806TIP3    H277834   4.549   5.688  12.691 -0.3852 -1.2537 -0.5355
18807TIP3   OH277835   3.698   2.677   4.683 -0.2548  0.3570  0.4497
18807TIP3    H177836   3.785   2.638   4.677 -0.2742  0.3248  0.3826
18807TIP3    H277837   3.641   2.604   4.709  0.3697  1.0827  4.6909
18808TIP3   OH277838   3.821   5.870  15.184  0.3172  0.4680  0.4022
18808TIP3    H177839   3.759   5.863  15.257  1.6311  0.9798  1.6281
18808TIP3    H277840   3.868   5.787  15.184 -0.6104 -0.0758 -0.7776
18809TIP3   OH277841   4.634   5.018  11.175  0.0802  0.0343 -0.5632
18809TIP3    H177842   4.663   4.974  11.096 -0.9291 -0.1253 -0.8634
18809TIP3    H277843   4.539   5.024  11.165 -0.0825 -0.1508  0.7123
18810TIP3   OH277844   0.593   6.553  16.857 -0.2611 -0.4396  0.4482
18810TIP3    H177845   0.649   6.550  16.779  0.0391  0.1074  0.6378
18810TIP3    H277846   0.644   6.603  16.921 -1.1444  0.4529  0.4782
18811TIP3   OH277847   6.534   5.818   1.111  0.1052  0.6087  0.1969
18811TIP3    H177848   6.447   5.800   1.077 -0.8275  0.2142  2.5919
18811TIP3    H277849   6.575   5.732   1.122 -1.0363  0.3478  3.3951
18812TIP3   OH277850   0.862   6.726  15.362  0.1932 -0.3104  0.1332
18812TIP3    H177851   0.869   6.644  15.313  0.2043  0.0338 -0.4490
18812TIP3    H277852   0.821   6.701  15.445  0.0696 -0.8783 -0.0940
18813TIP3   OH277853   3.901   4.267   1.825 -0.5163 -0.0764 -0.7405
18813TIP3    H177854   3.811   4.295   1.845 -0.2870 -0.6569  1.3275
18813TIP3    H277855   3.953   4.347   1.835 -0.6466  0.0256 -0.8568
18814TIP3   OH277856   1.289   5.739  14.203  0.1277 -0.2850  0.2298
18814TIP3    H177857   1.215   5.790  14.169  0.1664 -0.9563 -0.9278
18814TIP3    H277858   1.326   5.793  14.272 -1.6705 -0.0928  1.1053
18815TIP3   OH277859   1.575   4.572  15.771 -0.4284 -0.9994 -0.3584
18815TIP3    H177860   1.558   4.658  15.731  1.9930  0.9785  2.4076
18815TIP3    H277861   1.489   4.540  15.797 -1.2529  1.9129  0.8851
18816TIP3   OH277862   5.828   2.298   2.062 -0.6065 -0.0316  0.1132
18816TIP3    H177863   5.735   2.287   2.082 -0.5835 -1.1435 -0.2929
18816TIP3    H277864   5.830   2.354   1.984 -0.9739 -0.4897 -0.2295
18817TIP3   OH277865   5.392   3.850  14.854  0.2882  0.2901  0.3232
18817TIP3    H177866   5.409   3.829  14.762  2.4711 -0.0137  0.7356
18817TIP3    H277867   5.337   3.778  14.885  3.2330 -2.1645  0.3202
18818TIP3   OH277868   0.035   1.287   1.910  0.4468 -0.7755  0.1138
18818TIP3    H177869   0.023   1.244   1.995  3.4336 -2.4878 -0.1887
18818TIP3    H277870   0.036   1.214   1.847 -1.4308  0.4345 -1.4154
18819TIP3   OH277871   6.182   3.920  16.219  0.3468  0.2105  0.2315
18819TIP3    H177872   6.236   3.913  16.298 -0.0770 -0.6641  0.4639
18819TIP3    H277873   6.094   3.896  16.248  0.4258 -1.4843 -0.7527
18820TIP3   OH277874   3.720   6.225   0.471 -0.2184 -0.6440 -0.1703
18820TIP3    H177875   3.739   6.286   0.542 -0.7008 -1.5274  0.7461
18820TIP3    H277876   3.653   6.269   0.419  1.3128  0.7314 -1.0741
18821TIP3   OH277877   1.649   0.796  12.742  0.2724  0.1136  0.5055
18821TIP3    H177878   1.643   0.704  12.716  1.7300 -0.1127  0.8906
18821TIP3    H277879   1.620   0.845  12.665 -3.5615 -0.6395  1.2534
18822TIP3   OH277880   1.367   2.668   2.066  0.5555  0.3156  0.0108
18822TIP3    H177881   1.322   2.730   2.009  3.0861  2.1706 -0.1474
18822TIP3    H277882   1.455   2.659   2.029  0.8767 -1.9688  1.1053
18823TIP3   OH277883   4.767   2.965  12.761 -0.1035 -0.2569 -0.1087
18823TIP3    H177884   4.842   2.922  12.719  0.0879  0.4725 -0.5395
18823TIP3    H277885   4.700   2.897  12.766 -0.4389 -0.1776 -2.3686
18824TIP3   OH277886   0.197   4.856   1.675 -0.4401  0.2570 -0.3807
18824TIP3    H177887   0.235   4.815   1.597 -0.9475 -0.8507 -0.0677
18824TIP3    H277888   0.187   4.784   1.737 -1.6096  0.8139  0.1034
18825TIP3   OH277889   2.169   3.402   5.002  0.0079  0.1163 -0.2312
18825TIP3    H177890   2.112   3.384   5.077 -0.4675 -0.3478 -0.6967
18825TIP3    H277891   2.232   3.467   5.034 -0.3910  0.1584  0.4729
18826TIP3   OH277892   0.868   2.571   4.119 -0.1608 -0.2031 -0.2070
18826TIP3    H177893   0.885   2.509   4.049 -4.0362  0.3016 -1.8658
18826TIP3    H277894   0.882   2.657   4.079  2.3955  0.1786  1.2481
18827TIP3   OH277895   4.104   4.521  13.499  0.3862 -0.7617  0.3120
18827TIP3    H177896   4.049   4.445  13.478  1.1672 -1.7021  1.5463
18827TIP3    H277897   4.111   4.568  13.416 -2.3507 -0.5174  0.1064
18828TIP3   OH277898   0.303   3.974  15.008  0.8723 -0.1300 -0.1811
18828TIP3    H177899   0.244   4.036  14.966 -0.3056  0.7470  2.4921
18828TIP3    H277900   0.251   3.894  15.018 -0.0814  0.6774  2.2742
18829TIP3   OH277901   0.909   3.153  17.086 -0.1983 -0.2881  0.0724
18829TIP3    H177902   0.819   3.157  17.055 -0.8847 -1.2762  1.8147
18829TIP3    H277903   0.959   3.123  17.011 -1.6470 -1.7919 -0.3415
18830TIP3   OH277904   4.581   2.911   5.304  0.1514  0.2121 -0.1211
18830TIP3    H177905   4.583   2.909   5.208  0.2797  0.1091 -0.1172
18830TIP3    H277906   4.660   2.959   5.328 -0.1276  0.6537 -0.0781
18831TIP3   OH277907   0.541   1.824   1.368  0.3649 -0.4107  0.0476
18831TIP3    H177908   0.577   1.777   1.444 -0.0501 -0.3804  0.2705
18831TIP3    H277909   0.581   1.782   1.292 -0.0274 -1.1637  0.2424
18832TIP3   OH277910   0.851   1.784  14.793 -0.1156  0.3982  0.1147
18832TIP3    H177911   0.756   1.797  14.795 -0.2145  0.2466 -1.6688
18832TIP3    H277912   0.882   1.814  14.879 -1.6782  1.2901  0.3975
18833TIP3   OH277913   2.273   5.144  14.513  0.1940  0.3503 -0.2354
18833TIP3    H177914   2.353   5.147  14.565 -0.7887  0.4617  1.3357
18833TIP3    H277915   2.224   5.221  14.541 -1.0584 -0.4495 -0.1537
18834TIP3   OH277916   1.602   2.021  11.935  0.1493 -0.0044 -0.0700
18834TIP3    H177917   1.544   2.014  11.859 -1.1055  0.9446  0.7630
18834TIP3    H277918   1.585   1.941  11.985  0.0231 -0.0158 -0.1305
18835TIP3   OH277919   0.051   5.783   1.801  0.0164 -0.3051  0.0002
18835TIP3    H177920   0.082   5.873   1.815 -0.4476  0.0037 -0.9402
18835TIP3    H277921  -0.033   5.792   1.757  0.0798 -1.2093 -0.3349
18836TIP3   OH277922   3.702   2.059   1.914 -0.3555 -0.1543  0.3124
18836TIP3    H177923   3.772   2.002   1.881 -0.8277  1.2274 -3.5840
18836TIP3    H277924   3.747   2.124   1.968  0.9376 -0.8973  0.1661
18837TIP3   OH277925   2.906   3.380  16.113  0.0381 -0.4015  0.3379
18837TIP3    H177926   2.876   3.409  16.200 -1.8837  1.2434 -0.7904
18837TIP3    H277927   2.828   3.341  16.073  0.7298 -0.5765 -0.8754
18838TIP3   OH277928   3.528   3.702  15.604 -0.2579 -0.8644 -0.0230
18838TIP3    H177929   3.541   3.611  15.632  0.7004 -0.5123  0.7465
18838TIP3    H277930   3.605   3.749  15.637 -1.8030  0.6791  1.6269
18839TIP3   OH277931   1.178   1.214  12.964  0.4065 -0.1087  0.2260
18839TIP3    H177932   1.093   1.233  12.924  0.2459 -3.3343 -1.2399
18839TIP3    H277933   1.232   1.290  12.941 -1.5154  1.1393 -0.4474
18840TIP3   OH277934   0.636   1.857  14.194 -0.4804 -0.3638 -0.2015
18840TIP3    H177935   0.684   1.783  14.232  0.5597  0.2217 -0.3449
18840TIP3    H277936   0.585   1.818  14.123 -0.0688 -0.9795 -0.1745
18841TIP3   OH277937   1.545   1.878  12.889 -0.4670 -0.5690 -0.1698
18841TIP3    H177938   1.600   1.898  12.813 -0.6071 -0.9085 -0.3631
18841TIP3    H277939   1.494   1.958  12.903  0.2699 -0.1553  0.1840
18842TIP3   OH277940   6.518   3.654   3.146 -0.3683 -0.3119  0.1857
18842TIP3    H177941   6.581   3.589   3.177  0.0896  0.3905  0.7646
18842TIP3    H277942   6.435   3.628   3.188  0.2518  0.6681  2.1595
18843TIP3   OH277943   5.525   4.111  13.651  0.0281 -0.6333  0.3004
18843TIP3    H177944   5.454   4.092  13.589 -0.6913 -1.5920  1.3969
18843TIP3    H277945   5.482   4.114  13.736  1.0250  0.5986  0.7835
18844TIP3   OH277946   5.152   4.761  11.631 -0.7238 -0.4862  0.4740
18844TIP3    H177947   5.064   4.751  11.595 -1.0540 -0.3729  1.2251
18844TIP3    H277948   5.163   4.686  11.689 -0.4190 -0.3633  0.5763
18845TIP3   OH277949   1.408   1.413   3.327 -0.0129  0.1089 -0.0814
18845TIP3    H177950   1.454   1.331   3.306  0.6597  0.2594  0.7250
18845TIP3    H277951   1.475   1.468   3.367 -0.6123  0.8271 -0.0426
18846TIP3   OH277952   2.160   3.865  13.941  0.3779 -0.4222 -0.0172
18846TIP3    H177953   2.133   3.843  14.030 -0.5013  0.5283 -0.0275
18846TIP3    H277954   2.079   3.870  13.892  0.7846 -0.0888 -0.6733
18847TIP3   OH277955   2.169   1.586   1.164 -0.1522  0.0819  0.5387
18847TIP3    H177956   2.251   1.556   1.205  0.9695  2.8540  0.5349
18847TIP3    H277957   2.119   1.624   1.236 -0.7265 -0.1596  0.2675
18848TIP3   OH277958   6.119   4.875   5.003 -0.4592  0.2292  0.2146
18848TIP3    H177959   6.046   4.851   5.060 -0.3864  1.8757  1.0625
18848TIP3    H277960   6.081   4.937   4.941 -0.5575 -1.5956 -1.6716
18849TIP3   OH277961   3.285   3.787   3.565 -0.1714 -0.6447 -0.4022
18849TIP3    H177962   3.286   3.706   3.514  1.5894  1.1250 -3.4761
18849TIP3    H277963   3.201   3.828   3.545 -0.7077 -1.2823  0.4901
18850TIP3   OH277964   2.239   1.868  13.519 -0.1805  0.0466 -0.4098
18850TIP3    H177965   2.325   1.838  13.487 -0.2804 -0.7006  0.0242
18850TIP3    H277966   2.191   1.788  13.538 -1.6491  0.3940 -2.3375
18851TIP3   OH277967   3.709   5.400  16.998 -0.3903 -0.5042 -1.1211
18851TIP3    H177968   3.747   5.432  17.080  0.4533 -3.2791 -0.3081
18851TIP3    H277969   3.764   5.438  16.929 -0.7593  1.4044 -0.4099
18852TIP3   OH277970   3.567   2.536   4.008  0.2938 -0.4513 -0.3112
18852TIP3    H177971   3.628   2.566   3.941  1.0394 -0.8250  0.1869
18852TIP3    H277972   3.488   2.514   3.960  1.0439 -1.3756 -1.1739
18853TIP3   OH277973   1.970   4.895   6.589 -0.0723  0.1235  0.6736
18853TIP3    H177974   2.046   4.843   6.561 -0.9131 -0.9819  0.3864
18853TIP3    H277975   1.975   4.975   6.537  1.4503  0.5182  1.3782
18854TIP3   OH277976   4.218   0.177  16.456 -0.1483 -0.1094  0.2111
18854TIP3    H177977   4.149   0.239  16.480  0.1426 -0.1209  1.0788
18854TIP3    H277978   4.243   0.135  16.538 -0.0225 -1.0588 -0.2990
18855TIP3   OH277979   0.595   2.164   0.949 -0.1113 -0.2630  0.4211
18855TIP3    H177980   0.531   2.231   0.924  0.9125  0.9281  0.8810
18855TIP3    H277981   0.653   2.156   0.874 -0.0322 -0.3765  0.4936
18856TIP3   OH277982   5.933   6.027  12.989 -0.6578 -0.0810 -1.1601
18856TIP3    H177983   5.930   6.088  12.915 -2.6409  2.6408  0.9541
18856TIP3    H277984   6.000   6.063  13.048 -0.7185 -0.9005 -0.5659
18857TIP3   OH277985   4.096   5.038   4.949 -0.1295 -0.0146 -0.1775
18857TIP3    H177986   4.089   5.030   5.044  2.0701 -0.1129  0.0192
18857TIP3    H277987   4.165   5.102   4.935  0.3784 -0.8422 -1.6916
18858TIP3   OH277988   2.464   0.206   2.384  0.5593 -0.2547 -0.2988
18858TIP3    H177989   2.510   0.222   2.466  0.0870 -1.3196  0.2042
18858TIP3    H277990   2.517   0.250   2.318  1.8060 -0.6841  0.3731
18859TIP3   OH277991   2.023   0.389   6.837 -0.6889 -0.3348 -0.4348
18859TIP3    H177992   1.929   0.384   6.821 -0.7180 -0.2525 -0.2849
18859TIP3    H277993   2.058   0.310   6.794 -0.9028 -0.7026  0.0549
18860TIP3   OH277994   0.837   3.748  15.794  0.2851  0.2164 -0.4215
18860TIP3    H177995   0.744   3.742  15.775  0.1912  1.0262 -0.2619
18860TIP3    H277996   0.846   3.829  15.844  1.2147  0.7139 -1.3455
18861TIP3   OH277997   1.514   2.680  11.863 -0.1710  1.0211  1.0879
18861TIP3    H177998   1.528   2.774  11.874  0.6797  1.0626 -0.1334
18861TIP3    H277999   1.421   2.671  11.846 -0.6359  1.4150  3.1656
18862TIP3   OH278000   0.081   4.788   4.529 -0.3842 -0.1720  0.3348
18862TIP3    H178001   0.131   4.850   4.581  0.2299  0.2028 -0.6778
18862TIP3    H278002   0.091   4.704   4.575 -0.1447  0.2150  1.0000
18863TIP3   OH278003   3.803   2.611  12.239 -0.1182  0.4849  0.4995
18863TIP3    H178004   3.839   2.699  12.255  1.4153  0.0172 -0.1712
18863TIP3    H278005   3.802   2.570  12.325  0.2568  0.7720  0.6456
18864TIP3   OH278006   5.768   4.698  12.112 -0.2985 -0.0838  0.2007
18864TIP3    H178007   5.699   4.649  12.156  0.6817 -0.4723  1.3341
18864TIP3    H278008   5.727   4.729  12.031 -1.5013 -1.1348  0.3824
18865TIP3   OH278009   0.880   2.505   3.847 -0.3476 -0.6277 -0.2161
18865TIP3    H178010   0.953   2.471   3.796  1.4230  0.3959  1.4941
18865TIP3    H278011   0.857   2.587   3.803  1.3782  0.4107  0.6782
18866TIP3   OH278012   4.217   1.907   2.400  0.2483  0.9255  0.5658
18866TIP3    H178013   4.214   1.963   2.478  1.1329 -0.8135  1.9208
18866TIP3    H278014   4.301   1.926   2.360 -0.1708  1.7609  0.0585
18867TIP3   OH278015   5.701   4.617   1.842  0.4924 -0.1059  0.3121
18867TIP3    H178016   5.680   4.533   1.801 -1.3583  0.7588 -0.5933
18867TIP3    H278017   5.676   4.605   1.934  2.3577 -1.2357  0.7341
18868TIP3   OH278018   2.384   3.870  16.735  0.1358  0.3918 -0.2156
18868TIP3    H178019   2.373   3.953  16.782 -0.1098 -0.3668  1.1027
18868TIP3    H278020   2.342   3.885  16.650 -3.3354  0.4487  1.3383
18869TIP3   OH278021   3.676   0.726   1.919  0.0215 -0.1540  0.0137
18869TIP3    H178022   3.735   0.778   1.972  0.5210 -0.9102  0.2230
18869TIP3    H278023   3.652   0.652   1.975 -0.4163 -0.3185 -0.3814
18870TIP3   OH278024   0.340   2.739  16.432  0.2609 -0.3412 -0.2187
18870TIP3    H178025   0.392   2.758  16.511  0.2137  3.1479 -0.8695
18870TIP3    H278026   0.266   2.799  16.437 -1.4709 -2.2456 -1.4418
18871TIP3   OH278027   1.136   6.497  16.265 -0.2205  0.1729  0.6600
18871TIP3    H178028   1.070   6.429  16.253  0.9794 -1.0949  0.9973
18871TIP3    H278029   1.102   6.551  16.337 -1.1093 -0.1661  0.5047
18872TIP3   OH278030   2.514   1.080   2.998 -0.2367 -0.9932  0.2044
18872TIP3    H178031   2.494   1.173   3.009  0.2802 -0.5930 -1.8800
18872TIP3    H278032   2.471   1.038   3.072 -2.7856  0.6134 -0.2276
18873TIP3   OH278033   6.254   4.757  14.836 -0.0327 -0.2620 -0.4879
18873TIP3    H178034   6.288   4.714  14.758 -0.3874 -1.2364 -0.1211
18873TIP3    H278035   6.227   4.685  14.894  0.7196  0.4216  0.7597
18874TIP3   OH278036   4.883   3.896   4.976 -0.1994  0.2259  0.5400
18874TIP3    H178037   4.948   3.847   5.026 -0.9663 -0.6762  0.6989
18874TIP3    H278038   4.801   3.883   5.025 -1.2213 -1.6667 -1.5364
18875TIP3   OH278039   3.562   4.683   5.501  0.1083  0.0043  0.1493
18875TIP3    H178040   3.543   4.687   5.595 -1.1961  1.9325 -0.1489
18875TIP3    H278041   3.610   4.601   5.491  0.1318 -0.3526  2.4653
18876TIP3   OH278042   5.072   2.239  16.149  0.2472 -0.3992  0.2307
18876TIP3    H178043   5.147   2.257  16.207  0.6352 -1.0357 -0.0639
18876TIP3    H278044   5.076   2.310  16.084 -0.8860  1.0080  1.6177
18877TIP3   OH278045   6.667   5.433  13.028  0.4833 -0.1813  0.1598
18877TIP3    H178046   6.647   5.486  13.105 -0.0843  0.2729 -0.2910
18877TIP3    H278047   6.669   5.343  13.061 -1.0783 -0.1251  0.4715
18878TIP3   OH278048   3.095   5.299  10.755 -0.0141 -0.1655  0.0786
18878TIP3    H178049   3.092   5.223  10.813  0.4363  0.1566  0.5363
18878TIP3    H278050   3.130   5.369  10.810  2.2520 -0.3151 -1.0593
18879TIP3   OH278051   6.537   3.085  15.813  0.1154  0.3588 -0.5296
18879TIP3    H178052   6.591   3.008  15.831  0.0342  0.3849 -0.1673
18879TIP3    H278053   6.600   3.154  15.792  0.3012  0.6641  0.9036
18880TIP3   OH278054   2.146   2.740  13.306 -0.1795  0.3948  0.1853
18880TIP3    H178055   2.217   2.798  13.279  0.5048 -0.8408 -0.8358
18880TIP3    H278056   2.070   2.769  13.257  0.6931 -0.8871 -2.0907
18881TIP3   OH278057   3.248   1.794   1.365  0.2092  0.4115  0.1639
18881TIP3    H178058   3.293   1.713   1.344 -0.3510  0.4263 -1.2039
18881TIP3    H278059   3.196   1.773   1.443 -0.5770 -0.8073 -0.6480
18882TIP3   OH278060   5.491   2.198   2.924  0.0028  0.1606 -0.0768
18882TIP3    H178061   5.420   2.222   2.865 -0.3448 -0.2231  0.1785
18882TIP3    H278062   5.557   2.266   2.911  1.7957 -1.9794 -3.9316
18883TIP3   OH278063   4.005   4.631   5.293 -0.2333  0.3975  0.5890
18883TIP3    H178064   4.000   4.554   5.350 -0.4739 -0.0872 -0.0749
18883TIP3    H278065   4.089   4.671   5.314 -0.0095 -0.1679  0.7840
18884TIP3   OH278066   5.164   1.707  15.066 -0.1276  0.0024  0.6196
18884TIP3    H178067   5.171   1.651  15.144 -0.5170 -0.6053  0.2293
18884TIP3    H278068   5.151   1.795  15.101  0.8722 -0.0847  1.2470
18885TIP3   OH278069   1.222   1.370  17.100 -0.6525 -0.0881 -0.1612
18885TIP3    H178070   1.239   1.287  17.055 -2.2844 -0.5363 -0.0198
18885TIP3    H278071   1.142   1.354  17.151 -0.2821  1.1890  0.8814
18886TIP3   OH278072   6.625   0.860   0.458  0.0616 -0.6167  0.3885
18886TIP3    H178073   6.714   0.891   0.441  0.4269 -2.4708 -1.4328
18886TIP3    H278074   6.569   0.937   0.441  1.2244  0.3942  0.9735
18887TIP3   OH278075   0.654   2.983   0.093 -0.8102  0.1481 -0.3924
18887TIP3    H178076   0.590   2.966   0.163  0.0922  1.7802  0.9104
18887TIP3    H278077   0.739   2.966   0.135 -0.2846  0.2487 -1.3988
18888TIP3   OH278078   4.527   1.125  16.479  0.1062  0.1215 -0.0615
18888TIP3    H178079   4.468   1.129  16.404 -1.3014 -1.6334  0.8614
18888TIP3    H278080   4.477   1.165  16.551  1.4010  1.7095 -0.0043
18889TIP3   OH278081   2.834   2.415  14.393 -0.5420  0.2173 -0.1519
18889TIP3    H178082   2.879   2.359  14.456  1.1549  0.1691 -1.3356
18889TIP3    H278083   2.791   2.354  14.333 -0.5848  0.2334 -0.1382
18890TIP3   OH278084   2.095   2.905   1.911  0.0695 -0.1511 -0.2651
18890TIP3    H178085   2.062   2.908   1.821 -1.6444  0.8579  0.3481
18890TIP3    H278086   2.109   2.812   1.929 -1.6819 -0.5562 -0.8552
18891TIP3   OH278087   3.003   5.477   0.073  0.1816 -0.5064  0.0526
18891TIP3    H178088   3.047   5.395   0.055 -0.5625 -1.5072  2.3369
18891TIP3    H278089   3.056   5.518   0.142 -0.1718  0.2827 -0.1291
18892TIP3   OH278090   3.887   0.747   0.518 -0.6960 -0.0929  0.8283
18892TIP3    H178091   3.932   0.787   0.592  1.5482  1.0188 -1.0203
18892TIP3    H278092   3.920   0.657   0.514  1.3286  0.6532 -0.3879
18893TIP3   OH278093   4.193   5.466   1.879 -0.2470 -0.0140  0.2644
18893TIP3    H178094   4.159   5.520   1.807  1.1679  0.0881 -0.3576
18893TIP3    H278095   4.152   5.380   1.865 -1.6571  0.5817  0.6188
18894TIP3   OH278096   3.578   3.227  12.780  0.3954  0.2274  0.1492
18894TIP3    H178097   3.485   3.208  12.776  0.4874 -0.5080  1.0205
18894TIP3    H278098   3.598   3.227  12.874  1.1769  0.8626 -0.0064
18895TIP3   OH278099   3.962   5.091  11.871 -0.5555 -0.9061  0.6150
18895TIP3    H178100   3.993   5.081  11.781 -2.6269 -0.9964 -0.1529
18895TIP3    H278101   3.868   5.107  11.862 -0.3367  2.3949  2.5970
18896TIP3   OH278102   3.221   5.366   1.818 -0.1343 -0.1418 -0.1630
18896TIP3    H178103   3.168   5.293   1.785  2.3113 -2.6801  1.1174
18896TIP3    H278104   3.200   5.369   1.912 -1.1003  1.6947 -0.4003
18897TIP3   OH278105   6.391   6.187   1.553  0.3645  0.4032  0.1222
18897TIP3    H178106   6.314   6.130   1.560 -0.7289  1.7761 -0.2772
18897TIP3    H278107   6.390   6.217   1.463  1.5653  0.2288  0.0281
18898TIP3   OH278108   4.125   2.448   3.001  0.2222  0.1443 -0.1373
18898TIP3    H178109   4.077   2.527   3.025 -1.6623 -1.1781  0.7117
18898TIP3    H278110   4.057   2.381   2.990  1.7828 -1.5019 -0.2952
18899TIP3   OH278111   2.377   3.075  16.317 -0.4000 -0.1624 -0.3000
18899TIP3    H178112   2.285   3.096  16.297 -0.7467 -1.2028  0.1121
18899TIP3    H278113   2.392   2.991  16.274  0.3057 -0.1054 -0.1793
18900TIP3   OH278114   6.430   4.835  12.297  0.2587 -0.0904 -0.1108
18900TIP3    H178115   6.437   4.809  12.205 -1.4755 -0.3898 -0.1926
18900TIP3    H278116   6.369   4.773  12.335  0.3248  0.5316  1.0485
18901TIP3   OH278117   3.750   6.298  13.917  0.0509  0.1342  1.0135
18901TIP3    H178118   3.796   6.215  13.934  1.6039 -0.0003 -2.8714
18901TIP3    H278119   3.820   6.362  13.907 -0.9233  1.1181  0.2781
18902TIP3   OH278120   5.654   3.483  13.482 -0.3598 -0.3513  0.2897
18902TIP3    H178121   5.713   3.416  13.449 -0.2387 -1.3373  2.3782
18902TIP3    H278122   5.653   3.550  13.413  2.9220 -0.4367  0.0022
18903TIP3   OH278123   5.915   6.535   1.978 -0.2910 -0.3976 -0.0401
18903TIP3    H178124   5.950   6.613   2.020  0.5746 -0.7151 -0.1578
18903TIP3    H278125   5.864   6.568   1.904 -0.4347  0.0783  0.2684
18904TIP3   OH278126   2.579   6.073   3.788  0.9533 -0.5494 -0.2999
18904TIP3    H178127   2.578   6.061   3.693 -1.1233  0.1407 -0.4236
18904TIP3    H278128   2.503   6.129   3.806  0.0508 -2.3292  1.9502
18905TIP3   OH278129   4.526   1.290   2.420  0.2508 -0.1189  0.6943
18905TIP3    H178130   4.572   1.209   2.441  2.0309  0.1525 -1.7174
18905TIP3    H278131   4.587   1.339   2.365 -1.6163  1.8996  0.2536
18906TIP3   OH278132   6.057   6.613   4.336 -0.6006 -0.0623 -0.0090
18906TIP3    H178133   6.092   6.656   4.258 -3.7642  0.2152 -1.4511
18906TIP3    H278134   5.975   6.660   4.354 -1.4431 -2.0093  1.6809
18907TIP3   OH278135   0.948   6.291  16.285 -0.8057  0.1635  0.0012
18907TIP3    H178136   0.946   6.196  16.294 -1.9179  0.2034  0.2998
18907TIP3    H278137   0.861   6.320  16.314 -1.1070  1.1216 -1.7146
18908TIP3   OH278138   3.136   2.353  12.304  0.2239 -0.0211  0.1496
18908TIP3    H178139   3.231   2.361  12.306  0.1358  0.9810  0.9603
18908TIP3    H278140   3.109   2.404  12.228  0.2844  0.3321  0.3639
18909TIP3   OH278141   5.226   5.360   4.788 -0.2320  0.2394 -0.5715
18909TIP3    H178142   5.312   5.400   4.803  0.2348  0.1450 -2.7027
18909TIP3    H278143   5.197   5.332   4.875  1.4062  1.2415  0.3405
18910TIP3   OH278144   0.844   1.095   4.011 -0.6598  0.1342  0.1552
18910TIP3    H178145   0.923   1.113   4.063 -1.2691  1.2998  0.7236
18910TIP3    H278146   0.874   1.036   3.941  0.1343 -1.7196  1.9579
18911TIP3   OH278147   4.591   3.719  11.914 -0.0909 -0.2819 -0.5760
18911TIP3    H178148   4.560   3.775  11.985  0.8580 -2.1478  1.4447
18911TIP3    H278149   4.513   3.674  11.883 -0.5700  0.7929 -0.9593
18912TIP3   OH278150   4.297   6.236   2.831  0.2494  0.0763  0.0489
18912TIP3    H178151   4.297   6.318   2.782 -2.3550 -0.4079 -0.9184
18912TIP3    H278152   4.390   6.215   2.844  1.0009  1.6345 -2.2696
18913TIP3   OH278153   4.395   4.545   5.196 -0.2764  0.2229  0.3639
18913TIP3    H178154   4.474   4.528   5.246  0.1931  0.4116 -0.2890
18913TIP3    H278155   4.404   4.636   5.166  1.1269 -0.8508 -2.8912
18914TIP3   OH278156   4.862   0.944  11.020  0.2044  0.4159 -0.3073
18914TIP3    H178157   4.769   0.921  11.016 -0.3615  1.6093  2.9812
18914TIP3    H278158   4.907   0.860  11.016 -1.1696 -0.3970  0.3715
18915TIP3   OH278159   5.696   2.276  13.837 -0.2577  0.1395  0.2696
18915TIP3    H178160   5.699   2.253  13.930 -2.2359 -0.0951  0.3311
18915TIP3    H278161   5.644   2.356  13.833 -0.4406 -0.0082 -0.6488
18916TIP3   OH278162   5.103   5.354   1.550 -0.5394 -0.2877 -1.0160
18916TIP3    H178163   5.057   5.378   1.630 -0.9657 -0.6454 -1.1483
18916TIP3    H278164   5.069   5.414   1.484 -0.5453 -0.3087 -1.0323
18917TIP3   OH278165   3.129   2.923  12.749 -0.2138  0.1022 -0.2622
18917TIP3    H178166   3.187   2.998  12.747 -1.4106  1.0580 -0.9044
18917TIP3    H278167   3.054   2.951  12.801 -0.8130 -0.5213 -0.7545
18918TIP3   OH278168   1.438   3.139   1.740 -0.7479  0.2064  0.1947
18918TIP3    H178169   1.486   3.089   1.805 -2.8769 -3.1257 -0.5289
18918TIP3    H278170   1.355   3.161   1.783 -0.7329  1.1742 -0.2473
18919TIP3   OH278171   2.740   4.543  12.605  0.2155 -0.1354 -0.4464
18919TIP3    H178172   2.814   4.597  12.632  0.8991  0.0575 -2.5407
18919TIP3    H278173   2.747   4.464  12.658  1.2459  0.3607  0.1905
18920TIP3   OH278174   0.085   1.064  12.427  0.4226 -0.3753  0.5681
18920TIP3    H178175   0.093   1.131  12.359 -0.3260 -0.0499  0.7836
18920TIP3    H278176   0.139   0.991  12.397  3.6292  1.3662  1.6740
18921TIP3   OH278177   6.761   5.901   0.357 -0.2214  0.0058 -0.2890
18921TIP3    H178178   6.715   5.857   0.286 -2.0025  1.0154  0.1927
18921TIP3    H278179   6.746   5.994   0.342 -0.7310  0.2432  1.4429
18922TIP3   OH278180   2.484   6.236   4.882  0.0060  0.3329 -0.5423
18922TIP3    H178181   2.507   6.277   4.965  0.9074  2.3536 -1.7073
18922TIP3    H278182   2.567   6.222   4.837 -0.5139  0.4458 -1.5956
18923TIP3   OH278183   1.843   4.823   1.898  0.1219 -0.2909 -0.0633
18923TIP3    H178184   1.935   4.835   1.875 -0.0947 -0.0352 -0.8289
18923TIP3    H278185   1.845   4.762   1.971  0.8433 -1.3197 -0.9023
18924TIP3   OH278186   5.995   2.097   1.971  0.3329  0.4292 -0.0557
18924TIP3    H178187   6.016   2.039   2.044 -0.3044  0.0583 -0.1567
18924TIP3    H278188   5.958   2.175   2.013 -1.6702 -0.4715 -0.0032
18925TIP3   OH278189   3.022   6.017  11.051 -0.5845  0.8629 -0.7946
18925TIP3    H178190   2.967   6.014  10.972 -0.4067  0.3912 -0.9064
18925TIP3    H278191   3.004   6.102  11.090 -0.7494  1.0622 -1.2948
18926TIP3   OH278192   0.759   1.602  17.143 -0.4090 -0.1620 -0.0083
18926TIP3    H178193   0.666   1.594  17.121 -0.1520 -1.8370 -0.6501
18926TIP3    H278194   0.804   1.588  17.059  0.4154  1.0735  0.2195
18927TIP3   OH278195   0.025   4.008   5.247  0.2647  0.0406 -0.1056
18927TIP3    H178196   0.061   4.080   5.299 -2.8096  1.1205  0.6966
18927TIP3    H278197   0.047   4.030   5.157  0.4961  1.2740  0.2326
18928TIP3   OH278198   1.720   2.057  11.641  0.5179 -0.1456  0.5180
18928TIP3    H178199   1.625   2.065  11.639  0.4756 -0.5224  0.8885
18928TIP3    H278200   1.747   2.112  11.715  0.8393  2.1721 -1.1909
18929TIP3   OH278201   6.695   3.582  15.515  0.0212  0.4425 -0.5239
18929TIP3    H178202   6.789   3.600  15.517  0.0181  0.6676 -1.6327
18929TIP3    H278203   6.690   3.488  15.495  0.0281  0.7622 -2.1662
18930TIP3   OH278204   6.769   3.523   2.962  0.7034  0.0852 -0.3271
18930TIP3    H178205   6.739   3.434   2.943  0.3329  0.1142  0.1256
18930TIP3    H278206   6.862   3.522   2.938  0.8252 -0.5657  0.1364
18931TIP3   OH278207   4.919   1.577  13.388 -0.7069  0.0642 -0.1642
18931TIP3    H178208   4.923   1.491  13.429 -0.0956 -0.0927 -0.5412
18931TIP3    H278209   4.905   1.637  13.461  1.8215 -0.0585  0.5282
18932TIP3   OH278210   0.075   2.241  13.015 -0.4042 -0.1741  0.2309
18932TIP3    H178211   0.122   2.323  13.030 -1.5949  0.3486  1.3183
18932TIP3    H278212   0.136   2.187  12.965  0.4284  1.3483 -0.4708
18933TIP3   OH278213   2.077   5.006  16.863  0.0410 -0.1132  0.2600
18933TIP3    H178214   2.145   5.017  16.797  0.6068  0.3044  0.9016
18933TIP3    H278215   2.124   4.992  16.945 -0.5763  1.9471  1.0385
18934TIP3   OH278216   5.737   2.267  10.779  0.0672  0.1397 -0.1604
18934TIP3    H178217   5.827   2.298  10.777  0.5636 -1.1830 -2.8556
18934TIP3    H278218   5.685   2.346  10.793  1.4374  1.8417 -3.3890
18935TIP3   OH278219   0.143   2.686   0.573  0.3031  0.6103  0.1747
18935TIP3    H178220   0.065   2.740   0.563 -0.1648  0.6190  3.0583
18935TIP3    H278221   0.212   2.734   0.527 -1.0080  1.4422 -0.9878
18936TIP3   OH278222   2.731   0.608   0.896 -0.5851  0.4045 -0.4850
18936TIP3    H178223   2.668   0.560   0.843 -1.7550 -0.0845  1.2834
18936TIP3    H278224   2.800   0.544   0.915  1.2444  1.2718 -3.4763
18937TIP3   OH278225   2.503   2.507   3.573 -0.3974 -0.3512  0.2707
18937TIP3    H178226   2.595   2.519   3.547 -0.4938 -0.6298 -0.1931
18937TIP3    H278227   2.495   2.413   3.588 -0.6877 -0.3695  0.0028
18938TIP3   OH278228   5.436   1.886   3.387 -0.1569 -0.3208  0.6712
18938TIP3    H178229   5.415   1.818   3.323  0.0811  0.0646  0.1812
18938TIP3    H278230   5.531   1.891   3.387 -0.1984  1.6125 -1.0154
18939TIP3   OH278231   4.562   6.076   1.576 -0.2315 -0.3946 -0.1791
18939TIP3    H178232   4.609   6.125   1.643  0.0031  0.0045 -0.6313
18939TIP3    H278233   4.631   6.033   1.525 -0.3195  0.6209 -1.1750
18940TIP3   OH278234   5.470   3.137  12.751 -0.3878 -0.0699 -0.2363
18940TIP3    H178235   5.406   3.066  12.750 -0.4975  0.0268 -0.1925
18940TIP3    H278236   5.421   3.214  12.723 -0.7215  0.3566  1.4133
18941TIP3   OH278237   0.629   5.348  15.731  0.4469  1.0981 -0.4897
18941TIP3    H178238   0.644   5.438  15.758  2.6498  0.7533 -0.3766
18941TIP3    H278239   0.633   5.297  15.812 -1.9723  0.9702 -0.3902
18942TIP3   OH278240   1.661   6.341  16.231  0.4834  0.6703 -0.3954
18942TIP3    H178241   1.674   6.431  16.259  1.0313 -0.1341  2.2173
18942TIP3    H278242   1.566   6.329  16.232  0.4614  0.7241  1.1995
18943TIP3   OH278243   0.868   5.224   2.389 -0.0538 -0.3579  0.0546
18943TIP3    H178244   0.931   5.163   2.427 -2.1089 -0.3948  3.9278
18943TIP3    H278245   0.915   5.308   2.386  0.9156 -0.8706  0.4950
18944TIP3   OH278246   5.069   3.163  12.751 -0.0072 -0.2180 -0.2569
18944TIP3    H178247   5.075   3.184  12.658 -1.6204  0.2957 -0.2850
18944TIP3    H278248   5.060   3.247  12.795  1.8420 -0.3766  0.5116
18945TIP3   OH278249   5.700   3.881   5.414 -0.2276  0.1048  0.3009
18945TIP3    H178250   5.653   3.802   5.442 -0.3038 -0.0366 -0.2203
18945TIP3    H278251   5.792   3.853   5.407  0.0534  0.5102  1.8330
18946TIP3   OH278252   1.329   0.285   3.704  0.1980 -0.6366 -0.6858
18946TIP3    H178253   1.315   0.353   3.638 -1.1915 -0.8879 -0.6813
18946TIP3    H278254   1.335   0.333   3.787 -1.2054 -0.5140 -0.6284
18947TIP3   OH278255   6.092   1.376  13.013  0.0824 -0.1316  0.1623
18947TIP3    H178256   6.109   1.282  13.006 -1.1844 -0.4811  1.3506
18947TIP3    H278257   6.150   1.406  13.084 -1.4875 -0.6154  1.7287
18948TIP3   OH278258   3.209   5.836  16.330 -0.2557  0.3115 -0.0898
18948TIP3    H178259   3.236   5.751  16.365  0.4596  0.0320 -1.2594
18948TIP3    H278260   3.285   5.867  16.280 -0.8612  1.1704 -0.5105
18949TIP3   OH278261   2.826   6.432   2.352  0.0433 -0.3131  0.2323
18949TIP3    H178262   2.778   6.426   2.434 -3.0423  2.2289 -1.1286
18949TIP3    H278263   2.810   6.349   2.308 -0.3347 -0.7513  1.1707
18950TIP3   OH278264   2.647   5.683  13.968  0.1942 -0.7991 -0.2026
18950TIP3    H178265   2.611   5.671  14.056  0.5137  2.9704  0.6058
18950TIP3    H278266   2.571   5.676  13.910 -0.2855 -1.7721  0.5098
18951TIP3   OH278267   5.923   1.476  12.813  0.6130 -0.0002  0.5198
18951TIP3    H178268   5.908   1.570  12.823 -2.2891 -0.5624  2.7754
18951TIP3    H278269   5.978   1.452  12.887 -1.5593 -0.5250  2.0619
18952TIP3   OH278270   2.899   4.398  11.278  0.4391 -0.1859  0.7228
18952TIP3    H178271   2.977   4.353  11.245 -0.2105 -0.3521 -0.6719
18952TIP3    H278272   2.894   4.479  11.227 -0.0099  0.0773  1.1694
18953TIP3   OH278273   4.899   2.934  15.143  0.1497 -0.5669 -0.6648
18953TIP3    H178274   4.810   2.934  15.177  0.7939 -0.4100  1.1288
18953TIP3    H278275   4.889   2.911  15.050 -1.6443 -1.7137 -0.2423
18954TIP3   OH278276   5.834   0.335   3.677  0.0112 -0.5053 -0.6252
18954TIP3    H178277   5.812   0.293   3.594  1.4256 -1.9244 -0.3332
18954TIP3    H278278   5.928   0.352   3.672  0.4228 -1.9452  1.2013
18955TIP3   OH278279   4.069   6.180  15.706  0.2209 -0.5742  0.1251
18955TIP3    H178280   4.057   6.188  15.611 -0.6755 -0.3707  0.2425
18955TIP3    H278281   4.138   6.244  15.726 -0.9218  0.7992 -0.1430
18956TIP3   OH278282   5.697   4.950   4.902  0.0495 -0.1544 -0.2388
18956TIP3    H178283   5.633   5.013   4.869  0.2660  0.3076  0.1977
18956TIP3    H278284   5.704   4.970   4.995  1.9005  0.8102 -0.5241
18957TIP3   OH278285   4.193   5.393   3.459 -0.0879  0.1984  0.1075
18957TIP3    H178286   4.113   5.344   3.479 -0.5244  0.8255 -0.0973
18957TIP3    H278287   4.203   5.454   3.532  0.7526 -0.5372  0.6396
18958TIP3   OH278288   5.837   2.678  16.093 -0.2043 -0.0259  0.2227
18958TIP3    H178289   5.930   2.689  16.112 -0.1488  0.0699 -0.1007
18958TIP3    H278290   5.831   2.678  15.997 -0.7551  1.8700  0.2120
18959TIP3   OH278291   5.684   3.280  16.034  0.3907  0.0070 -0.6368
18959TIP3    H178292   5.661   3.190  16.058  0.5901 -0.0294 -0.5796
18959TIP3    H278293   5.771   3.293  16.072  0.6182  0.0198 -1.1574
18960TIP3   OH278294   1.773   2.339   2.580 -0.4415 -0.2183 -0.6071
18960TIP3    H178295   1.808   2.412   2.632  2.2682 -2.2669  0.7636
18960TIP3    H278296   1.736   2.279   2.645 -1.5583 -0.6195 -1.5813
18961TIP3   OH278297   5.782   3.555   4.524 -0.6877 -0.4558 -0.1616
18961TIP3    H178298   5.804   3.507   4.444  0.7618  2.2000 -1.5070
18961TIP3    H278299   5.835   3.512   4.592  0.9932 -0.4780 -1.4055
18962TIP3   OH278300   0.032   3.019  13.650 -0.0040  0.4588 -0.2343
18962TIP3    H178301  -0.005   3.035  13.563  0.9965  0.8072 -0.6081
18962TIP3    H278302  -0.022   3.073  13.709  0.3090  1.4974 -0.8610
18963TIP3   OH278303   0.517   4.585  13.892 -0.2973 -0.3349  0.6695
18963TIP3    H178304   0.584   4.591  13.961 -0.1650  0.6946  0.4717
18963TIP3    H278305   0.553   4.636  13.820 -1.4195  0.4676  0.6591
18964TIP3   OH278306   5.449   2.652   3.698  0.0376 -0.2775 -0.2718
18964TIP3    H178307   5.423   2.575   3.750  0.2204  0.1964  0.5395
18964TIP3    H278308   5.536   2.674   3.731 -0.5026  1.0001  0.3566
18965TIP3   OH278309   5.191   6.474   0.274  0.0876  0.3464 -0.1028
18965TIP3    H178310   5.263   6.497   0.332  0.6991 -0.8852 -0.3460
18965TIP3    H278311   5.124   6.438   0.332  0.4767 -0.3680 -0.0874
18966TIP3   OH278312   0.489   3.721   2.201  0.6996  0.3138  0.4725
18966TIP3    H178313   0.535   3.665   2.264 -0.4018  0.0441  1.0644
18966TIP3    H278314   0.490   3.672   2.120 -0.9071 -0.9459  1.1702
18967TIP3   OH278315   5.871   3.016   5.279  0.5087  0.1992  0.3591
18967TIP3    H178316   5.873   2.960   5.357  2.2821  0.3282  0.4351
18967TIP3    H278317   5.846   3.102   5.311 -0.7013 -0.1635  0.4643
18968TIP3   OH278318   5.070   5.573   0.766  0.0582 -0.4212  0.2756
18968TIP3    H178319   5.029   5.508   0.708  1.5045  1.2166 -2.8673
18968TIP3    H278320   5.019   5.653   0.751  0.7745  0.1579  0.8997
18969TIP3   OH278321   5.477   0.776   4.584  0.1326  0.2636 -0.0642
18969TIP3    H178322   5.443   0.724   4.657  1.2018 -0.2155  0.1065
18969TIP3    H278323   5.438   0.736   4.506 -2.2612  1.7162  0.2607
18970TIP3   OH278324   6.197   3.198   2.878  0.1514 -0.4129  0.0117
18970TIP3    H178325   6.273   3.233   2.926  0.7517  2.9890 -2.9612
18970TIP3    H278326   6.122   3.241   2.918  0.1031 -1.2347  0.8385
18971TIP3   OH278327   2.340   2.300  16.729 -0.0768  0.6075 -0.0972
18971TIP3    H178328   2.326   2.394  16.715 -1.8995  0.2222 -1.1957
18971TIP3    H278329   2.284   2.257  16.663  0.0305 -1.2572  0.9521
18972TIP3   OH278330   5.923   1.483  16.965 -0.0547 -0.4815  0.2437
18972TIP3    H178331   5.877   1.562  16.994  1.7307  0.3356  1.0800
18972TIP3    H278332   5.855   1.426  16.930 -1.5501  0.9728  0.6570
18973TIP3   OH278333   2.909   5.553  16.577 -0.0341 -0.5946 -0.0252
18973TIP3    H178334   3.005   5.552  16.578  0.0045 -1.5204 -1.5768
18973TIP3    H278335   2.886   5.587  16.491 -1.1526  0.8026  0.7687
18974TIP3   OH278336   6.046   3.855  15.054 -0.0976  0.7359  0.2698
18974TIP3    H178337   5.957   3.836  15.027 -0.3300 -0.8556  1.9336
18974TIP3    H278338   6.044   3.946  15.084 -0.8059  1.1437 -0.9809
18975TIP3   OH278339   4.538   5.660   4.697 -0.2592  0.2677  0.0713
18975TIP3    H178340   4.622   5.640   4.739 -0.1447 -0.1822 -0.3608
18975TIP3    H278341   4.563   5.705   4.616 -0.4262 -0.0902 -0.1780
18976TIP3   OH278342   4.030   0.762  17.096  0.3696  0.0558 -0.1545
18976TIP3    H178343   4.040   0.666  17.100  2.7088  0.2341  0.2111
18976TIP3    H278344   4.102   0.794  17.151 -0.0987  2.0420 -0.6574
18977TIP3   OH278345   0.015   6.127   5.521  0.0627 -0.0114  0.3032
18977TIP3    H178346   0.041   6.037   5.506 -0.7517 -0.2728  0.4246
18977TIP3    H278347  -0.043   6.124   5.598 -0.9039  0.4418 -0.3785
18978TIP3   OH278348   4.696   1.183  13.272 -0.3521  0.2687  0.2282
18978TIP3    H178349   4.657   1.243  13.208  0.3263  0.3073 -0.1698
18978TIP3    H278350   4.719   1.239  13.346 -0.5724  0.3360  0.2460
18979TIP3   OH278351   3.874   2.547  16.491  0.0473 -0.0887 -0.0120
18979TIP3    H178352   3.845   2.576  16.578 -1.3723  0.6165 -0.6883
18979TIP3    H278353   3.836   2.460  16.480  0.6524 -0.3966  0.2547
18980TIP3   OH278354   0.195   1.435   3.057 -0.0257  0.1863 -0.2572
18980TIP3    H178355   0.260   1.453   2.988  1.3976 -0.6874  0.8115
18980TIP3    H278356   0.242   1.382   3.121 -2.1903 -1.7066 -0.1028
18981TIP3   OH278357   2.553   5.488   4.770  0.2435 -0.8123  0.0162
18981TIP3    H178358   2.460   5.475   4.788 -0.0680 -1.5184 -1.9201
18981TIP3    H278359   2.561   5.478   4.676  2.1109  0.4284 -0.0081
18982TIP3   OH278360   5.972   3.710  12.345  0.1361  0.7568 -0.6167
18982TIP3    H178361   6.019   3.791  12.327 -3.4407  3.4374  0.9164
18982TIP3    H278362   5.954   3.672  12.259  0.6299  2.3806 -1.4735
18983TIP3   OH278363   2.581   0.433   0.753  0.5766 -0.0865 -0.0843
18983TIP3    H178364   2.604   0.346   0.723  1.4896 -0.4146  1.4659
18983TIP3    H278365   2.486   0.437   0.743  0.6423 -0.8076 -1.2441
18984TIP3   OH278366   0.482   4.690  12.182  0.0825 -0.2044  0.0015
18984TIP3    H178367   0.565   4.644  12.173  0.8089  1.2969 -1.3567
18984TIP3    H278368   0.466   4.728  12.096 -1.4344  0.5182  0.5656
18985TIP3   OH278369   0.473   4.091  12.718 -0.0888  0.5428 -0.5865
18985TIP3    H178370   0.481   4.186  12.708  0.1389  0.5416 -0.4500
18985TIP3    H278371   0.423   4.080  12.799 -0.4931  0.5466 -0.8323
18986TIP3   OH278372   2.813   4.680   1.782  0.4338 -0.6338  0.2717
18986TIP3    H178373   2.855   4.754   1.739  0.5402 -0.8134  0.0632
18986TIP3    H278374   2.880   4.646   1.842  0.5110 -0.7805  0.1047
18987TIP3   OH278375   5.895   6.707  10.737  0.6170  0.4078 -0.1013
18987TIP3    H178376   5.937   6.779  10.786 -0.3102  0.5898  0.4545
18987TIP3    H278377   5.967   6.648  10.715  1.3126  1.2149 -0.0502
18988TIP3   OH278378   2.744   3.593   3.063 -0.3790  0.5089  0.1474
18988TIP3    H178379   2.767   3.653   2.993  1.3604  0.1992  0.4215
18988TIP3    H278380   2.820   3.536   3.072 -1.5088 -0.9714  0.7059
18989TIP3   OH278381   3.984   4.770  16.922  0.5622  0.1069 -0.1795
18989TIP3    H178382   3.990   4.779  16.827 -2.1019 -0.1758 -0.4564
18989TIP3    H278383   3.891   4.784  16.942  1.3048  1.9616  2.6114
18990TIP3   OH278384   5.016   2.367   4.721  0.1326  0.0333 -0.2761
18990TIP3    H178385   5.092   2.345   4.666 -0.4860  0.6322 -1.3841
18990TIP3    H278386   4.940   2.342   4.669 -0.4690  0.3683  0.4211
18991TIP3   OH278387   5.294   0.277   0.536 -0.5884 -0.4663  0.4225
18991TIP3    H178388   5.291   0.338   0.462 -1.8326 -0.1996  0.6686
18991TIP3    H278389   5.258   0.328   0.609  2.0888 -0.1818  1.6397
18992TIP3   OH278390   1.417   6.023  16.927  0.2597  0.0515  0.2152
18992TIP3    H178391   1.471   5.969  16.869  1.4971  1.0274  0.4279
18992TIP3    H278392   1.436   5.990  17.015 -1.3289 -1.1763  0.1338
18993TIP3   OH278393   0.770   3.012   5.238 -1.0133 -0.0155 -0.6340
18993TIP3    H178394   0.710   3.086   5.246  0.3063  1.0292 -0.0083
18993TIP3    H278395   0.831   3.039   5.170  0.0735 -0.0851  0.2885
18994TIP3   OH278396   4.366   6.577  15.777  0.1981 -0.2709 -0.5492
18994TIP3    H178397   4.454   6.555  15.807 -0.0175  0.6269  0.8232
18994TIP3    H278398   4.314   6.582  15.857 -0.9594 -0.1875 -1.2940
18995TIP3   OH278399   4.266   0.550  13.285  0.6736  0.0160  0.1687
18995TIP3    H178400   4.350   0.523  13.323  1.3173 -0.2005 -1.3373
18995TIP3    H278401   4.227   0.468  13.255  0.0786  0.1603  0.5395
18996TIP3   OH278402   1.891   3.924   2.977  0.7248 -0.4068  0.1296
18996TIP3    H178403   1.945   3.936   2.898 -1.0252 -2.4069 -1.4918
18996TIP3    H278404   1.944   3.868   3.034  1.4851 -0.0267 -0.1880
18997TIP3   OH278405   1.884   0.849   3.907 -0.6777 -0.2158  0.3673
18997TIP3    H178406   1.947   0.776   3.906  0.6904  0.8994 -1.7110
18997TIP3    H278407   1.922   0.913   3.967  0.2545  0.4717 -0.9128
18998TIP3   OH278408   4.414   3.878  13.962 -0.0894  0.1437 -0.4460
18998TIP3    H178409   4.410   3.937  13.887  1.0542  1.4907  0.5103
18998TIP3    H278410   4.506   3.874  13.985 -0.4759  0.2356  1.2547
18999TIP3   OH278411   5.737   0.794  15.565 -0.5160  0.3588 -0.0610
18999TIP3    H178412   5.830   0.812  15.553 -0.1440  0.8346  2.7384
18999TIP3    H278413   5.694   0.876  15.541 -0.0643  0.6070 -0.0417
19000TIP3   OH278414   6.350   4.630  13.097 -0.0185  0.4491  0.0083
19000TIP3    H178415   6.305   4.607  13.178 -0.0753  0.1292 -0.1126
19000TIP3    H278416   6.314   4.715  13.073  1.3235  1.4162  1.2939
19001TIP3   OH278417   6.425   6.710   2.659  0.2350  0.1398 -0.3554
19001TIP3    H178418   6.461   6.735   2.574 -2.4030 -1.0540 -1.9229
19001TIP3    H278419   6.357   6.775   2.677  0.5833  0.2235  0.7406
19002TIP3   OH278420   3.296   3.184  12.788 -0.1353  0.3222 -0.6313
19002TIP3    H178421   3.282   3.249  12.858 -2.7234  0.1551 -0.9075
19002TIP3    H278422   3.259   3.225  12.710  0.4817 -0.5145 -1.3762
19003TIP3   OH278423   4.621   5.697  15.575  0.5387 -0.5909 -0.6038
19003TIP3    H178424   4.617   5.782  15.531  1.1003 -0.8360 -1.1316
19003TIP3    H278425   4.712   5.670  15.568  1.0435  0.0631  2.0520
19004TIP3   OH278426   3.567   6.728   5.921  0.2328  0.2097  0.3209
19004TIP3    H178427   3.479   6.742   5.884  0.4546 -1.1119 -0.7780
19004TIP3    H278428   3.625   6.730   5.845  1.2044  1.2955  1.0678
19005TIP3   OH278429   2.892   2.876   0.178  0.3262 -0.5197 -0.0931
19005TIP3    H178430   2.809   2.847   0.216  0.8841 -2.0605  0.0167
19005TIP3    H278431   2.886   2.849   0.086  0.7991 -0.8712 -0.0237
19006TIP3   OH278432   4.952   5.578  12.396  0.1699  0.1082 -0.7825
19006TIP3    H178433   4.866   5.556  12.433  0.2834  0.4874 -0.2948
19006TIP3    H278434   4.999   5.495  12.394  0.0252  0.0196 -0.4435
19007TIP3   OH278435   6.035   1.697  12.045 -0.9030 -0.4631 -0.0457
19007TIP3    H178436   5.989   1.705  11.961 -0.7560  0.3621 -0.0586
19007TIP3    H278437   5.966   1.674  12.108 -1.4701  1.2505  0.0292
19008TIP3   OH278438   2.395   0.278  11.177 -0.4913  0.8122  0.7275
19008TIP3    H178439   2.442   0.263  11.095  1.0840 -1.7582  1.9543
19008TIP3    H278440   2.420   0.367  11.203 -0.7375  1.5414 -1.3564
19009TIP3   OH278441   5.809   5.580  15.817 -0.2397 -0.4730  0.5143
19009TIP3    H178442   5.756   5.540  15.747  2.1833  0.4545 -2.0428
19009TIP3    H278443   5.892   5.532  15.814 -0.2242 -0.7598  3.2288
19010TIP3   OH278444   2.526   3.286   5.644  0.1661  0.5108  0.0690
19010TIP3    H178445   2.533   3.275   5.739 -0.0727 -0.7580 -0.0500
19010TIP3    H278446   2.611   3.321   5.618  0.2534  0.8202  0.7313
19011TIP3   OH278447   3.958   1.847  10.399 -0.1733 -0.3498 -0.1378
19011TIP3    H178448   4.013   1.795  10.458 -1.5333 -3.1686 -1.1586
19011TIP3    H278449   3.912   1.908  10.457  1.5206 -0.2092  1.1395
19012TIP3   OH278450   4.547   1.499   0.647 -0.2435 -0.5734  0.1540
19012TIP3    H178451   4.482   1.564   0.674  1.0805  0.6008  0.6137
19012TIP3    H278452   4.609   1.496   0.719 -0.6859 -2.9955  0.5361
19013TIP3   OH278453   1.918   2.098   2.449  0.2936  0.4831 -0.4461
19013TIP3    H178454   1.877   2.184   2.463 -0.7661 -0.1811  0.8343
19013TIP3    H278455   1.870   2.060   2.375 -0.2866  0.3960 -0.0363
19014TIP3   OH278456   0.549   1.458  13.879 -0.3763  0.1591 -0.9431
19014TIP3    H178457   0.557   1.463  13.974  1.7267 -0.8813 -1.0169
19014TIP3    H278458   0.455   1.447  13.864 -0.5100 -2.8680  1.2139
19015TIP3   OH278459   4.582   4.362  12.616 -0.3001 -0.0645 -0.3203
19015TIP3    H178460   4.651   4.297  12.600  0.0612  0.3737 -0.5966
19015TIP3    H278461   4.592   4.386  12.708 -0.8343 -0.8448 -0.0485
19016TIP3   OH278462   1.285   3.136  14.880 -0.3901  0.1087  0.0094
19016TIP3    H178463   1.335   3.092  14.949  0.3186  0.9690  0.0592
19016TIP3    H278464   1.197   3.100  14.888  0.1593 -1.3277  0.0263
19017TIP3   OH278465   6.174   5.499  16.073  0.5678  0.0079  0.4842
19017TIP3    H178466   6.079   5.486  16.068  0.6461 -0.5427  0.4247
19017TIP3    H278467   6.211   5.425  16.026  0.9995  0.9153 -0.6446
19018TIP3   OH278468   1.487   1.776  14.012 -0.0701 -0.5278  0.0805
19018TIP3    H178469   1.530   1.846  13.964 -1.8463  1.0416  0.6199
19018TIP3    H278470   1.431   1.733  13.947  0.5103 -1.0292 -0.0991
19019TIP3   OH278471   3.421   5.407   3.727  0.0330  0.1468 -0.5571
19019TIP3    H178472   3.478   5.371   3.659 -0.3906 -1.1818 -0.2382
19019TIP3    H278473   3.334   5.371   3.707 -0.3210  0.6435  0.0469
19020TIP3   OH278474   6.274   5.153   2.810  0.3392  0.2438 -0.8595
19020TIP3    H178475   6.291   5.247   2.812 -1.4334  0.5873 -0.0365
19020TIP3    H278476   6.258   5.129   2.901 -0.6024 -0.5591 -1.2138
19021TIP3   OH278477   3.387   3.441   0.902  0.0168 -0.5232 -0.4294
19021TIP3    H178478   3.378   3.507   0.833 -0.5827  0.0630  0.1915
19021TIP3    H278479   3.424   3.488   0.976  1.5167 -1.3468 -0.6136
19022TIP3   OH278480   3.078   4.788  15.308 -0.0264  0.8251 -0.1724
19022TIP3    H178481   3.137   4.757  15.376  0.3988  0.4722 -0.6975
19022TIP3    H278482   3.106   4.878  15.290  0.4219  0.6244 -0.4924
19023TIP3   OH278483   4.729   3.483   3.284 -0.6351  0.1110  0.4331
19023TIP3    H178484   4.745   3.430   3.206  3.5729  1.5137  0.0928
19023TIP3    H278485   4.660   3.543   3.259 -0.2224 -0.2603 -1.8140
19024TIP3   OH278486   3.622   5.343  11.643  0.1461 -0.2607  0.6497
19024TIP3    H178487   3.558   5.372  11.707  0.1267  0.3006  0.3794
19024TIP3    H278488   3.649   5.422  11.597 -2.0233 -0.9543 -2.0889
19025TIP3   OH278489   4.329   0.088   4.843  0.3850  0.5876 -0.1667
19025TIP3    H178490   4.336   0.169   4.792 -1.2913  1.2766  0.6178
19025TIP3    H278491   4.416   0.075   4.879  0.8974  1.5928 -0.9662
19026TIP3   OH278492   5.279   2.407   2.172 -0.2006  0.2557  0.0251
19026TIP3    H178493   5.260   2.489   2.127  2.2232  1.6139  1.2944
19026TIP3    H278494   5.199   2.355   2.161 -1.8828  2.7997 -0.7110
19027TIP3   OH278495   3.215   5.614   0.785  0.2220  0.1345 -0.1430
19027TIP3    H178496   3.212   5.673   0.860 -0.7634  0.8334 -0.7044
19027TIP3    H278497   3.177   5.532   0.817 -2.3536  1.1122 -0.4119
19028TIP3   OH278498   1.824   2.444  12.172 -0.5189 -0.3107 -0.2019
19028TIP3    H178499   1.790   2.412  12.256  2.2175 -0.4023  1.0142
19028TIP3    H278500   1.883   2.375  12.142 -1.4760 -0.2973 -2.2933
19029TIP3   OH278501   6.087   1.217  12.259  0.1933 -0.0143 -0.2538
19029TIP3    H178502   6.017   1.215  12.324  1.4959  0.8987  1.2458
19029TIP3    H278503   6.104   1.125  12.239  1.9809 -0.6299  3.2676
19030TIP3   OH278504   1.634   6.620  15.266  0.4177  0.1282  0.2359
19030TIP3    H178505   1.681   6.684  15.318  0.8287 -0.0568  0.0965
19030TIP3    H278506   1.649   6.646  15.175 -0.9984  0.9488  0.2057
19031TIP3   OH278507   0.204   3.050   4.355  0.9699 -0.3102 -0.3071
19031TIP3    H178508   0.225   2.998   4.278 -0.5803  0.6039 -1.4153
19031TIP3    H278509   0.288   3.065   4.399  1.7521 -1.6212 -1.3041
19032TIP3   OH278510   3.680   1.328  16.085  0.0139  0.4114 -0.2960
19032TIP3    H178511   3.610   1.292  16.030  0.3823  0.1860 -0.6189
19032TIP3    H278512   3.690   1.264  16.156 -1.6143  1.4977  1.0198
19033TIP3   OH278513   4.258   2.260  16.770  0.1366 -0.2080 -0.7777
19033TIP3    H178514   4.164   2.266  16.790  0.3418  2.2431 -0.1516
19033TIP3    H278515   4.268   2.309  16.689  1.1633  2.0333  0.5945
19034TIP3   OH278516   0.272   0.135  14.677  0.2421  0.0110  0.2393
19034TIP3    H178517   0.185   0.164  14.706 -0.8621 -2.1642 -0.7024
19034TIP3    H278518   0.323   0.216  14.671 -2.5403  1.8020 -1.9990
19035TIP3   OH278519   6.696   2.105   4.643  0.5147  0.6390  0.2909
19035TIP3    H178520   6.728   2.066   4.561  1.5001  0.8950  0.5434
19035TIP3    H278521   6.604   2.124   4.625 -0.4038 -2.8698  0.5329
19036TIP3   OH278522   5.206   0.840   5.687  0.4586  0.6720 -0.2842
19036TIP3    H178523   5.260   0.791   5.749  0.3993  1.0410  0.0681
19036TIP3    H278524   5.162   0.773   5.635  1.9643  0.3592 -1.2209
19037TIP3   OH278525   3.732   4.902  12.141 -0.2585 -0.1653 -0.3402
19037TIP3    H178526   3.727   4.897  12.236  0.9937  0.7424 -0.1920
19037TIP3    H278527   3.647   4.936  12.114 -1.2373 -1.9919  0.2760
19038TIP3   OH278528   5.847   3.449  15.854  0.4026  0.4237 -0.3023
19038TIP3    H178529   5.923   3.422  15.801  0.8931 -0.4405  0.7967
19038TIP3    H278530   5.771   3.421  15.802  0.7104  2.8558 -2.2557
19039TIP3   OH278531   4.434   3.512   5.143 -0.5623  0.2783  0.3847
19039TIP3    H178532   4.420   3.492   5.236  0.4756  0.9907  0.7094
19039TIP3    H278533   4.435   3.607   5.139  1.2555  0.2764 -0.0438
19040TIP3   OH278534   1.892   2.252   4.408 -0.1219 -0.3715 -0.7153
19040TIP3    H178535   1.819   2.194   4.429 -0.2351  0.2446  0.6803
19040TIP3    H278536   1.851   2.325   4.361 -0.3155 -0.3278 -0.4800
19041TIP3   OH278537   4.746   6.212  15.251 -0.3109  0.0407  0.5806
19041TIP3    H178538   4.829   6.257  15.265 -0.5036  0.8988 -0.7742
19041TIP3    H278539   4.718   6.185  15.338  2.7449 -2.8744  0.8645
19042TIP3   OH278540   0.239   4.534   2.242  0.2579  0.4128  0.3815
19042TIP3    H178541   0.323   4.559   2.205  1.0789  1.0956  2.5521
19042TIP3    H278542   0.241   4.568   2.332 -1.9191 -0.4486  0.8214
19043TIP3   OH278543   0.267   2.283  14.218 -0.5396 -0.3078 -0.2743
19043TIP3    H178544   0.360   2.274  14.199  0.0185 -1.7287  2.6591
19043TIP3    H278545   0.231   2.197  14.198 -1.1984  0.1156 -0.9920
19044TIP3   OH278546   2.487   5.355  12.906  0.2102  0.3661 -0.5457
19044TIP3    H178547   2.583   5.355  12.905  0.2491 -0.9213  0.1997
19044TIP3    H278548   2.462   5.447  12.913  1.3901  0.7298 -1.0203
19045TIP3   OH278549   4.752   2.831  15.574 -0.5324 -0.4510  0.4517
19045TIP3    H178550   4.762   2.925  15.563  1.6551 -0.1650  3.4708
19045TIP3    H278551   4.722   2.820  15.664  1.9870 -2.6211  1.1558
19046TIP3   OH278552   5.040   3.255   3.301  0.2431 -0.2666 -0.0446
19046TIP3    H178553   5.115   3.282   3.353  0.3253 -0.6684  0.0458
19046TIP3    H278554   4.977   3.327   3.310 -0.1931 -0.8113  1.5125
19047TIP3   OH278555   2.366   1.575  15.068 -0.1846  0.5085  0.4385
19047TIP3    H178556   2.435   1.509  15.067  0.3933  1.1011  0.5466
19047TIP3    H278557   2.287   1.528  15.041  0.1786 -0.2630  0.6931
19048TIP3   OH278558   3.865   2.141  15.167  0.3090  0.2599  0.3447
19048TIP3    H178559   3.820   2.082  15.227  0.7779  0.4407  0.8845
19048TIP3    H278560   3.910   2.203  15.224  0.2977  0.7829 -0.2099
19049TIP3   OH278561   0.008   6.360  13.782  0.2986  0.6950 -0.8763
19049TIP3    H178562   0.086   6.322  13.823 -0.5645  0.3294  0.4811
19049TIP3    H278563   0.000   6.313  13.698  1.5659  0.7964 -1.0750
19050TIP3   OH278564   5.963   4.704  14.484  0.6075  0.3123 -0.2339
19050TIP3    H178565   5.922   4.729  14.567  2.1890 -0.3982  0.8172
19050TIP3    H278566   6.056   4.699  14.504  1.1530  1.1881 -2.3609
19051TIP3   OH278567   3.973   6.681   3.513 -0.1956  0.0591 -0.1240
19051TIP3    H178568   4.035   6.625   3.466 -0.3857 -1.3580  1.2229
19051TIP3    H278569   3.978   6.765   3.468  0.7589 -0.7754 -1.6786
19052TIP3   OH278570   0.389   2.764  14.753  0.1473  0.0247 -0.4083
19052TIP3    H178571   0.415   2.834  14.813 -2.4214 -0.6211  1.5934
19052TIP3    H278572   0.472   2.726  14.724  1.5275  1.9033  0.8287
19053TIP3   OH278573   3.803   4.679   5.111 -0.1964 -0.1347 -0.2560
19053TIP3    H178574   3.883   4.683   5.163 -2.3808  0.4156  3.3557
19053TIP3    H278575   3.773   4.770   5.105 -1.2496 -0.4796 -0.4207
19054TIP3   OH278576   0.048   3.154   4.761  0.0018  0.9471 -0.6020
19054TIP3    H178577  -0.028   3.192   4.805 -0.7686 -0.2787 -0.8219
19054TIP3    H278578   0.014   3.122   4.677  0.7052  0.2178 -0.6290
19055TIP3   OH278579   4.261   1.503   4.228 -0.0297 -0.1680  0.0429
19055TIP3    H178580   4.266   1.527   4.135 -2.2891 -2.8172 -0.9245
19055TIP3    H278581   4.333   1.442   4.240  0.4409  0.3995  0.1075
19056TIP3   OH278582   1.157   1.851  13.831  0.0195 -0.2170  0.2040
19056TIP3    H178583   1.200   1.779  13.785 -0.8694 -0.3398 -0.4498
19056TIP3    H278584   1.201   1.930  13.799  0.9952 -0.4396  0.9207
19057TIP3   OH278585   1.735   1.534  11.447  0.3884  0.2491  0.6735
19057TIP3    H178586   1.677   1.538  11.372  0.0620  0.1056  0.9184
19057TIP3    H278587   1.771   1.623  11.454 -0.7806  0.6893  1.2957
19058TIP3   OH278588   1.072   5.415   3.457 -0.0857  0.0140 -0.4907
19058TIP3    H178589   0.990   5.418   3.507  0.7963  1.5221  0.9375
19058TIP3    H278590   1.120   5.341   3.494 -0.0862  0.1739 -0.1671
19059TIP3   OH278591   0.512   4.496  15.061  0.6899 -0.0155 -0.5288
19059TIP3    H178592   0.501   4.586  15.031 -1.5153 -0.0415 -0.0069
19059TIP3    H278593   0.433   4.451  15.029  1.3083 -1.5305 -0.0011
19060TIP3   OH278594   0.337   6.253   3.659 -0.2255 -0.5600  0.0527
19060TIP3    H178595   0.350   6.309   3.583 -1.3238  0.7706  0.7920
19060TIP3    H278596   0.342   6.164   3.625 -0.0454 -0.0079 -1.4388
19061TIP3   OH278597   0.521   3.699   4.513  0.3084 -0.1517  0.2048
19061TIP3    H178598   0.602   3.676   4.467 -0.3970 -0.3439 -1.0034
19061TIP3    H278599   0.452   3.683   4.448 -0.7212 -0.2487  1.2920
19062TIP3   OH278600   6.639   3.773  15.938  0.2206  0.0471 -0.0263
19062TIP3    H178601   6.655   3.803  15.848  1.1428 -0.2435  0.0301
19062TIP3    H278602   6.577   3.701  15.929 -0.6413  0.7970 -0.3165
19063TIP3   OH278603   6.221   3.182  12.090  0.2714  0.4837  0.3493
19063TIP3    H178604   6.248   3.109  12.146  0.2798  0.4353  0.2823
19063TIP3    H278605   6.137   3.154  12.054  0.6449  0.1644 -0.2933
19064TIP3   OH278606   3.513   2.916   5.499  1.0220 -0.4239  0.2200
19064TIP3    H178607   3.475   2.927   5.587  0.1081  1.7455 -0.3825
19064TIP3    H278608   3.579   2.985   5.493 -0.2454  0.7046 -1.4445
19065TIP3   OH278609   2.865   3.582  12.198 -0.0726  0.1678 -0.0981
19065TIP3    H178610   2.905   3.650  12.145  1.4514 -0.3127  0.3680
19065TIP3    H278611   2.830   3.628  12.274  0.2873  0.5297 -0.1468
19066TIP3   OH278612   3.921   5.674   5.995 -0.1617 -0.0229  0.5162
19066TIP3    H178613   3.945   5.764   6.017  0.4576 -0.3681  1.3018
19066TIP3    H278614   3.926   5.671   5.899 -0.3825  0.8209  0.4619
19067TIP3   OH278615   6.574   0.590  11.933  0.3880 -0.0455 -0.1566
19067TIP3    H178616   6.596   0.498  11.921 -0.2966 -0.3207  0.6277
19067TIP3    H278617   6.541   0.596  12.023 -0.4881  0.7745 -0.5106
19068TIP3   OH278618   2.394   1.453   3.751 -0.2156  0.0067 -0.1802
19068TIP3    H178619   2.385   1.419   3.662 -1.0631  1.2128 -0.5858
19068TIP3    H278620   2.332   1.401   3.802  0.8892 -1.2816 -0.0777
19069TIP3   OH278621   6.486   4.611  16.540 -0.4430  0.1505  0.3081
19069TIP3    H178622   6.504   4.657  16.457 -0.4767  2.0400  1.2817
19069TIP3    H278623   6.448   4.679  16.596  2.2593 -0.2178  2.8548
19070TIP3   OH278624   5.821   2.959   2.887 -0.4819  0.5133 -0.4849
19070TIP3    H178625   5.753   3.012   2.846 -0.3490  0.4108 -0.8380
19070TIP3    H278626   5.775   2.910   2.956 -0.5327  1.3689  0.0957
19071TIP3   OH278627   4.142   5.667  11.933  0.5649  0.4521 -0.0264
19071TIP3    H178628   4.187   5.742  11.895  1.5458  0.3611  0.9380
19071TIP3    H278629   4.210   5.601  11.946 -0.3938 -0.9033 -1.5132
19072TIP3   OH278630   6.198   1.976   3.441  0.4213 -0.1191  0.1537
19072TIP3    H178631   6.256   1.964   3.366 -0.8499  0.1673 -0.9203
19072TIP3    H278632   6.196   1.891   3.485  2.2616  0.0820  0.7039
19073TIP3   OH278633   4.150   1.752   3.767 -0.0275  0.4733 -0.3711
19073TIP3    H178634   4.094   1.689   3.813  1.2863 -0.8397 -0.4794
19073TIP3    H278635   4.138   1.835   3.814 -1.0856 -0.0890  0.3782
19074TIP3   OH278636   4.689   1.745  11.574 -0.1050  0.2126 -0.3031
19074TIP3    H178637   4.647   1.659  11.578 -0.5752  0.4664  0.7172
19074TIP3    H278638   4.625   1.805  11.613  0.8480  0.7528  0.5012
19075TIP3   OH278639   5.317   1.476  11.641 -0.0143  0.4111  0.1777
19075TIP3    H178640   5.286   1.518  11.561  0.0841 -0.6337 -0.4298
19075TIP3    H278641   5.358   1.546  11.691 -0.1453  1.0923 -0.6501
19076TIP3   OH278642   5.052   0.965  14.001  0.0512 -0.5571  0.2636
19076TIP3    H178643   5.062   0.928  13.913  0.4650  1.4724 -0.6239
19076TIP3    H278644   5.133   1.015  14.015 -0.2058 -0.4790  1.6166
19077TIP3   OH278645   4.409   4.707  15.941 -0.5153 -0.3214  0.2387
19077TIP3    H178646   4.377   4.743  16.024 -0.9243 -0.4511  0.1390
19077TIP3    H278647   4.428   4.616  15.961  0.9670  0.0349  0.6146
19078TIP3   OH278648   4.528   3.505  14.214  0.1053 -0.2718  0.2247
19078TIP3    H178649   4.608   3.556  14.208 -0.8224  1.3811  1.1171
19078TIP3    H278650   4.538   3.436  14.148  2.1024  0.0653  0.1202
19079TIP3   OH278651   2.768   1.945   2.422  1.1810  0.2417 -0.1186
19079TIP3    H178652   2.757   1.866   2.369 -0.3854 -0.0648  0.6018
19079TIP3    H278653   2.721   1.926   2.503 -1.0092  2.6191 -0.7037
19080TIP3   OH278654   6.534   3.641  17.209  0.4087 -0.2856  0.2872
19080TIP3    H178655   6.458   3.679  17.164  0.2889 -1.0505 -0.1599
19080TIP3    H278656   6.521   3.547  17.204  1.3968 -0.4296  0.1929
19081TIP3   OH278657   4.884   0.708   3.535  0.1305  0.2390 -0.1587
19081TIP3    H178658   4.909   0.757   3.613  1.8225  1.8408 -1.5986
19081TIP3    H278659   4.815   0.649   3.565  0.4242  1.0642  2.4309
19082TIP3   OH278660   4.972   5.307  16.563 -0.5098 -0.1083 -0.1781
19082TIP3    H178661   4.990   5.226  16.516 -0.1815 -0.7615  1.0245
19082TIP3    H278662   4.879   5.324  16.549 -0.4677 -0.4207 -0.8415
19083TIP3   OH278663   3.617   0.144  15.011 -0.6964  0.9641  0.4350
19083TIP3    H178664   3.591   0.111  15.097 -0.1081  0.6516  0.4964
19083TIP3    H278665   3.541   0.127  14.955  0.2437 -2.3779 -0.0404
19084TIP3   OH278666   3.718   5.679  16.571 -0.3737  0.8709  0.1039
19084TIP3    H178667   3.808   5.662  16.544 -0.1305 -0.7159  1.6943
19084TIP3    H278668   3.674   5.595  16.562 -1.4811  1.4233  0.1614
19085TIP3   OH278669   0.506   6.490  11.258 -0.0847 -0.0979 -0.0818
19085TIP3    H178670   0.593   6.477  11.219 -0.4812 -0.0928 -0.9857
19085TIP3    H278671   0.495   6.585  11.261  0.4324 -0.0523  1.1812
19086TIP3   OH278672   3.226   5.853  14.480 -0.7356  0.1802 -0.1211
19086TIP3    H178673   3.301   5.907  14.457 -0.5484  1.0207  2.1384
19086TIP3    H278674   3.150   5.901  14.446 -0.3115 -0.8612 -2.7364
19087TIP3   OH278675   3.214   6.020  11.605  0.3670  0.2830 -0.5715
19087TIP3    H178676   3.211   5.935  11.650 -0.1091  0.0635 -1.0030
19087TIP3    H278677   3.182   6.083  11.670 -1.6125 -0.2171 -0.9837
19088TIP3   OH278678   0.918   2.642  16.460 -0.0338  0.2006  0.2374
19088TIP3    H178679   0.942   2.566  16.407 -1.6252 -0.8769  0.9892
19088TIP3    H278680   0.895   2.709  16.396 -0.9935 -0.7730 -0.4861
19089TIP3   OH278681   0.485   0.966  15.976 -0.0066  0.6048  0.2057
19089TIP3    H178682   0.554   0.937  16.036  1.2712 -1.3530 -2.0340
19089TIP3    H278683   0.522   1.042  15.932 -0.7397  1.7256  1.4756
19090TIP3   OH278684   1.015   0.761  12.828  0.6354  0.9250  0.2458
19090TIP3    H178685   0.931   0.774  12.783  0.1227  0.6673  1.1083
19090TIP3    H278686   1.081   0.780  12.761 -0.1073  0.3663 -0.6624
19091TIP3   OH278687   4.934   2.895   4.689 -0.2116 -0.1067 -0.2587
19091TIP3    H178688   4.885   2.814   4.703  0.7343 -1.4109 -3.4372
19091TIP3    H278689   4.868   2.959   4.664 -0.8909 -0.0691  1.5361
19092TIP3   OH278690   4.138   4.727   0.692 -0.1197  0.3266  0.5643
19092TIP3    H178691   4.146   4.784   0.616 -2.0083  2.4393  1.8180
19092TIP3    H278692   4.048   4.696   0.689  0.1310 -0.4941  1.3110
19093TIP3   OH278693   3.948   0.055  12.689 -0.4975  0.0694 -0.2390
19093TIP3    H178694   3.919   0.008  12.767  2.1111 -2.1623 -0.4630
19093TIP3    H278695   3.870   0.062  12.635 -1.7568 -0.8421  1.3610
19094TIP3   OH278696   4.257   1.087  15.250  0.2702  0.3153  0.1844
19094TIP3    H178697   4.169   1.062  15.222  0.1654  0.7771  0.0949
19094TIP3    H278698   4.281   1.021  15.316  0.4208 -0.6302 -0.7914
19095TIP3   OH278699   0.513   1.711  10.918 -0.6166  0.2009 -0.5116
19095TIP3    H178700   0.419   1.696  10.910 -0.4556 -1.3731  0.1255
19095TIP3    H278701   0.530   1.712  11.012 -0.1622  1.7940 -0.5815
19096TIP3   OH278702   3.810   6.713   6.372 -0.9341 -0.0315  0.4805
19096TIP3    H178703   3.787   6.657   6.446  0.0477  0.5465  1.2433
19096TIP3    H278704   3.809   6.802   6.408 -0.8707  0.3004 -0.3100
19097TIP3   OH278705   0.938   1.235  16.877 -0.0872 -0.1739 -0.8929
19097TIP3    H178706   0.961   1.206  16.788  0.6761  0.6778 -0.9879
19097TIP3    H278707   0.992   1.180  16.934 -1.3244 -1.4354 -0.8787
19098TIP3   OH278708   6.600   6.058  12.383 -0.1072 -0.1066 -0.2938
19098TIP3    H178709   6.571   6.075  12.293  0.2502 -0.3922 -0.4688
19098TIP3    H278710   6.679   6.006  12.372  1.2866  1.8374  0.1433
19099TIP3   OH278711   1.024   0.467  14.271 -0.0635 -0.0221  0.1705
19099TIP3    H178712   1.052   0.489  14.182 -0.3793 -1.3232 -0.2722
19099TIP3    H278713   1.042   0.546  14.322 -2.2940  1.7414 -1.5365
19100TIP3   OH278714   2.518   5.558   2.887 -0.4437 -0.1766 -0.3472
19100TIP3    H178715   2.507   5.537   2.794 -0.5970 -1.0690 -0.1390
19100TIP3    H278716   2.456   5.629   2.903 -0.3940  0.0044 -0.9319
19101TIP3   OH278717   3.269   0.791  15.857 -0.1367  0.4802  0.3215
19101TIP3    H178718   3.357   0.773  15.892  0.2054  1.1800 -0.1457
19101TIP3    H278719   3.279   0.784  15.762 -0.7547 -0.1258  0.2986
19102TIP3   OH278720   0.717   5.521  12.683 -0.2006 -0.0517 -0.1850
19102TIP3    H178721   0.679   5.586  12.624  0.0827 -1.1837 -1.6866
19102TIP3    H278722   0.648   5.455  12.692 -0.9885  1.0131  2.3766
19103TIP3   OH278723   0.575   6.481   3.234 -0.3268  0.0407 -0.6004
19103TIP3    H178724   0.511   6.551   3.218 -2.3947 -1.6080 -0.0136
19103TIP3    H278725   0.659   6.521   3.213 -1.3921  2.7019 -0.3066
19104TIP3   OH278726   3.742   2.837  10.647  0.4255  0.0488  0.6068
19104TIP3    H178727   3.723   2.745  10.666 -1.5646  0.1437 -0.6638
19104TIP3    H278728   3.673   2.886  10.693 -2.2684  0.4664 -3.3813
19105TIP3   OH278729   0.777   1.093   4.641 -0.0591 -0.0774  0.1217
19105TIP3    H178730   0.739   1.172   4.604  0.5106 -0.1636 -0.6736
19105TIP3    H278731   0.718   1.023   4.613 -0.3180  0.0013  0.4535
19106TIP3   OH278732   3.695   6.513  12.400 -1.3030  0.2016  0.1282
19106TIP3    H178733   3.722   6.467  12.320 -1.8252  0.5650 -0.2614
19106TIP3    H278734   3.661   6.597  12.369 -0.2062  0.9268  0.8476
19107TIP3   OH278735   4.955   4.980  12.727 -0.5092 -0.8925 -0.2282
19107TIP3    H178736   4.968   4.986  12.632 -0.0750 -2.3115 -0.2813
19107TIP3    H278737   4.874   5.029  12.743  0.4571  1.1056 -1.0206
19108TIP3   OH278738   6.038   5.998   4.265  0.0724 -0.1097  0.0275
19108TIP3    H178739   5.956   5.958   4.293 -0.1682  0.5535  0.2921
19108TIP3    H278740   6.096   5.988   4.341  0.4850 -1.2163 -0.4075
19109TIP3   OH278741   4.001   3.044   5.645  0.2033  0.6613  0.2356
19109TIP3    H178742   3.981   3.001   5.728  0.0518  0.1045 -0.0841
19109TIP3    H278743   3.972   3.135   5.657 -0.8869  0.3023  0.3876
19110TIP3   OH278744   1.751   3.968   0.166  0.4424 -0.1731  0.2047
19110TIP3    H178745   1.773   4.059   0.148  1.0168 -0.4695 -0.6426
19110TIP3    H278746   1.835   3.923   0.172  0.1787 -0.5884  1.0344
19111TIP3   OH278747   3.779   4.593   1.724  0.5229 -0.1797 -0.0608
19111TIP3    H178748   3.846   4.533   1.692  0.9225 -0.6170  1.5247
19111TIP3    H278749   3.796   4.601   1.817 -1.1403  0.3455  0.2391
19112TIP3   OH278750   3.016   4.947  15.788  0.5738  0.3182 -0.2868
19112TIP3    H178751   3.102   4.921  15.754 -0.1179 -1.2674 -0.9258
19112TIP3    H278752   2.963   4.963  15.710  0.0547  0.4802  0.0964
19113TIP3   OH278753   1.819   3.262   4.728  0.4323  0.4677 -0.0965
19113TIP3    H178754   1.785   3.273   4.640  0.0911 -2.1800 -0.3752
19113TIP3    H278755   1.765   3.320   4.782 -0.4721  0.8578 -1.3877
19114TIP3   OH278756   3.012   6.784  11.629 -0.4892 -0.4782 -0.3598
19114TIP3    H178757   3.082   6.843  11.659 -0.5415  0.6373 -2.2545
19114TIP3    H278758   3.054   6.699  11.623  0.6283  0.0888 -1.0387
19115TIP3   OH278759   5.941   5.771   0.153 -0.1529 -0.0478  0.0048
19115TIP3    H178760   5.878   5.839   0.176  1.3333  1.1717  0.7272
19115TIP3    H278761   5.911   5.693   0.200 -1.7258  0.1808 -0.5892
19116TIP3   OH278762   6.067   6.280   0.631  0.1205 -0.3383  0.0404
19116TIP3    H178763   6.017   6.198   0.630  0.9702 -0.8674 -0.5613
19116TIP3    H278764   6.009   6.344   0.589 -0.1276 -0.8952 -0.4802
19117TIP3   OH278765   6.067   1.312   1.066 -0.6352 -0.2380  0.3340
19117TIP3    H178766   6.162   1.315   1.055 -0.6392  0.4738  0.4639
19117TIP3    H278767   6.032   1.353   0.987 -0.8275 -0.1866  0.4453
19118TIP3   OH278768   6.088   2.470  12.138 -0.2169 -0.1754  0.1628
19118TIP3    H178769   6.170   2.519  12.138 -0.9281  1.0658 -0.2935
19118TIP3    H278770   6.029   2.522  12.083 -0.3719 -2.6342 -2.2156
19119TIP3   OH278771   6.699   5.361   3.598  0.1225  0.0269  0.1501
19119TIP3    H178772   6.640   5.430   3.569  0.5845  0.0029 -0.9104
19119TIP3    H278773   6.651   5.280   3.581  0.6911 -0.0241 -1.3498
19120TIP3   OH278774   4.769   1.655  15.438 -0.2807 -0.1145  0.0105
19120TIP3    H178775   4.833   1.655  15.367  0.0243 -0.3468  0.2815
19120TIP3    H278776   4.723   1.738  15.430 -2.5630 -1.4652 -2.5086
19121TIP3   OH278777   2.521   2.940  16.936 -0.0238 -0.4002 -0.0956
19121TIP3    H178778   2.485   2.947  17.024 -1.2230 -1.3316 -0.4780
19121TIP3    H278779   2.567   2.856  16.936 -1.6317 -1.3406 -0.8529
19122TIP3   OH278780   0.596   1.930  13.122 -0.3267 -0.2698  0.1360
19122TIP3    H178781   0.502   1.915  13.132 -0.6473  0.4878 -1.3948
19122TIP3    H278782   0.603   1.993  13.050  1.2937  0.8155  1.1692
19123TIP3   OH278783   0.497   3.552  10.861  0.1065  0.1409 -0.2456
19123TIP3    H178784   0.494   3.457  10.875 -0.8589 -0.2999 -2.8014
19123TIP3    H278785   0.590   3.574  10.867  0.4586 -1.1559 -0.5812
19124TIP3   OH278786   5.196   0.362   4.703 -0.0610 -0.0492 -0.3729
19124TIP3    H178787   5.257   0.300   4.664  0.0647 -0.5009  0.5216
19124TIP3    H278788   5.246   0.405   4.772 -0.5592  0.0592 -0.0750
19125TIP3   OH278789   5.016   4.223   2.246 -0.3434 -0.4568 -0.4171
19125TIP3    H178790   4.998   4.317   2.254 -0.6446 -0.6214  1.1538
19125TIP3    H278791   5.041   4.196   2.334 -0.1954 -1.8462 -0.8636
19126TIP3   OH278792   1.002   2.389   1.200 -0.1441 -0.3421  0.4147
19126TIP3    H178793   1.060   2.414   1.129  1.2432 -2.2820  0.7981
19126TIP3    H278794   1.058   2.381   1.277 -0.8977 -2.0298  0.8560
19127TIP3   OH278795   3.799   4.771   6.573 -0.0364 -0.3017 -0.2042
19127TIP3    H178796   3.746   4.721   6.511 -1.3987  1.6075 -0.6701
19127TIP3    H278797   3.737   4.831   6.614  1.1391 -0.4337  1.8961
19128TIP3   OH278798   5.308   6.286  15.483  0.2747 -0.5939  1.0646
19128TIP3    H178799   5.400   6.266  15.464  0.3504 -0.4608  1.2858
19128TIP3    H278800   5.259   6.221  15.433  0.4729 -0.3568  0.5529
19129TIP3   OH278801   2.927   0.898   5.941  0.6394 -0.3941 -0.2068
19129TIP3    H178802   2.944   0.822   5.996 -0.3342 -1.3586 -1.1686
19129TIP3    H278803   3.009   0.914   5.895  1.3388  0.1787  1.2025
19130TIP3   OH278804   1.601   5.805   4.141 -0.2905  0.1161  0.6367
19130TIP3    H178805   1.507   5.802   4.155  0.1145 -0.4375  4.1908
19130TIP3    H278806   1.625   5.714   4.119 -0.5680  0.2929 -0.4428
19131TIP3   OH278807   3.035   3.978   4.704 -0.5515 -0.0990  0.2016
19131TIP3    H178808   3.062   3.983   4.796  1.3903 -2.0855 -0.1547
19131TIP3    H278809   3.102   3.922   4.664 -2.6852 -1.2910 -1.8995
19132TIP3   OH278810   6.703   0.414   4.607  0.4464 -0.3692  0.2200
19132TIP3    H178811   6.628   0.459   4.568 -2.4883 -2.3931  3.0257
19132TIP3    H278812   6.679   0.322   4.608  2.5750 -1.0121  2.0840
19133TIP3   OH278813   5.642   4.422  11.445 -0.1554  0.2845 -0.1612
19133TIP3    H178814   5.698   4.489  11.484  2.2008 -1.2420 -0.7052
19133TIP3    H278815   5.623   4.362  11.517 -0.6087  0.4636 -0.1246
19134TIP3   OH278816   1.757   5.138  14.810 -0.3451  0.1008  0.2595
19134TIP3    H178817   1.788   5.047  14.813  1.8756  0.7482 -0.8869
19134TIP3    H278818   1.802   5.181  14.883 -0.2866  0.5678 -0.0468
19135TIP3   OH278819   0.096   5.495   0.260 -0.2898  0.3652  0.2281
19135TIP3    H178820   0.065   5.553   0.329 -0.9456  1.0418 -0.6212
19135TIP3    H278821   0.175   5.538   0.227 -1.3038  1.3156 -1.0528
19136TIP3   OH278822   1.195   1.491   0.478 -0.6940 -0.3795  0.2237
19136TIP3    H178823   1.213   1.503   0.572 -1.1573 -0.5448  0.3359
19136TIP3    H278824   1.169   1.399   0.471 -1.8134 -0.0593  0.1148
19137TIP3   OH278825   4.795   5.628  16.043 -0.2528  0.2382  0.3759
19137TIP3    H178826   4.772   5.598  16.131 -0.5926  1.5516  0.7604
19137TIP3    H278827   4.890   5.638  16.045 -0.4138  1.9093  1.1705
19138TIP3   OH278828   2.464   6.791   2.137 -0.4095 -0.6071  1.3008
19138TIP3    H178829   2.468   6.777   2.232 -1.3339  3.0057  2.0167
19138TIP3    H278830   2.371   6.783   2.116 -0.2639 -0.9221  0.7583
19139TIP3   OH278831   2.376   1.018   6.397  0.1627  0.3694  0.1118
19139TIP3    H178832   2.335   1.097   6.359 -3.9289 -1.1359  0.8832
19139TIP3    H278833   2.394   1.041   6.487 -2.0859  0.2387  0.6638
19140TIP3   OH278834   3.780   2.151  13.335  0.0310 -0.1411  0.4131
19140TIP3    H178835   3.843   2.222  13.324 -0.4603  0.1955 -0.2251
19140TIP3    H278836   3.732   2.174  13.414 -0.9942  0.9101 -0.4911
19141TIP3   OH278837   2.795   6.195  14.621 -0.3537  0.3311  0.1919
19141TIP3    H178838   2.764   6.284  14.605  0.5480  1.0568  2.2372
19141TIP3    H278839   2.721   6.152  14.665 -0.3141  0.4675  0.3913
19142TIP3   OH278840   4.422   6.156  11.403 -0.3521 -0.0763 -0.0549
19142TIP3    H178841   4.400   6.167  11.496 -1.1061  0.9299 -0.3348
19142TIP3    H278842   4.391   6.068  11.381  2.3945 -1.5245  1.3273
19143TIP3   OH278843   5.991   2.729  15.112  0.5531 -0.0141 -0.3064
19143TIP3    H178844   6.054   2.661  15.089  2.6537  1.6368  0.1968
19143TIP3    H278845   6.036   2.811  15.090 -1.0480  1.2646  0.9733
19144TIP3   OH278846   6.329   5.809   4.735  0.2260 -0.1154  0.1240
19144TIP3    H178847   6.399   5.779   4.677  0.1648  0.6638 -0.3708
19144TIP3    H278848   6.248   5.778   4.693  0.2485 -0.6286  0.4573
19145TIP3   OH278849   1.777   1.359  11.826 -0.6697 -0.2257 -0.4612
19145TIP3    H178850   1.755   1.374  11.918 -1.4070 -0.7299 -0.5406
19145TIP3    H278851   1.861   1.403  11.814 -1.0493  0.7173  0.1897
19146TIP3   OH278852   3.441   1.693  11.790  0.1327  0.1109  0.2930
19146TIP3    H178853   3.481   1.621  11.839 -1.1724 -0.7292  0.1711
19146TIP3    H278854   3.419   1.654  11.705  0.6259  1.0338 -0.2803
19147TIP3   OH278855   3.084   3.393   5.195 -0.2275 -0.5238  0.1460
19147TIP3    H178856   3.143   3.328   5.157  1.4744  0.0378  1.7011
19147TIP3    H278857   3.115   3.477   5.161 -1.2637 -0.3353 -0.3926
19148TIP3   OH278858   3.840   5.896  16.197  0.6455 -0.2984 -0.2989
19148TIP3    H178859   3.899   5.839  16.247  0.5122 -0.6295 -0.5167
19148TIP3    H278860   3.892   5.973  16.176  0.7136 -0.1675  0.3264
19149TIP3   OH278861   5.833   0.324   2.392  0.5344 -0.0044  0.4847
19149TIP3    H178862   5.929   0.333   2.389  0.3509  3.0627  0.7726
19149TIP3    H278863   5.800   0.412   2.372 -2.1729 -0.4967  2.2667
19150TIP3   OH278864   3.373   6.442  15.350 -0.1043 -0.0986  0.6266
19150TIP3    H178865   3.318   6.516  15.325  1.9775  1.7485  1.1363
19150TIP3    H278866   3.425   6.424  15.272  1.6035  1.1651  1.3839
19151TIP3   OH278867   1.306   5.031  11.533 -0.4665 -0.4245 -0.0147
19151TIP3    H178868   1.236   5.081  11.574  0.3135 -0.0520  0.9106
19151TIP3    H278869   1.387   5.076  11.559  0.1846 -1.4649 -0.1392
19152TIP3   OH278870   6.138   6.212   1.060 -0.5451  0.1930 -0.5188
19152TIP3    H178871   6.128   6.295   1.014 -1.0350  0.5089  0.1446
19152TIP3    H278872   6.049   6.184   1.079 -0.3794 -0.4480 -0.6745
19153TIP3   OH278873   4.277   5.172  12.286 -0.1253 -0.1602 -0.3203
19153TIP3    H178874   4.271   5.135  12.198 -2.6809  1.3616 -0.9163
19153TIP3    H278875   4.207   5.238  12.289  2.0077  2.2568  1.7404
19154TIP3   OH278876   0.998   0.199  11.030  0.3948 -0.1535 -0.1680
19154TIP3    H178877   1.006   0.230  11.121  1.4549  1.2310 -0.7041
19154TIP3    H278878   1.063   0.130  11.022  0.9116  0.3187 -0.1028
19155TIP3   OH278879   0.448   0.836  16.689  0.3463 -0.3053 -0.3134
19155TIP3    H178880   0.393   0.876  16.621  1.3892  0.8269 -0.5203
19155TIP3    H278881   0.390   0.830  16.765  0.5252  3.2530  0.2837
19156TIP3   OH278882   4.968   4.137   1.633  0.2652  0.0093  0.3180
19156TIP3    H178883   4.938   4.222   1.602 -0.4085  0.2389  1.5772
19156TIP3    H278884   5.062   4.149   1.646  0.1213  0.6519  0.7937
19157TIP3   OH278885   1.241   4.866  16.450 -0.2141  0.6738  0.0651
19157TIP3    H178886   1.329   4.902  16.437  0.4195 -1.1741 -1.0439
19157TIP3    H278887   1.232   4.858  16.544  1.0074  0.4515  0.1786
19158TIP3   OH278888   4.541   1.672   2.916  0.0141 -0.1021  0.2664
19158TIP3    H178889   4.463   1.646   2.965 -0.8050 -1.5855 -1.6828
19158TIP3    H278890   4.507   1.708   2.835  1.3458  0.1831 -0.1857
19159TIP3   OH278891   4.281   5.829   1.329 -0.7405  0.3227  0.3220
19159TIP3    H178892   4.223   5.765   1.371 -0.7250  0.1613  0.0977
19159TIP3    H278893   4.355   5.837   1.390  1.0362 -2.5452 -1.2208
19160TIP3   OH278894   2.421   1.873  14.678 -0.4954  0.0502  0.5987
19160TIP3    H178895   2.404   1.967  14.672 -0.6917 -0.0577 -0.8132
19160TIP3    H278896   2.497   1.859  14.621 -0.1257 -0.5650  1.2290
19161TIP3   OH278897   2.212   3.215  15.985 -0.2705  0.2766  0.6926
19161TIP3    H178898   2.264   3.224  15.906 -0.2080 -0.3466  0.6574
19161TIP3    H278899   2.125   3.189  15.954  0.1917 -1.7062  0.8822
19162TIP3   OH278900   5.831   3.945  15.307  0.3169  0.1171  0.4790
19162TIP3    H178901   5.870   4.005  15.244 -0.1827 -1.4350 -1.3984
19162TIP3    H278902   5.777   3.886  15.254 -1.7776  0.0026  2.5743
19163TIP3   OH278903   6.561   4.963   1.184 -0.2813 -0.1938  0.6884
19163TIP3    H178904   6.516   5.023   1.125 -1.1166 -1.2831  0.1822
19163TIP3    H278905   6.615   4.908   1.127 -0.2626 -0.5526  1.0444
19164TIP3   OH278906   5.275   0.175   1.949  0.0859 -0.0337 -0.4198
19164TIP3    H178907   5.219   0.098   1.939 -1.5244  0.9292  0.7379
19164TIP3    H278908   5.359   0.140   1.978 -0.3896 -1.4013 -0.6207
19165TIP3   OH278909   5.706   6.318  12.625  0.0706  0.0892 -0.1512
19165TIP3    H178910   5.633   6.287  12.571 -1.6124  0.8670  1.5711
19165TIP3    H278911   5.748   6.385  12.571 -0.5371 -0.2982 -1.1364
19166TIP3   OH278912   6.242   2.274  13.051 -0.2710  0.3436 -0.1412
19166TIP3    H178913   6.328   2.285  13.093  0.1787 -3.8042  0.5344
19166TIP3    H278914   6.259   2.285  12.958  1.2618 -1.2147 -0.0928
19167TIP3   OH278915   3.964   1.915  13.168 -0.4644 -0.4583 -0.1261
19167TIP3    H178916   3.978   1.836  13.221  0.3019 -0.1369  0.1664
19167TIP3    H278917   3.905   1.969  13.219 -0.1407 -0.3753  0.1577
19168TIP3   OH278918   5.433   1.793  16.107 -0.0013 -0.0111 -0.1178
19168TIP3    H178919   5.387   1.710  16.094  2.2999 -1.4312  0.2580
19168TIP3    H278920   5.503   1.773  16.168  0.0126  2.4934  0.8017
19169TIP3   OH278921   6.050   3.980  17.165 -0.6843 -0.0413  0.4434
19169TIP3    H178922   6.033   4.008  17.255  1.5654 -0.2728  1.0018
19169TIP3    H278923   6.142   3.953  17.166 -0.3260  0.8411 -2.1470
19170TIP3   OH278924   3.492   6.732   4.467  0.5754  0.1516  0.2595
19170TIP3    H178925   3.585   6.732   4.445 -0.4200  1.6199 -5.8125
19170TIP3    H278926   3.453   6.669   4.407 -2.4594 -0.3286  2.5023
19171TIP3   OH278927   0.620   5.527  10.762  0.6618  0.3986 -0.3697
19171TIP3    H178928   0.680   5.457  10.788  1.2390  1.9473  2.9979
19171TIP3    H278929   0.672   5.586  10.709  1.4094  0.4178  0.3677
19172TIP3   OH278930   0.274   5.401   1.190 -0.7428  0.0084 -0.2503
19172TIP3    H178931   0.189   5.403   1.234 -0.3533 -0.0193  0.5343
19172TIP3    H278932   0.338   5.398   1.262 -0.0888 -0.2572 -0.8272
19173TIP3   OH278933   6.596   4.275  13.518  0.5209 -0.4018  0.0160
19173TIP3    H178934   6.593   4.225  13.599  0.8419 -0.0185  0.2697
19173TIP3    H278935   6.649   4.352  13.539 -1.0454  0.7304  0.0213
19174TIP3   OH278936   0.101   4.621  13.901 -0.0002  0.0865  0.0572
19174TIP3    H178937   0.138   4.704  13.874 -0.9589  0.5002 -0.0479
19174TIP3    H278938   0.176   4.566  13.923  0.6726  0.7203 -0.6126
19175TIP3   OH278939   0.775   3.306   4.915  0.0883  0.2200  0.4721
19175TIP3    H178940   0.697   3.353   4.944 -1.7183 -1.7298 -0.9462
19175TIP3    H278941   0.767   3.304   4.820  2.4826  0.8985  0.1977
19176TIP3   OH278942   1.283   2.213   2.237 -0.6572 -0.1921 -0.2593
19176TIP3    H178943   1.259   2.156   2.310 -0.2823 -0.7042 -0.5232
19176TIP3    H278944   1.234   2.294   2.252 -1.9928 -0.9379 -0.4111
19177TIP3   OH278945   2.701   2.755   5.671  0.4827 -0.0505  0.5507
19177TIP3    H178946   2.695   2.845   5.704  1.1329  0.7779 -1.4872
19177TIP3    H278947   2.792   2.745   5.644  0.3673 -1.2787  0.5681
19178TIP3   OH278948   0.133   2.226   5.538 -0.0227 -0.5356  0.1726
19178TIP3    H178949   0.107   2.191   5.453  0.4416 -1.0012  0.2164
19178TIP3    H278950   0.149   2.319   5.522  0.2049 -0.6501 -0.2814
19179TIP3   OH278951   4.103   4.863   0.456  0.5284  0.0308 -0.1075
19179TIP3    H178952   4.008   4.879   0.452  0.6935  0.9483 -0.7734
19179TIP3    H278953   4.123   4.822   0.372  0.9444  1.2407 -0.6249
19180TIP3   OH278954   6.596   5.030  14.828  0.1991 -0.0515  0.3106
19180TIP3    H178955   6.615   5.060  14.739 -1.1920  0.1984  0.0639
19180TIP3    H278956   6.571   4.938  14.816 -0.6684  0.1680  0.3187
19181TIP3   OH278957   3.871   2.255  11.538  0.0620 -0.0248  0.2424
19181TIP3    H178958   3.830   2.254  11.451  1.3618  1.2902 -0.4203
19181TIP3    H278959   3.963   2.233  11.522  0.4112  0.6499  1.2204
19182TIP3   OH278960   2.857   2.955  12.403  0.3587 -0.6010 -0.2585
19182TIP3    H178961   2.774   2.917  12.375 -0.2961 -1.3111  2.3309
19182TIP3    H278962   2.834   3.009  12.478  1.9728  1.0252 -0.8679
19183TIP3   OH278963   6.698   5.107  10.882 -0.3361  0.0466  0.2376
19183TIP3    H178964   6.705   5.176  10.815  0.3714  0.2281  0.4863
19183TIP3    H278965   6.611   5.069  10.869 -0.0385 -0.2169 -1.0746
19184TIP3   OH278966   0.883   3.702  17.106 -0.0361  0.3814 -0.6144
19184TIP3    H178967   0.857   3.625  17.157  0.3084 -0.4223 -1.6247
19184TIP3    H278968   0.815   3.767  17.125 -1.2440 -0.7225 -1.0087
19185TIP3   OH278969   6.490   1.785   5.110  0.2504  0.1500  0.0573
19185TIP3    H178970   6.557   1.806   5.175 -2.1869  0.0077  2.8001
19185TIP3    H278971   6.423   1.852   5.123  0.2514  0.9778 -3.3807
19186TIP3   OH278972   6.323   1.059  13.894 -0.1919  0.6503 -0.7621
19186TIP3    H178973   6.319   0.997  13.820 -0.4597  0.5690 -0.6804
19186TIP3    H278974   6.367   1.136  13.858 -1.6170  1.1963 -1.4405
19187TIP3   OH278975   3.929   3.306   5.592  0.8367  0.4252 -0.3197
19187TIP3    H178976   3.872   3.383   5.590 -1.6806 -1.3467 -0.0214
19187TIP3    H278977   4.007   3.333   5.542 -1.2128  2.2163 -2.8038
19188TIP3   OH278978   1.592   6.538   0.734 -1.1860 -0.0500 -0.7049
19188TIP3    H178979   1.560   6.617   0.778  1.0368  0.6102 -0.1745
19188TIP3    H278980   1.624   6.482   0.804  1.6877  0.6923 -1.3087
19189TIP3   OH278981   6.526   2.629   0.234  0.5653 -0.1784 -0.3468
19189TIP3    H178982   6.485   2.547   0.208  1.9888 -0.8391 -0.5853
19189TIP3    H278983   6.541   2.620   0.328  2.5238 -1.0672 -0.6911
19190TIP3   OH278984   5.979   4.020  13.787  0.5696 -0.0243  0.5133
19190TIP3    H178985   6.009   3.992  13.873 -1.6476  0.0362  1.3879
19190TIP3    H278986   5.919   4.092  13.805  1.3841  1.1360 -1.2378
19191TIP3   OH278987   5.898   2.954  11.648 -0.6589 -0.0630 -0.0905
19191TIP3    H178988   5.953   3.009  11.592 -1.7084 -0.9673 -2.1000
19191TIP3    H278989   5.818   3.004  11.661 -0.7851 -0.2438 -0.1657
19192TIP3   OH278990   5.138   5.877  13.068 -0.2348  0.0837  0.1470
19192TIP3    H178991   5.105   5.956  13.025  0.2061 -0.0083 -0.3623
19192TIP3    H278992   5.117   5.806  13.007  1.3164  0.0759 -0.4135
19193TIP3   OH278993   4.667   4.190  14.686 -0.1104 -0.1943  0.2968
19193TIP3    H178994   4.597   4.233  14.735 -0.2473 -1.0372  0.8889
19193TIP3    H278995   4.629   4.173  14.600 -0.4966 -0.2637  0.4743
19194TIP3   OH278996   0.609   5.407  12.968 -0.1997 -0.3760 -0.0130
19194TIP3    H178997   0.597   5.381  12.877  0.9276 -0.3130 -0.2002
19194TIP3    H278998   0.698   5.377  12.990 -0.4021 -0.2716  1.0244
19195TIP3   OH278999   4.178   4.443  12.775  0.2587 -0.0586 -0.5008
19195TIP3    H179000   4.085   4.430  12.795  0.6398 -0.8581  0.8963
19195TIP3    H279001   4.179   4.472  12.684 -1.3781  0.2855 -0.4491
19196TIP3   OH279002   2.149   1.414  15.639  0.6851 -0.0695 -0.2613
19196TIP3    H179003   2.212   1.344  15.655 -0.1226 -0.6152  0.6976
19196TIP3    H279004   2.106   1.389  15.557 -0.6235 -1.5560  0.7918
19197TIP3   OH279005   3.627   0.335  13.200 -0.1991  0.2989 -0.2867
19197TIP3    H179006   3.633   0.242  13.178 -0.2117  0.2438 -0.0671
19197TIP3    H279007   3.625   0.336  13.296 -2.2623  0.3760 -0.2715
19198TIP3   OH279008   5.417   3.688   3.972 -0.3203  0.0114 -0.8367
19198TIP3    H179009   5.391   3.779   3.957 -1.0074  0.5616  2.8962
19198TIP3    H279010   5.336   3.643   3.997  0.5821 -0.7145  0.9138
19199TIP3   OH279011   5.766   4.015  10.327 -0.1166  0.9238 -0.5062
19199TIP3    H179012   5.753   4.002  10.233  0.6234  0.0983 -0.5064
19199TIP3    H279013   5.856   3.987  10.342 -0.0496  1.5657  0.3643
19200TIP3   OH279014   4.914   1.109   3.523 -0.3284  0.0005 -0.0232
19200TIP3    H179015   4.927   1.027   3.475  0.6069 -0.4374  0.9287
19200TIP3    H279016   4.897   1.082   3.613 -1.5003  0.8235  0.0196
19201TIP3   OH279017   5.113   5.098   1.668  0.4622 -0.0615  0.1542
19201TIP3    H179018   5.124   5.190   1.645 -0.2932  0.2130  0.8043
19201TIP3    H279019   5.018   5.088   1.679  0.4564 -1.1169 -0.6846
19202TIP3   OH279020   3.296   4.580   5.047  0.1317 -0.2732 -0.1381
19202TIP3    H179021   3.258   4.505   5.000 -0.6358 -0.3296  0.5495
19202TIP3    H279022   3.390   4.566   5.042  0.0663 -0.3316 -1.5566
19203TIP3   OH279023   6.327   0.301  11.628 -0.0702 -0.1311 -0.2189
19203TIP3    H179024   6.268   0.277  11.700  1.7836 -0.0415  1.4121
19203TIP3    H279025   6.347   0.393  11.643  2.3208 -0.7361  0.7321
19204TIP3   OH279026   0.554   4.131  16.455  0.1769 -0.8015 -0.2430
19204TIP3    H179027   0.597   4.205  16.413 -0.4656 -0.5522 -0.4870
19204TIP3    H279028   0.611   4.107  16.528 -0.2510  0.7719  0.6426
19205TIP3   OH279029   4.147   6.797   2.229 -0.2320  0.0430 -0.1179
19205TIP3    H179030   4.058   6.764   2.227 -0.7415  1.2911  0.6849
19205TIP3    H279031   4.196   6.732   2.278 -1.0582  0.1254  0.8435
19206TIP3   OH279032   4.585   1.629  12.862  0.3916  0.6643 -0.4632
19206TIP3    H179033   4.605   1.592  12.948 -0.5342 -0.1490 -0.5733
19206TIP3    H279034   4.635   1.710  12.858  1.1140  0.2877  0.5003
19207TIP3   OH279035   2.941   1.761   5.554 -0.2000  0.1704 -0.2347
19207TIP3    H179036   2.980   1.816   5.621 -1.6233  1.5486 -0.4779
19207TIP3    H279037   2.849   1.751   5.580 -0.3099 -0.9440 -0.9362
19208TIP3   OH279038   0.074   5.399  12.844  0.1840 -0.3266  0.3018
19208TIP3    H179039   0.029   5.399  12.929  0.1948 -0.6085  0.3082
19208TIP3    H279040   0.011   5.440  12.784 -0.5805 -1.7902  0.0553
19209TIP3   OH279041   2.656   5.348   5.275 -0.6189 -0.3092  0.4314
19209TIP3    H179042   2.668   5.327   5.183 -0.5517 -0.2035  0.4156
19209TIP3    H279043   2.738   5.320   5.317  0.6318  2.3248 -0.0034
19210TIP3   OH279044   6.230   4.078   5.733 -0.1467  0.1533 -0.0166
19210TIP3    H179045   6.268   4.063   5.820 -0.5533  3.2218  0.7999
19210TIP3    H279046   6.306   4.082   5.674  0.1571 -1.5250  0.1929
19211TIP3   OH279047   2.315   3.280   2.895 -0.3886 -0.1422  0.0974
19211TIP3    H179048   2.396   3.299   2.848 -0.6407 -1.1703 -0.7711
19211TIP3    H279049   2.247   3.279   2.828 -1.2852  1.5251  0.9255
19212TIP3   OH279050   0.827   2.669   4.839  0.4051  0.6011  0.6727
19212TIP3    H179051   0.847   2.690   4.748  0.0729 -2.1385 -0.1138
19212TIP3    H279052   0.745   2.715   4.856 -0.1674  0.1937 -0.8156
19213TIP3   OH279053   3.704   0.323   2.247  0.0083 -0.3973  0.0682
19213TIP3    H179054   3.683   0.257   2.313 -1.0497  0.3710  0.5325
19213TIP3    H279055   3.754   0.389   2.295 -2.2000  1.0100  0.5919
19214TIP3   OH279056   2.448   3.785   5.521 -0.7561 -0.0708 -0.5577
19214TIP3    H179057   2.376   3.816   5.467 -1.8874 -0.5318  0.6494
19214TIP3    H279058   2.441   3.834   5.603 -0.1522 -0.6438 -0.1472
19215TIP3   OH279059   2.518   5.141  12.443  0.0866  0.8030  0.0499
19215TIP3    H179060   2.489   5.050  12.449 -0.0816  0.8676  0.2166
19215TIP3    H279061   2.610   5.138  12.471  0.7620  0.3358 -2.0808
19216TIP3   OH279062   2.064   4.588  14.531  0.4739 -0.1009 -0.3172
19216TIP3    H179063   2.151   4.602  14.569 -0.0463  0.8830  0.5548
19216TIP3    H279064   2.064   4.496  14.507  1.3026 -0.4399  0.8711
19217TIP3   OH279065   1.945   3.838  14.149 -0.3606 -0.0192  0.2804
19217TIP3    H179066   1.887   3.864  14.077 -1.3203 -1.2452  0.5784
19217TIP3    H279067   1.957   3.918  14.199 -0.9198  0.5055 -0.3925
19218TIP3   OH279068   6.475   6.006  16.949  0.7165  0.3641 -0.0671
19218TIP3    H179069   6.432   6.085  16.980 -3.1650 -0.8354 -1.8018
19218TIP3    H279070   6.502   5.960  17.029 -3.4212  0.1866  1.4272
19219TIP3   OH279071   0.693   0.513  14.356 -0.1405  0.0265 -0.5341
19219TIP3    H179072   0.713   0.442  14.294 -2.0003 -1.5427  0.5447
19219TIP3    H279073   0.755   0.582  14.333  1.6564 -1.8464 -1.7845
19220TIP3   OH279074   4.892   6.442  17.104  0.1376  0.0555 -0.5594
19220TIP3    H179075   4.926   6.365  17.150 -0.0616  0.3451  0.0824
19220TIP3    H279076   4.923   6.516  17.156 -0.4803  0.3706 -0.6307
19221TIP3   OH279077   5.686   5.787   2.053 -0.2232  0.3421 -0.5353
19221TIP3    H179078   5.617   5.844   2.020  0.1889 -0.3805 -2.8962
19221TIP3    H279079   5.640   5.709   2.085 -0.5635  0.0603 -1.6692
19222TIP3   OH279080   6.736   2.281  13.360  0.0023  0.2014 -0.0200
19222TIP3    H179081   6.725   2.187  13.344  0.7611  0.1595 -0.3097
19222TIP3    H279082   6.798   2.310  13.294 -0.1128  0.8828  0.1645
19223TIP3   OH279083   2.655   5.498   3.664  0.3716  0.4394 -0.2338
19223TIP3    H179084   2.564   5.525   3.680  0.7891  1.9886 -0.3456
19223TIP3    H279085   2.708   5.565   3.709  1.4729 -1.2270  1.0835
19224TIP3   OH279086   4.183   1.994   3.433 -0.1568  0.0254 -0.1432
19224TIP3    H179087   4.219   2.035   3.512 -0.8718 -0.8959  0.6734
19224TIP3    H279088   4.145   2.067   3.384  0.6532  0.6655  0.1481
19225TIP3   OH279089   4.563   2.619  11.890  0.8015  0.0721  0.2142
19225TIP3    H179090   4.578   2.611  11.796  1.6797  0.4834  0.3039
19225TIP3    H279091   4.546   2.712  11.904 -1.3398 -0.2781  0.2147
19226TIP3   OH279092   0.036   6.541   2.310  0.0628 -0.1371  0.1179
19226TIP3    H179093   0.080   6.505   2.233  0.3320 -0.0883  0.2490
19226TIP3    H279094   0.081   6.624   2.328 -0.5472  0.2666 -0.1751
19227TIP3   OH279095   3.994   1.503   5.089 -0.1899 -0.1380 -0.3509
19227TIP3    H179096   4.051   1.531   5.017 -0.7396  0.5370 -0.5339
19227TIP3    H279097   4.014   1.410   5.100 -1.2304 -0.6884 -2.4718
19228TIP3   OH279098   4.448   4.801   5.139  0.3446  0.4620 -0.5398
19228TIP3    H179099   4.452   4.834   5.229 -0.5605  2.3019 -1.1197
19228TIP3    H279100   4.378   4.852   5.098  1.2797  0.2590 -2.5051
19229TIP3   OH279101   3.451   6.269  15.836  0.1969 -0.6536  0.1921
19229TIP3    H179102   3.455   6.304  15.747  1.3611 -0.9301  0.1154
19229TIP3    H279103   3.542   6.250  15.858  0.1517  0.9900  2.0814
19230TIP3   OH279104   6.110   3.360  14.237 -0.3171  0.2045 -0.1819
19230TIP3    H179105   6.061   3.360  14.155  1.1983  0.1203 -1.1221
19230TIP3    H279106   6.090   3.276  14.277 -1.0923  0.2581 -0.4473
19231TIP3   OH279107   4.167   2.464   5.902 -0.4205 -0.2095 -0.0917
19231TIP3    H179108   4.190   2.529   5.969 -0.4534 -0.6507  0.3557
19231TIP3    H279109   4.180   2.509   5.819  0.0477  0.2083  0.2034
19232TIP3   OH279110   0.390   1.300  12.306  0.1071  0.3079 -0.2645
19232TIP3    H179111   0.444   1.329  12.379  0.7159  0.9181 -0.9375
19232TIP3    H279112   0.303   1.335  12.324  0.6396  1.9203 -0.6522
19233TIP3   OH279113   0.910   5.569   2.624  0.0734  0.1008  0.2820
19233TIP3    H179114   0.920   5.512   2.700 -0.2813 -0.2660  0.0576
19233TIP3    H279115   0.864   5.646   2.657 -1.1898 -0.5939  0.1972
19234TIP3   OH279116   6.569   6.637   0.856 -0.3981 -0.5162  0.7717
19234TIP3    H179117   6.553   6.694   0.931  0.1919 -1.5917  1.7468
19234TIP3    H279118   6.634   6.574   0.887  0.4021 -0.5589 -0.8718
19235TIP3   OH279119   3.747   1.675  17.105  0.7222 -0.1235  0.7447
19235TIP3    H179120   3.719   1.692  17.195 -0.1352 -0.5489  0.5688
19235TIP3    H279121   3.702   1.742  17.053 -1.2650 -1.7579  0.2661
19236TIP3   OH279122   3.593   3.081  11.533  0.4277 -0.0904  0.0747
19236TIP3    H179123   3.657   3.085  11.605 -0.2222  0.0131  0.6518
19236TIP3    H279124   3.514   3.121  11.569  0.4955  1.1976 -1.1285
19237TIP3   OH279125   5.184   0.265   2.628 -0.3689 -0.1350  0.4486
19237TIP3    H179126   5.184   0.172   2.602 -0.4962  0.5289 -2.3064
19237TIP3    H279127   5.193   0.264   2.723  0.5661 -2.9532  0.4163
19238TIP3   OH279128   3.358   3.922  15.531 -1.0336 -0.2879 -0.0306
19238TIP3    H179129   3.402   3.845  15.566 -0.7893  0.0311  0.3670
19238TIP3    H279130   3.373   3.917  15.436 -0.2155 -0.2289  0.0899
19239TIP3   OH279131   1.759   5.073  16.317  0.0980  0.1763 -0.6540
19239TIP3    H179132   1.736   4.987  16.281  0.4687 -0.8063  1.3578
19239TIP3    H279133   1.751   5.063  16.411  1.9965  1.8313 -0.2611
19240TIP3   OH279134   3.670   2.511   3.514 -0.4787  0.5323  0.1931
19240TIP3    H179135   3.582   2.488   3.546 -0.1133 -0.7254  0.3493
19240TIP3    H279136   3.690   2.444   3.449  0.4075  0.7520  0.2262
19241TIP3   OH279137   1.114   5.937  14.118  0.1902  0.3856 -0.0100
19241TIP3    H179138   1.076   5.962  14.203  0.0800  0.6762 -0.1434
19241TIP3    H279139   1.049   5.879  14.079  1.0086 -1.1691  0.8525
19242TIP3   OH279140   1.460   1.377   2.895 -0.3671  0.2389  0.4660
19242TIP3    H179141   1.447   1.287   2.923  1.2271  0.0926  0.7988
19242TIP3    H279142   1.421   1.381   2.807 -0.7202 -0.6694  0.5755
19243TIP3   OH279143   4.649   5.722  10.993  0.0083  0.2301  0.3822
19243TIP3    H179144   4.683   5.633  10.987 -1.1778 -0.2902  1.0292
19243TIP3    H279145   4.648   5.753  10.902 -1.4617 -1.1825 -0.1496
19244TIP3   OH279146   6.295   1.985  11.771  0.4078 -0.1213 -0.4608
19244TIP3    H179147   6.302   2.047  11.698  1.3706 -1.0468 -1.1789
19244TIP3    H279148   6.254   2.036  11.841 -1.9692  0.3926 -2.1029
19245TIP3   OH279149   2.402   4.305   2.315  0.1530 -0.1397  0.0014
19245TIP3    H179150   2.473   4.267   2.368 -1.7829 -2.0336  1.4532
19245TIP3    H279151   2.441   4.321   2.230  2.6649  0.2562  1.1248
19246TIP3   OH279152   4.656   5.731   5.312  0.0118 -0.2412  0.3937
19246TIP3    H179153   4.741   5.759   5.345  0.2571  1.9849 -1.8390
19246TIP3    H279154   4.626   5.803   5.257 -2.9214 -1.3424  0.3447
19247TIP3   OH279155   1.714   6.375  15.214 -0.9729 -0.2467  0.0296
19247TIP3    H179156   1.681   6.456  15.252  1.2124 -0.3371  2.3919
19247TIP3    H279157   1.764   6.403  15.137 -0.0542  0.7151  0.9466
19248TIP3   OH279158   0.490   3.019  12.329  0.5359 -0.6364  0.0628
19248TIP3    H179159   0.441   3.089  12.374  0.1923 -1.6805  1.3701
19248TIP3    H279160   0.477   2.942  12.384  1.2393 -1.6464 -1.1495
19249TIP3   OH279161   3.342   2.983  16.428 -0.2363 -0.7510 -0.4546
19249TIP3    H179162   3.428   2.973  16.468 -0.1610 -0.0223 -0.4297
19249TIP3    H279163   3.281   2.984  16.502 -0.1407  0.0950 -0.3771
19250TIP3   OH279164   2.996   1.156   0.206 -0.1833 -0.0276  0.0702
19250TIP3    H179165   3.061   1.188   0.270 -0.7927  0.2675  0.5498
19250TIP3    H279166   2.912   1.172   0.248 -0.5440 -2.3164  0.3596
19251TIP3   OH279167   4.269   5.630   3.863  0.0846 -0.5417  0.1301
19251TIP3    H179168   4.290   5.632   3.956 -0.9512  0.9961  0.3609
19251TIP3    H279169   4.231   5.543   3.849  0.8273 -1.0237  0.9920
19252TIP3   OH279170   4.828   4.335  15.707  0.4471 -0.1496 -0.4965
19252TIP3    H179171   4.768   4.386  15.652  0.4102 -1.0829 -1.3534
19252TIP3    H279172   4.777   4.259  15.734  0.8265 -0.2664 -0.0978
19253TIP3   OH279173   2.102   3.025  15.395 -0.3559  0.4884  0.0884
19253TIP3    H179174   2.084   3.006  15.486  2.3907  0.5327  0.7492
19253TIP3    H279175   2.104   3.121  15.390  1.4878  0.5060  0.5119
19254TIP3   OH279176   6.712   2.487   4.567  0.0791 -0.4280 -0.5451
19254TIP3    H179177   6.789   2.541   4.584 -0.3505 -0.1490  0.5970
19254TIP3    H279178   6.664   2.534   4.499  1.3712 -1.0970 -1.9910
19255TIP3   OH279179   4.726   5.849  14.370 -0.1401  0.1678 -0.4749
19255TIP3    H179180   4.773   5.819  14.292 -0.9717  0.0925 -0.9676
19255TIP3    H279181   4.708   5.942  14.353 -1.3902 -0.1399 -0.9493
19256TIP3   OH279182   0.925   3.368  15.511  0.1031 -0.1789  0.5704
19256TIP3    H179183   1.012   3.379  15.473  0.0973 -1.1868  0.2330
19256TIP3    H279184   0.876   3.318  15.446 -1.4343  2.1942 -0.2336
19257TIP3   OH279185   6.570   2.045  12.616  0.0833 -0.7950 -0.1313
19257TIP3    H179186   6.621   2.045  12.697  0.0839 -1.3444 -0.1246
19257TIP3    H279187   6.634   2.060  12.546 -0.1249  1.3651  0.0634
19258TIP3   OH279188   2.660   6.402  16.068 -0.0198  0.8053 -0.3519
19258TIP3    H179189   2.634   6.349  15.992  0.4425  0.3303 -0.1897
19258TIP3    H279190   2.742   6.443  16.041  1.1061 -0.7802  0.5069
19259TIP3   OH279191   5.832   1.228   0.133  1.0556  0.1638  0.1197
19259TIP3    H179192   5.822   1.217   0.227 -3.0492 -1.2638 -0.3031
19259TIP3    H279193   5.842   1.139   0.099  0.1870  0.4454 -0.9399
19260TIP3   OH279194   1.541   2.785  15.730 -0.5516 -0.4300 -0.4607
19260TIP3    H179195   1.446   2.797  15.729 -0.8691 -2.0710 -3.7194
19260TIP3    H279196   1.575   2.857  15.676 -0.1155 -0.8172 -0.7131
19261TIP3   OH279197   1.606   4.910  13.980  0.4593 -1.0069  0.3636
19261TIP3    H179198   1.689   4.931  13.937 -0.3520 -0.0496 -0.8116
19261TIP3    H279199   1.598   4.815  13.972  0.2531 -0.8528 -1.8162
19262TIP3   OH279200   1.707   0.589  13.311  0.0754 -0.2734 -0.3056
19262TIP3    H179201   1.618   0.604  13.345  0.1811 -2.9337  1.4784
19262TIP3    H279202   1.743   0.522  13.369  3.7667  1.6028 -0.1633
19263TIP3   OH279203   0.717   5.449  17.147  0.1065 -0.3664  0.4594
19263TIP3    H179204   0.671   5.365  17.142 -1.2087  0.3392  0.4964
19263TIP3    H279205   0.789   5.440  17.083 -1.2355 -0.7861 -1.0650
19264TIP3   OH279206   1.369   1.036   0.575  0.4463  0.3949  0.1915
19264TIP3    H179207   1.378   0.977   0.500 -0.7123  0.1053  0.2518
19264TIP3    H279208   1.454   1.034   0.618  0.4083 -1.3251  0.2581
19265TIP3   OH279209   0.248   1.616  12.690 -0.3619 -0.5075  0.1991
19265TIP3    H179210   0.263   1.630  12.597  0.5545  0.6587  0.4929
19265TIP3    H279211   0.322   1.563  12.719  0.1486  0.3402  0.5137
19266TIP3   OH279212   6.018   1.321  10.730 -0.4942  0.4436  0.2403
19266TIP3    H179213   5.960   1.284  10.797 -1.1530 -1.8740 -1.4759
19266TIP3    H279214   6.105   1.292  10.755 -0.6834 -0.0584  0.3346
19267TIP3   OH279215   6.504   2.096   5.264  0.5415  0.2483 -0.0515
19267TIP3    H179216   6.505   2.076   5.358 -1.1723  0.2163 -0.0013
19267TIP3    H279217   6.421   2.059   5.233  1.2646 -0.0786 -1.6676
19268TIP3   OH279218   2.336   6.058  13.671  0.5022  0.2371 -0.0337
19268TIP3    H179219   2.407   5.998  13.650  0.5256  0.6275 -1.1129
19268TIP3    H279220   2.311   6.035  13.761  1.3983 -0.4820  0.0417
19269TIP3   OH279221   6.667   4.270  14.891  0.1013  0.5110  0.5462
19269TIP3    H179222   6.684   4.178  14.871  1.0657  0.5916  0.9677
19269TIP3    H279223   6.615   4.301  14.816 -0.5306 -0.4499  0.5604
19270TIP3   OH279224   6.138   2.065   6.679  0.0637  0.4330  0.1026
19270TIP3    H179225   6.223   2.071   6.723  1.2259 -1.4315 -1.6860
19270TIP3    H279226   6.115   1.972   6.687 -3.0386  1.2423  2.5549
19271TIP3   OH279227   1.926   2.220   3.130  0.6812  0.1978  0.1992
19271TIP3    H179228   1.916   2.127   3.109 -2.6705  0.4214  0.2738
19271TIP3    H279229   1.975   2.256   3.056 -0.8676 -1.0964 -1.5593
19272TIP3   OH279230   6.004   6.641   2.845  0.6084 -0.0776 -0.0518
19272TIP3    H179231   6.028   6.685   2.763  2.4882  1.4559  1.2421
19272TIP3    H279232   5.936   6.697   2.883 -1.3140 -1.5422 -1.1453
19273TIP3   OH279233   2.078   4.531  11.665 -0.0553 -0.2817  0.2144
19273TIP3    H179234   1.997   4.513  11.618 -1.4833  1.6520  1.7681
19273TIP3    H279235   2.056   4.513  11.757  1.1248  0.6790  0.7083
19274TIP3   OH279236   5.718   2.212  14.097  0.1325 -0.1439 -0.1555
19274TIP3    H179237   5.802   2.253  14.117  0.6126 -0.0445 -2.1761
19274TIP3    H279238   5.663   2.232  14.174  2.0802 -0.7114  1.4809
19275TIP3   OH279239   2.591   5.361  13.944  0.1014  0.3096 -0.2550
19275TIP3    H179240   2.599   5.382  14.037 -1.5588  1.3934 -0.3145
19275TIP3    H279241   2.503   5.324  13.935  0.3851 -0.1384 -1.3359
19276TIP3   OH279242   3.761   1.472  12.154 -0.4662 -0.7349  0.7171
19276TIP3    H179243   3.754   1.401  12.217 -1.7539 -0.3541  1.0270
19276TIP3    H279244   3.856   1.483  12.140 -0.0794 -0.1437  3.3560
19277TIP3   OH279245   5.829   0.339  16.327 -0.3395 -0.3621 -0.0681
19277TIP3    H179246   5.779   0.274  16.377 -2.2716  1.1718  0.1219
19277TIP3    H279247   5.827   0.418  16.381  2.6119 -0.2730  0.0515
19278TIP3   OH279248   1.170   0.323   5.507  0.3210 -0.7096  0.1858
19278TIP3    H179249   1.173   0.238   5.463 -1.8505 -0.1335 -1.2347
19278TIP3    H279250   1.138   0.303   5.595  2.3152 -1.5978  0.7643
19279TIP3   OH279251   5.832   4.095  13.152 -0.3016  0.2674 -0.2230
19279TIP3    H179252   5.849   4.151  13.228 -1.5128  0.1832  0.1344
19279TIP3    H279253   5.867   4.010  13.177 -2.5346 -0.3429  1.1752
19280TIP3   OH279254   1.877   6.001   5.035 -0.2504  0.4419  0.1238
19280TIP3    H179255   1.822   5.951   5.095  1.9212 -0.4198  1.4953
19280TIP3    H279256   1.953   5.945   5.020  1.7368  2.8217  0.7839
19281TIP3   OH279257   1.742   6.384   0.561  0.3835 -0.1555 -0.3160
19281TIP3    H179258   1.782   6.325   0.623 -0.2279 -0.1026  0.1427
19281TIP3    H279259   1.700   6.452   0.615  1.0792  0.7037 -0.8248
19282TIP3   OH279260   5.170   3.168  11.233  0.1943 -0.2256  0.5933
19282TIP3    H179261   5.134   3.162  11.144 -1.0740 -0.0918  1.0696
19282TIP3    H279262   5.133   3.092  11.279  1.3799 -0.6769  0.8464
19283TIP3   OH279263   6.007   1.448   0.813  0.2598  0.2105 -0.2537
19283TIP3    H179264   6.017   1.543   0.805 -0.0229  0.2246 -0.4451
19283TIP3    H279265   5.925   1.429   0.768  1.5569 -0.4481 -2.4590
19284TIP3   OH279266   2.586   5.127   4.114 -0.1095  0.3950  0.0592
19284TIP3    H179267   2.532   5.163   4.184  0.3603  0.2728  0.4929
19284TIP3    H279268   2.622   5.205   4.070  2.1613  0.5277  1.9744
19285TIP3   OH279269   4.655   2.899   4.320 -0.6333 -0.0969  0.6724
19285TIP3    H179270   4.628   2.826   4.375 -0.8178 -1.3515 -1.0320
19285TIP3    H279271   4.745   2.917   4.347  0.5210 -2.9561 -0.8406
19286TIP3   OH279272   2.297   0.345   3.135  0.8409  0.1569 -0.1963
19286TIP3    H179273   2.295   0.338   3.040  0.3213  0.5470 -0.2162
19286TIP3    H279274   2.383   0.381   3.155 -0.0699  2.7928 -0.7085
19287TIP3   OH279275   0.259   4.174   4.236  0.1314  0.2299  0.1758
19287TIP3    H179276   0.319   4.133   4.299 -1.8431 -0.1930  1.8672
19287TIP3    H279277   0.196   4.222   4.290 -1.5602 -0.0051 -1.4921
19288TIP3   OH279278   4.136   2.251  12.891 -0.1934 -0.6673 -0.4102
19288TIP3    H179279   4.137   2.164  12.931 -1.6675 -0.4330  0.1977
19288TIP3    H279280   4.069   2.245  12.822 -0.2712 -0.0366 -0.3926
19289TIP3   OH279281   0.281   5.985   2.591  0.0235 -0.7915 -0.7259
19289TIP3    H179282   0.272   6.079   2.575 -0.0471 -0.8825 -1.2391
19289TIP3    H279283   0.301   5.948   2.505  1.5270 -1.0635 -0.2947
19290TIP3   OH279284   6.438   3.658   2.163 -0.6907 -0.4755 -0.0896
19290TIP3    H179285   6.403   3.612   2.088 -0.9148 -1.4906  0.6164
19290TIP3    H279286   6.482   3.735   2.126 -1.2350 -0.6794 -1.1981
19291TIP3   OH279287   2.646   3.520  14.171  0.3776  0.3293 -0.6386
19291TIP3    H179288   2.692   3.444  14.207  0.5274  0.3358 -0.8128
19291TIP3    H279289   2.554   3.507  14.195  0.4085  0.1090 -0.6439
19292TIP3   OH279290   0.707   5.198  15.069  0.0658  0.2774 -0.3300
19292TIP3    H179291   0.633   5.192  15.008  1.2868 -1.5399 -1.7595
19292TIP3    H279292   0.670   5.235  15.149 -2.6196 -1.4704 -0.6317
19293TIP3   OH279293   1.995   4.143   5.731 -0.0826  0.2244 -0.1638
19293TIP3    H179294   1.965   4.234   5.734 -0.4501  0.1252 -0.6237
19293TIP3    H279295   2.073   4.145   5.675 -0.1451  0.2425 -0.2506
19294TIP3   OH279296   3.183   0.134  13.553  0.1447 -0.4425 -0.1063
19294TIP3    H179297   3.134   0.170  13.480  0.9191 -2.6048 -1.8061
19294TIP3    H279298   3.125   0.144  13.629 -1.7900 -0.4918 -1.5143
19295TIP3   OH279299   3.465   6.320  14.776  0.0815  0.1653  0.3753
19295TIP3    H179300   3.457   6.307  14.870 -0.4773  1.5618  0.5319
19295TIP3    H279301   3.559   6.314  14.759  0.5704  3.1095  1.5525
19296TIP3   OH279302   3.814   2.539  14.293  0.2778 -0.4752  0.2323
19296TIP3    H179303   3.843   2.450  14.311 -0.4984 -0.5091  1.3863
19296TIP3    H279304   3.795   2.539  14.199  0.4779 -1.4686  0.1777
19297TIP3   OH279305   3.748   4.187  12.087 -0.1786  0.5766  0.3409
19297TIP3    H179306   3.825   4.136  12.062 -1.6256 -0.6505 -1.9645
19297TIP3    H279307   3.764   4.274  12.050 -0.4746 -0.0777 -1.4094
19298TIP3   OH279308   4.232   3.113   0.475  0.3314 -0.2307 -0.6257
19298TIP3    H179309   4.166   3.053   0.440 -1.1803  0.4554  0.8961
19298TIP3    H279310   4.248   3.082   0.564  1.6655 -0.0342 -0.7756
19299TIP3   OH279311   2.240   3.798  17.082 -0.1515 -0.0864  0.4715
19299TIP3    H179312   2.212   3.790  16.991 -0.8433 -0.5445  0.7158
19299TIP3    H279313   2.335   3.796  17.079 -0.1671  0.0543 -0.2540
19300TIP3   OH279314   1.775   0.063  13.125 -0.0026  0.0490 -0.1337
19300TIP3    H179315   1.863   0.040  13.155  0.9521  1.1979 -1.8861
19300TIP3    H279316   1.789   0.128  13.057 -2.2447  0.4251 -0.3150
19301TIP3   OH279317   4.265   0.875  14.235 -0.2086 -0.2048  0.1400
19301TIP3    H179318   4.351   0.836  14.245  0.7712  1.8846  0.4174
19301TIP3    H279319   4.280   0.969  14.243 -2.7863  0.1466  2.1559
19302TIP3   OH279320   0.307   6.798  14.969 -0.0803  0.7138 -0.5998
19302TIP3    H179321   0.398   6.778  14.993 -0.1007  0.8240 -0.4224
19302TIP3    H279322   0.313   6.880  14.921 -0.0828  0.7107 -0.6056
19303TIP3   OH279323   3.858   3.450  16.070 -0.5099 -0.3610 -0.3009
19303TIP3    H179324   3.893   3.363  16.088 -0.0998  0.1757  1.6716
19303TIP3    H279325   3.935   3.506  16.065 -0.8947  0.3924  1.5368
19304TIP3   OH279326   1.669   1.187   1.794 -0.8289 -0.4646 -0.7763
19304TIP3    H179327   1.741   1.154   1.847 -0.8712 -0.2081 -0.5604
19304TIP3    H279328   1.711   1.225   1.717 -0.6524  0.6529 -0.1498
19305TIP3   OH279329   1.105   2.961   1.778  0.3101 -0.6232  0.0488
19305TIP3    H179330   1.160   3.035   1.804 -0.3825  0.3770 -1.2186
19305TIP3    H279331   1.019   3.000   1.764 -0.4494 -1.9563  0.8294
19306TIP3   OH279332   2.771   2.062   3.767  0.3174  0.2049 -0.3960
19306TIP3    H179333   2.784   2.037   3.675 -1.6189 -1.9718 -0.1680
19306TIP3    H279334   2.844   2.022   3.813  1.7371  1.9603 -1.0295
19307TIP3   OH279335   2.769   4.666  15.810  0.1211  0.1346  0.1099
19307TIP3    H179336   2.704   4.641  15.875 -1.0037  0.0223 -1.0095
19307TIP3    H279337   2.837   4.711  15.859  1.0826 -2.9691  1.8834
19308TIP3   OH279338   3.718   3.188  14.590 -0.2003  0.3391 -0.0190
19308TIP3    H179339   3.728   3.220  14.680 -0.9135 -0.0656  0.2040
19308TIP3    H279340   3.738   3.095  14.595 -0.0256  0.3595 -0.3221
19309TIP3   OH279341   5.759   0.110  15.112  0.4981  0.1716 -0.0035
19309TIP3    H179342   5.851   0.130  15.125  0.3465 -0.1157  1.7084
19309TIP3    H279343   5.714   0.156  15.183 -0.7317  0.6302 -1.0395
19310TIP3   OH279344   5.368   1.042  14.169  0.1941  0.2400 -0.1180
19310TIP3    H179345   5.420   1.032  14.249 -3.2468 -2.8344  2.0472
19310TIP3    H279346   5.335   1.132  14.173 -1.0274 -0.2311  2.8324
19311TIP3   OH279347   0.976   6.468   5.851 -0.3390 -0.7528  0.6751
19311TIP3    H179348   1.011   6.546   5.809 -0.5475 -0.7827  0.4421
19311TIP3    H279349   1.046   6.438   5.909  0.1970 -1.0686 -0.1202
19312TIP3   OH279350   2.862   3.776  11.419  0.0377  0.0280 -0.0401
19312TIP3    H179351   2.887   3.865  11.393 -0.5972  0.0728 -0.5158
19312TIP3    H279352   2.931   3.749  11.479 -0.8422  1.6401  1.7917
19313TIP3   OH279353   4.881   3.428   1.899 -0.2641  0.3836  0.1628
19313TIP3    H179354   4.803   3.408   1.848  0.3077 -1.3704 -0.0944
19313TIP3    H279355   4.874   3.522   1.917 -1.5655  0.6135 -1.2779
19314TIP3   OH279356   2.608   5.043   0.531 -0.5866 -0.1103  0.2401
19314TIP3    H179357   2.618   5.115   0.594 -0.1940 -0.0986  0.1681
19314TIP3    H279358   2.598   4.965   0.586 -0.3617 -0.0847  0.3198
19315TIP3   OH279359   5.256   0.791  16.500 -0.2065 -0.4239  0.4562
19315TIP3    H179360   5.223   0.874  16.465 -0.1471 -1.7390 -3.0739
19315TIP3    H279361   5.346   0.811  16.528  0.1129  0.5538 -1.1419
19316TIP3   OH279362   3.210   1.744   1.643  0.2701  0.5061 -0.2004
19316TIP3    H179363   3.180   1.676   1.704 -1.1187  0.3067 -1.0690
19316TIP3    H279364   3.296   1.769   1.676  0.8744 -1.7549  0.0836
19317TIP3   OH279365   4.965   3.867  12.529 -0.4287  0.0965 -0.1061
19317TIP3    H179366   4.869   3.870  12.528 -0.5020 -1.1671 -2.3532
19317TIP3    H279367   4.991   3.959  12.536 -1.8177  0.5693 -0.7413
19318TIP3   OH279368   2.463   4.430  13.407  0.5475 -0.0591 -0.1940
19318TIP3    H179369   2.533   4.451  13.345 -2.5412  2.4623 -3.1795
19318TIP3    H279370   2.434   4.343  13.380  1.1046 -0.2152 -0.3194
19319TIP3   OH279371   1.279   3.769  15.433  0.2030  0.1807 -0.0006
19319TIP3    H179372   1.285   3.755  15.339  2.2601  4.2327 -0.6781
19319TIP3    H279373   1.360   3.731  15.467  0.8889  1.3145 -0.3343
19320TIP3   OH279374   0.598   2.632  13.337  0.0179 -0.1004  0.3106
19320TIP3    H179375   0.534   2.697  13.367 -0.6181 -0.7989  0.4981
19320TIP3    H279376   0.559   2.594  13.258  1.5482  1.5154 -1.3047
19321TIP3   OH279377   0.974   5.415   2.851 -0.0422 -0.5647 -0.2914
19321TIP3    H179378   0.996   5.327   2.882  0.2110  0.1246  1.6646
19321TIP3    H279379   0.953   5.463   2.931  1.8749  1.7452 -1.0672
19322TIP3   OH279380   0.325   3.750  10.951  0.4154 -0.1079 -0.3793
19322TIP3    H179381   0.379   3.828  10.935  0.4937 -0.1499 -0.3248
19322TIP3    H279382   0.376   3.678  10.912  1.1445 -0.3789  1.0173
19323TIP3   OH279383   6.530   5.596  14.265 -0.4484  0.0164 -0.4129
19323TIP3    H179384   6.527   5.512  14.311  0.7740 -0.4644 -1.1731
19323TIP3    H279385   6.616   5.633  14.285 -1.4065  1.6879  0.8858
19324TIP3   OH279386   4.812   1.632  16.826  0.5812 -0.0148 -0.1735
19324TIP3    H179387   4.741   1.658  16.884  0.3751  0.2456 -0.5390
19324TIP3    H279388   4.891   1.663  16.870  0.4338  0.0983  0.0153
19325TIP3   OH279389   1.417   3.445   2.150  0.4188  0.1306  0.3095
19325TIP3    H179390   1.361   3.502   2.202  1.2445  0.9773  0.3103
19325TIP3    H279391   1.489   3.502   2.121  1.1707 -0.8662  0.1490
19326TIP3   OH279392   3.424   2.517   4.693 -0.2701 -0.0516  0.5562
19326TIP3    H179393   3.463   2.441   4.737  0.5768  0.5616  0.9016
19326TIP3    H279394   3.436   2.500   4.600  0.5109 -0.0583  0.6464
19327TIP3   OH279395   4.141   4.822  13.503 -0.0951  0.7579  0.0544
19327TIP3    H179396   4.055   4.780  13.508 -0.5092  1.6014  0.1054
19327TIP3    H279397   4.165   4.838  13.595  0.6784 -0.5561  0.1192
19328TIP3   OH279398   1.184   5.775  15.546  0.3858 -0.2872  0.2935
19328TIP3    H179399   1.124   5.712  15.587 -0.5908 -0.1766 -0.9171
19328TIP3    H279400   1.156   5.860  15.579  0.0250 -0.2573 -0.0869
19329TIP3   OH279401   3.681   2.982   0.616  0.4171 -0.2478 -0.5392
19329TIP3    H179402   3.605   3.035   0.638  0.3081 -0.3659 -0.6281
19329TIP3    H279403   3.717   2.954   0.700  0.9063  0.5672 -0.4618
19330TIP3   OH279404   1.898   6.579  11.383 -0.2493 -0.5900 -0.2442
19330TIP3    H179405   1.905   6.674  11.385  1.3825 -0.7054  0.6417
19330TIP3    H279406   1.902   6.552  11.475  0.9510 -1.6032 -0.5631
19331TIP3   OH279407   4.365   4.288   2.386 -0.4855  0.2968 -0.1937
19331TIP3    H179408   4.397   4.197   2.380 -0.5126  0.3042 -0.5058
19331TIP3    H279409   4.436   4.340   2.348  0.8626  0.7383  2.6913
19332TIP3   OH279410   4.888   5.633   2.288 -0.3460  0.0774 -0.1071
19332TIP3    H179411   4.797   5.663   2.287  0.1336  1.6887 -1.5754
19332TIP3    H279412   4.921   5.655   2.201  1.3112 -0.9465  0.2267
19333TIP3   OH279413   3.005   6.006   2.441  0.3321  0.0650  0.4879
19333TIP3    H179414   3.049   6.066   2.381 -0.7509  2.5572  2.0160
19333TIP3    H279415   3.065   6.000   2.516 -0.0924  0.1565  0.8344
19334TIP3   OH279416   4.151   6.527  15.519  0.2074 -0.2549 -0.5538
19334TIP3    H179417   4.118   6.543  15.431  0.3741  0.5090 -0.4858
19334TIP3    H279418   4.080   6.555  15.577  1.4799  2.9610 -0.3601
19335TIP3   OH279419   5.824   2.015   4.375 -0.6011 -0.1614  0.0473
19335TIP3    H179420   5.786   2.042   4.459  1.1920  3.6652 -0.1362
19335TIP3    H279421   5.756   2.033   4.311 -1.4016 -1.5252  0.4925
19336TIP3   OH279422   5.314   1.319  12.628 -0.1736  0.2457 -0.1866
19336TIP3    H179423   5.280   1.347  12.543 -0.3216  0.8869  0.0828
19336TIP3    H279424   5.402   1.356  12.633 -0.0798  0.0193 -0.1562
19337TIP3   OH279425   3.339   3.623   3.773  0.1312 -0.2177 -0.4441
19337TIP3    H179426   3.306   3.678   3.703 -0.8292 -0.4387 -0.1776
19337TIP3    H279427   3.433   3.641   3.776  0.0237  0.4828 -1.1640
19338TIP3   OH279428   6.368   2.951  15.990 -0.1166 -0.3426  0.0209
19338TIP3    H179429   6.281   2.989  15.995 -0.1252 -0.4910  2.0957
19338TIP3    H279430   6.410   2.995  15.916 -1.3422  1.0405  0.1105
19339TIP3   OH279431   2.342   2.618  14.081 -0.2228  0.0791 -0.1443
19339TIP3    H179432   2.413   2.573  14.036 -0.0894 -0.0607  0.2073
19339TIP3    H279433   2.286   2.651  14.010  0.3641  0.4750 -0.4327
19340TIP3   OH279434   3.426   6.454   6.182 -0.0569 -0.6547 -0.6795
19340TIP3    H179435   3.345   6.404   6.169 -1.7125  1.5095  0.7694
19340TIP3    H279436   3.443   6.448   6.276  1.1117 -0.4975 -0.8669
19341TIP3   OH279437   1.479   6.451  16.855  0.0247 -0.5668 -0.3807
19341TIP3    H179438   1.493   6.546  16.858 -0.8224 -0.4500  1.1905
19341TIP3    H279439   1.567   6.413  16.857  0.4319  0.1591 -2.3577
19342TIP3   OH279440   3.508   0.092   5.324  0.4498  0.8998 -0.1209
19342TIP3    H179441   3.481   0.165   5.268 -0.5137  0.6386 -0.0061
19342TIP3    H279442   3.557   0.034   5.266  0.2022  1.0590 -0.4916
19343TIP3   OH279443   5.052   4.107  12.956  0.3258 -0.0578  0.1158
19343TIP3    H179444   5.088   4.157  13.030 -0.3864  1.2296 -0.3761
19343TIP3    H279445   5.090   4.020  12.966  1.5246  0.5334  1.0787
19344TIP3   OH279446   4.557   2.702  11.175  0.4259 -0.1442 -0.0839
19344TIP3    H179447   4.640   2.745  11.157  0.8842 -0.6317  0.7890
19344TIP3    H279448   4.508   2.710  11.093 -0.8671  4.8245  0.8402
19345TIP3   OH279449   1.467   5.891   6.171  0.1275  0.1869  0.4582
19345TIP3    H179450   1.387   5.929   6.135  0.5085  0.1967 -0.3862
19345TIP3    H279451   1.529   5.890   6.098  1.3437  1.3999  1.4085
19346TIP3   OH279452   2.910   2.673   2.787  0.8989  0.0796 -0.4168
19346TIP3    H179453   2.889   2.628   2.705 -0.7701 -0.1935  0.1294
19346TIP3    H279454   2.878   2.762   2.774 -0.9904 -0.4082  0.5153
19347TIP3   OH279455   6.352   1.476   3.045 -0.1149  0.8327 -0.6748
19347TIP3    H179456   6.355   1.392   3.090 -1.3337 -0.1358 -2.3010
19347TIP3    H279457   6.341   1.540   3.116 -1.6009 -0.5812  0.4692
19348TIP3   OH279458   5.618   6.609   2.081  0.1456 -0.1245  0.1450
19348TIP3    H179459   5.619   6.549   2.006  0.7043  0.1330 -0.0628
19348TIP3    H279460   5.697   6.587   2.130  1.4251  1.7128 -0.9741
19349TIP3   OH279461   0.812   0.795   5.378  0.2276  0.3653  0.0901
19349TIP3    H179462   0.753   0.747   5.319  1.1669 -0.7335 -0.0046
19349TIP3    H279463   0.807   0.747   5.461 -0.2578  1.2578  0.5917
19350TIP3   OH279464   6.261   3.204  13.654 -0.0086  0.0296 -0.4464
19350TIP3    H179465   6.318   3.155  13.595  0.0462  0.4320 -0.7241
19350TIP3    H279466   6.289   3.178  13.742 -0.2065 -0.7039 -0.5912
19351TIP3   OH279467   3.759   6.469  12.953 -0.5793  0.2216 -0.2781
19351TIP3    H179468   3.721   6.394  12.999  0.6749  0.0463  0.5466
19351TIP3    H279469   3.849   6.473  12.986 -1.0667  3.1345  1.0107
19352TIP3   OH279470   3.212   1.353  10.899  0.1703  0.0147 -0.6111
19352TIP3    H179471   3.277   1.300  10.944  1.2132  1.9450  0.3014
19352TIP3    H279472   3.258   1.435  10.878 -1.2882  0.5222 -2.1144
19353TIP3   OH279473   2.249   4.787   0.573 -0.1716  0.3963  0.5122
19353TIP3    H179474   2.183   4.854   0.589  1.3968  2.3529 -0.7898
19353TIP3    H279475   2.332   4.828   0.597  0.6739 -1.8841  1.8211
19354TIP3   OH279476   0.294   6.730  15.249  0.0236 -0.1737 -0.0413
19354TIP3    H179477   0.247   6.762  15.172  1.3730  1.7914 -0.1091
19354TIP3    H279478   0.384   6.760  15.236  0.6433 -1.2495  1.5308
19355TIP3   OH279479   2.540   6.773   0.835  0.3522 -0.4667 -0.3231
19355TIP3    H179480   2.540   6.823   0.753 -0.2257 -0.8188 -0.5424
19355TIP3    H279481   2.602   6.819   0.891  0.9533 -0.3798 -1.0515
19356TIP3   OH279482   1.815   0.334  13.029  0.1082 -0.0588 -0.5581
19356TIP3    H179483   1.756   0.399  13.068 -0.3549 -1.1250  0.6494
19356TIP3    H279484   1.876   0.384  12.976  0.7663  1.5383  1.5705
19357TIP3   OH279485   6.208   0.279  12.633  0.1595  0.2592  0.0596
19357TIP3    H179486   6.205   0.200  12.687  0.2026 -0.1219 -0.4913
19357TIP3    H279487   6.178   0.251  12.547 -1.7297  1.2600  0.3323
19358TIP3   OH279488   0.111   4.445  14.626  0.4183 -0.4086 -0.0509
19358TIP3    H179489   0.051   4.509  14.589 -1.1561 -1.9725 -0.3238
19358TIP3    H279490   0.134   4.480  14.713 -0.8502  0.2405  0.0394
19359TIP3   OH279491   4.126   2.899  14.418  0.1485  0.1689  0.5684
19359TIP3    H179492   4.202   2.957  14.417 -0.2516  0.7012 -0.9004
19359TIP3    H279493   4.162   2.811  14.404  0.3684  0.6735 -2.9527
19360TIP3   OH279494   0.701   5.266   2.682 -0.6245  0.0592 -0.4425
19360TIP3    H179495   0.714   5.214   2.761 -1.3307  0.8945  0.2520
19360TIP3    H279496   0.789   5.297   2.659 -0.4310 -0.0757  0.0935
19361TIP3   OH279497   3.705   6.532   0.200  0.3949  0.1357 -0.6481
19361TIP3    H179498   3.635   6.526   0.265  0.1484  0.6082 -0.8666
19361TIP3    H279499   3.783   6.554   0.250  0.3405 -0.1512 -0.4344
19362TIP3   OH279500   3.856   4.633   2.997 -0.0321  0.0695  0.3433
19362TIP3    H179501   3.846   4.538   2.985  0.5346 -0.2799  2.3451
19362TIP3    H279502   3.950   4.647   3.000 -0.0651  0.9613 -1.5053
19363TIP3   OH279503   2.849   3.764  15.211  1.1644  0.2601 -1.0002
19363TIP3    H179504   2.796   3.804  15.142 -1.2245  0.7588  0.9417
19363TIP3    H279505   2.799   3.687  15.237 -0.4514  2.3615  2.9639
19364TIP3   OH279506   4.374   4.029  14.769 -0.5499 -0.0078  0.0609
19364TIP3    H179507   4.430   3.952  14.756  0.8916  0.5742  2.3320
19364TIP3    H279508   4.383   4.079  14.687  0.4433 -1.0491 -0.4936
19365TIP3   OH279509   2.932   1.321   2.555  0.0842  0.3482 -0.2177
19365TIP3    H179510   2.975   1.295   2.637 -1.9648 -2.2201  0.1800
19365TIP3    H279511   2.881   1.399   2.578 -0.0791 -0.0580  0.8428
19366TIP3   OH279512   0.692   1.378   4.708 -0.0747  0.5922 -0.1387
19366TIP3    H179513   0.603   1.361   4.739  0.2110  0.6487  0.7357
19366TIP3    H279514   0.740   1.402   4.786  0.6966  0.6451 -0.6230
19367TIP3   OH279515   5.750   4.492   3.538 -0.1614  0.3099  0.0510
19367TIP3    H179516   5.726   4.484   3.630 -0.3492  1.8317  0.1528
19367TIP3    H279517   5.674   4.459   3.491  0.9148 -3.1043  0.3625
19368TIP3   OH279518   0.967   0.556  11.700  0.3966 -0.5788  0.2945
19368TIP3    H179519   1.043   0.567  11.757 -1.2781  2.5634  2.2557
19368TIP3    H279520   0.970   0.631  11.641  0.5564 -2.2729 -1.9638
19369TIP3   OH279521   5.329   2.137   5.938  0.1031  0.5100 -0.7814
19369TIP3    H179522   5.389   2.212   5.940  0.5430  0.1468  1.4145
19369TIP3    H279523   5.386   2.061   5.952 -0.8340  0.1910  1.6969
19370TIP3   OH279524   0.398   0.921   1.592 -0.1370  0.1978  0.0334
19370TIP3    H179525   0.328   0.940   1.529 -0.3575  0.2599  0.2975
19370TIP3    H279526   0.353   0.882   1.667 -0.2953  2.9729  1.5025
19371TIP3   OH279527   6.143   4.107  12.923  0.4986  0.8183  0.0990
19371TIP3    H179528   6.204   4.167  12.881  0.9695  0.9386  0.9379
19371TIP3    H279529   6.058   4.151  12.918  0.3814  0.4502 -1.4663
19372TIP3   OH279530   5.119   2.915  14.444  0.1715 -0.2916  0.2162
19372TIP3    H179531   5.036   2.957  14.465  0.1254 -0.9002  1.3425
19372TIP3    H279532   5.105   2.877  14.357 -0.8539 -0.6767  0.5341
19373TIP3   OH279533   2.929   2.370   4.882  0.4385 -0.2753 -0.0918
19373TIP3    H179534   2.956   2.364   4.790 -0.0471  1.3107 -0.3509
19373TIP3    H279535   2.955   2.458   4.909 -1.2259 -0.0066  0.7089
19374TIP3   OH279536   5.270   1.364   1.549  0.2553 -0.2273 -0.3805
19374TIP3    H179537   5.208   1.422   1.593  0.4963 -0.8176  0.7657
19374TIP3    H279538   5.327   1.423   1.500 -0.1881  0.4288 -0.1264
19375TIP3   OH279539   3.108   5.392   5.770 -0.4334 -0.4078  0.0230
19375TIP3    H179540   3.152   5.466   5.729  2.4678 -1.1495  1.5482
19375TIP3    H279541   3.116   5.408   5.864 -0.2867 -2.3384  0.3785
19376TIP3   OH279542   4.436   2.894   1.434  0.2418  0.0881 -0.2068
19376TIP3    H179543   4.444   2.857   1.521 -1.8081 -1.3792 -0.5669
19376TIP3    H279544   4.361   2.955   1.441  0.4074  0.3712 -0.8119
19377TIP3   OH279545   0.559   1.242  17.113  0.2243  0.4191  0.2965
19377TIP3    H179546   0.618   1.195  17.054  1.8499  1.0784  1.3186
19377TIP3    H279547   0.510   1.173  17.159  1.7190 -0.2615  0.9209
19378TIP3   OH279548   5.877   6.465   0.508 -0.1995  0.5252 -0.3999
19378TIP3    H179549   5.804   6.520   0.479 -0.8332 -0.8352 -1.5264
19378TIP3    H279550   5.836   6.400   0.566  0.5005  1.0809  0.7436
19379TIP3   OH279551   4.228   4.711  15.677  0.1236 -0.0989 -0.2314
19379TIP3    H179552   4.237   4.741  15.768 -2.3500 -0.6382  0.2416
19379TIP3    H279553   4.232   4.615  15.683 -1.8419 -0.2224 -0.4102
19380TIP3   OH279554   5.644   0.372   4.211 -0.4246 -0.3060  0.2141
19380TIP3    H179555   5.664   0.338   4.299  2.4735  1.7657  0.4941
19380TIP3    H279556   5.621   0.464   4.226  0.5701  0.1955 -1.2320
19381TIP3   OH279557   1.658   5.838  15.413 -0.2267  0.4763  0.4168
19381TIP3    H179558   1.644   5.855  15.320  2.0516 -2.4716 -0.6184
19381TIP3    H279559   1.725   5.901  15.439  0.2349  0.3252 -0.3734
19382TIP3   OH279560   2.138   6.022  13.483  0.6090 -0.1092 -0.2348
19382TIP3    H179561   2.043   6.028  13.497  0.6179 -1.3869  0.5633
19382TIP3    H279562   2.175   6.024  13.571  1.1248 -2.1437 -0.3591
19383TIP3   OH279563   3.544   3.918  12.389  0.0114  0.0966  0.2627
19383TIP3    H179564   3.501   3.991  12.344  2.1981  1.3521  0.0348
19383TIP3    H279565   3.535   3.939  12.482  1.1494  1.0344  0.1859
19384TIP3   OH279566   3.273   2.125   5.011 -0.4653 -0.1413 -0.0245
19384TIP3    H179567   3.271   2.091   4.921  0.9665  0.9811 -0.5256
19384TIP3    H279568   3.365   2.150   5.025 -0.3722 -1.4556  2.2291
19385TIP3   OH279569   2.049   5.637  14.567 -0.4704  0.1321  0.2046
19385TIP3    H179570   2.085   5.726  14.562  1.6145 -0.7363 -1.6491
19385TIP3    H279571   2.076   5.605  14.653  1.3217  0.3149 -0.2529
19386TIP3   OH279572   6.174   5.955  16.762  0.3009  0.4936  0.6160
19386TIP3    H179573   6.161   6.048  16.784  1.0894  1.6145 -2.9278
19386TIP3    H279574   6.264   5.951  16.731  0.0299 -1.2920 -0.0148
19387TIP3   OH279575   5.547   5.198  16.951 -0.3616 -0.1823 -0.1760
19387TIP3    H179576   5.575   5.155  16.871 -1.8904 -0.0637 -0.8148
19387TIP3    H279577   5.590   5.283  16.949  0.4730 -0.6027 -0.3145
19388TIP3   OH279578   4.445   2.476   5.698 -0.4240 -0.1450  0.2580
19388TIP3    H179579   4.470   2.523   5.777 -2.7458  0.3338  0.7933
19388TIP3    H279580   4.384   2.535   5.653  1.4330 -0.0344 -2.3898
19389TIP3   OH279581   1.499   0.595   2.445 -0.3930  0.0306  0.2629
19389TIP3    H179582   1.481   0.611   2.352 -0.3931  0.3977  0.3223
19389TIP3    H279583   1.463   0.508   2.463  1.6648 -1.0868 -0.6411
19390TIP3   OH279584   1.160   1.593  16.146  0.1879 -0.2570 -0.9695
19390TIP3    H179585   1.205   1.521  16.102 -1.4761 -1.6884 -0.4541
19390TIP3    H279586   1.135   1.557  16.232  1.0977  1.6220  0.1412
19391TIP3   OH279587   5.710   2.864   3.335 -0.6748 -0.2188 -0.4718
19391TIP3    H179588   5.734   2.773   3.353 -0.0052 -0.1805 -1.1293
19391TIP3    H279589   5.615   2.867   3.347 -1.1475 -1.6743 -3.1202
19392TIP3   OH279590   4.806   6.771  12.406 -0.9179  0.1934  0.1958
19392TIP3    H179591   4.780   6.819  12.484  0.8851  0.9347  0.4000
19392TIP3    H279592   4.900   6.754  12.418 -0.5932  0.3089 -1.7715
19393TIP3   OH279593   5.379   3.525  15.773 -0.0991  0.6446 -0.1276
19393TIP3    H179594   5.367   3.610  15.731 -1.1182  0.6388  0.1171
19393TIP3    H279595   5.290   3.494  15.791 -0.0560  2.7812  6.2384
19394TIP3   OH279596   3.772   0.830  14.935  0.4321  0.3413 -0.5256
19394TIP3    H179597   3.810   0.830  14.847 -0.9964  0.5246 -1.1690
19394TIP3    H279598   3.739   0.918  14.948  0.5560  0.2958  0.1826
19395TIP3   OH279599   1.219   3.425  14.284 -0.4927 -0.4361 -0.4381
19395TIP3    H179600   1.155   3.432  14.354  0.7676 -0.2581  0.7389
19395TIP3    H279601   1.238   3.331  14.278  0.3287 -0.3320  0.3514
19396TIP3   OH279602   0.529   4.529  15.342  0.1184 -0.4156 -0.5003
19396TIP3    H179603   0.551   4.443  15.377 -2.2827 -1.2700 -0.9232
19396TIP3    H279604   0.550   4.523  15.249  0.0974 -0.4679 -0.5018
19397TIP3   OH279605   4.100   1.802  14.397  0.2896 -0.1274 -0.6637
19397TIP3    H179606   4.029   1.754  14.441  0.2384  1.6794  1.3645
19397TIP3    H279607   4.071   1.808  14.306 -2.4458  0.9635  0.1796
19398TIP3   OH279608   5.405   3.478   1.684 -0.3753 -0.2457  0.2368
19398TIP3    H179609   5.444   3.563   1.705 -0.6007  0.3136 -1.4418
19398TIP3    H279610   5.311   3.496   1.675 -0.4805 -0.7567  0.2619
19399TIP3   OH279611   0.031   6.018  12.113 -0.1444  0.3151  0.1725
19399TIP3    H179612  -0.006   5.949  12.058  0.3588 -0.4704  0.7995
19399TIP3    H279613   0.100   6.057  12.059  0.0188 -0.1239  0.0606
19400TIP3   OH279614   1.460   1.583   1.025 -0.5441 -0.3857  0.4075
19400TIP3    H179615   1.372   1.591   1.061 -0.5207 -0.0711  0.3974
19400TIP3    H279616   1.483   1.490   1.037 -1.6258 -0.9335 -1.3406
19401TIP3   OH279617   6.024   2.781  15.796 -0.2469  0.7279  0.1324
19401TIP3    H179618   5.931   2.758  15.797 -0.1324  0.2706  0.6940
19401TIP3    H279619   6.026   2.872  15.766 -0.8537  0.6621 -0.1286
19402TIP3   OH279620   6.150   2.602  14.921  0.2536  0.3219 -0.0710
19402TIP3    H179621   6.240   2.591  14.952  0.5626  1.5264 -0.4913
19402TIP3    H279622   6.136   2.697  14.919 -0.4693  0.2138 -1.5875
19403TIP3   OH279623   4.532   5.840  16.365  0.2022  0.5490 -0.0468
19403TIP3    H179624   4.555   5.913  16.307 -0.2626 -0.9834 -2.3120
19403TIP3    H279625   4.439   5.826  16.349 -0.0886  0.4335  1.5821
19404TIP3   OH279626   1.432   5.269   4.131 -0.4067  0.2991 -0.2095
19404TIP3    H179627   1.418   5.174   4.140 -0.5655  0.1918 -1.3513
19404TIP3    H279628   1.501   5.276   4.065 -0.7586  0.9842 -0.5101
19405TIP3   OH279629   6.468   4.864  16.087 -0.1317  0.2132  0.4306
19405TIP3    H179630   6.520   4.921  16.030 -0.6129  2.9376  2.4919
19405TIP3    H279631   6.392   4.840  16.034  0.4437  0.9035 -0.7581
19406TIP3   OH279632   3.078   4.655   2.472 -0.4540 -0.2755  0.0981
19406TIP3    H179633   3.158   4.624   2.515  1.0364  1.1211 -1.5490
19406TIP3    H279634   3.084   4.750   2.475 -2.1283 -0.1388  0.0307
19407TIP3   OH279635   5.153   6.386  13.560 -0.6911 -0.3208 -0.0525
19407TIP3    H179636   5.174   6.403  13.468  0.8739  2.9213  0.7229
19407TIP3    H279637   5.062   6.413  13.569 -0.3953  0.8384 -0.3764
19408TIP3   OH279638   0.637   3.872   6.494  0.3163  0.4021  0.3023
19408TIP3    H179639   0.637   3.907   6.405  0.8951  2.4479  1.0472
19408TIP3    H279640   0.548   3.890   6.526 -0.1666 -1.1122 -0.1084
19409TIP3   OH279641   2.079   3.381  16.376 -0.2280  0.6107 -0.2742
19409TIP3    H179642   2.155   3.435  16.395 -0.1417 -0.5772  3.6053
19409TIP3    H279643   2.056   3.402  16.286  3.8123  2.0321 -1.1479
19410TIP3   OH279644   3.575   2.676  14.973 -0.0295  0.3494 -0.1945
19410TIP3    H179645   3.643   2.610  14.989  2.2845  2.8641  1.0858
19410TIP3    H279646   3.570   2.683  14.877 -0.8484 -2.0413 -0.4070
19411TIP3   OH279647   4.503   1.354   5.661  0.0659  0.0694  0.1479
19411TIP3    H179648   4.438   1.332   5.728 -0.1977 -0.0508 -0.1458
19411TIP3    H279649   4.567   1.407   5.708  0.9445 -1.6344  0.9585
19412TIP3   OH279650   5.324   3.644  12.554 -0.0003  0.3401 -0.2423
19412TIP3    H179651   5.240   3.654  12.598 -0.0694 -1.3183  0.0668
19412TIP3    H279652   5.333   3.723  12.501 -1.5770  0.7239  0.0123
19413TIP3   OH279653   3.838   1.223   4.588  0.3546  0.1121 -0.2526
19413TIP3    H179654   3.863   1.303   4.540  0.7533 -0.4725 -1.0572
19413TIP3    H279655   3.880   1.232   4.673  0.0985  0.9284 -0.2087
19414TIP3   OH279656   3.823   6.064   1.288  0.3385  0.4601 -0.1233
19414TIP3    H179657   3.739   6.104   1.268  0.3621  0.4350 -0.2674
19414TIP3    H279658   3.804   6.005   1.362 -0.3462 -1.6084 -1.8633
19415TIP3   OH279659   1.466   2.875  17.119 -0.0308 -0.5897  0.0491
19415TIP3    H179660   1.513   2.793  17.132  0.0172 -0.3692  1.3884
19415TIP3    H279661   1.417   2.862  17.037 -1.0794 -2.4726  0.8998
19416TIP3   OH279662   3.447   4.362  10.571 -0.2726 -0.2187 -0.0881
19416TIP3    H179663   3.386   4.331  10.638  0.4008  0.6586  0.9635
19416TIP3    H279664   3.522   4.304  10.578 -0.9926 -1.3991 -1.4910
19417TIP3   OH279665   2.780   0.229  12.094 -0.0339  0.0022 -0.4795
19417TIP3    H179666   2.857   0.273  12.060  0.0580  1.2605  1.2354
19417TIP3    H279667   2.772   0.149  12.042  2.3793 -0.1270 -0.7376
19418TIP3   OH279668   1.639   2.848  14.499 -0.3384  0.2425  0.1376
19418TIP3    H179669   1.620   2.757  14.476  1.5073 -0.2420  0.3631
19418TIP3    H279670   1.726   2.845  14.540 -0.4888  2.0327  0.6731
19419TIP3   OH279671   3.962   1.802   4.566 -0.0763 -0.0534 -0.1556
19419TIP3    H179672   3.985   1.711   4.545  0.4512 -0.2705  1.2429
19419TIP3    H279673   4.035   1.833   4.620  0.0059  1.3854 -1.0311
19420TIP3   OH279674   1.379   5.135  10.893 -0.1555 -0.0512  0.7634
19420TIP3    H179675   1.436   5.208  10.917 -0.6479  0.4283  0.4974
19420TIP3    H279676   1.432   5.057  10.908  0.8979  0.4157 -0.4023
19421TIP3   OH279677   6.094   6.746   4.080 -0.6886 -0.4270  0.2552
19421TIP3    H179678   6.087   6.688   4.005  0.7201 -1.2730  0.7342
19421TIP3    H279679   6.035   6.819   4.060 -0.1478 -0.4830 -1.7985
19422TIP3   OH279680   3.631   6.002   5.043 -0.0396 -0.1443  0.4441
19422TIP3    H179681   3.568   5.931   5.041  0.2718 -0.4338  0.7535
19422TIP3    H279682   3.684   5.985   5.121  0.3003  0.1944  0.2920
19423TIP3   OH279683   1.509   0.843   2.076 -0.0075  0.1436  0.8641
19423TIP3    H179684   1.447   0.835   2.003  0.1109 -2.3249  0.9462
19423TIP3    H279685   1.453   0.847   2.154 -0.1232  2.4642  0.7368
19424TIP3   OH279686   1.640   3.635  13.412 -0.4007  0.5385 -0.3527
19424TIP3    H179687   1.698   3.710  13.401  1.3864 -0.8675 -1.0366
19424TIP3    H279688   1.656   3.581  13.334 -0.5852 -1.1865  0.7526
19425TIP3   OH279689   3.760   1.586  16.049  0.3234  0.3741 -0.2629
19425TIP3    H179690   3.733   1.498  16.076  2.3332 -0.3267 -0.3656
19425TIP3    H279691   3.715   1.601  15.966 -0.3325 -0.3730 -0.0579
19426TIP3   OH279692   6.551   1.302   3.989  0.3264 -0.3428 -0.1011
19426TIP3    H179693   6.602   1.314   4.069 -0.4570  1.5828  0.1613
19426TIP3    H279694   6.480   1.242   4.016  0.2653  0.0136  0.5666
19427TIP3   OH279695   0.257   0.293   1.652 -0.1448  0.0667 -0.1198
19427TIP3    H179696   0.204   0.256   1.581  0.0534 -1.7446  0.6291
19427TIP3    H279697   0.193   0.317   1.718 -0.1988  0.0466 -0.1641
19428TIP3   OH279698   0.409   2.229  11.536 -0.1274 -0.1136 -1.0931
19428TIP3    H179699   0.360   2.291  11.589 -0.7958 -1.5555  0.0516
19428TIP3    H279700   0.350   2.208  11.463 -0.8518 -1.0792 -0.2601
19429TIP3   OH279701   6.617   0.631   5.255 -0.2336  0.1285 -0.3221
19429TIP3    H179702   6.593   0.562   5.316 -1.4143  1.8699  1.2872
19429TIP3    H279703   6.551   0.625   5.185 -0.9963  0.2783  0.3680
19430TIP3   OH279704   4.899   2.141   0.770 -0.5129 -0.0502 -0.2819
19430TIP3    H179705   4.865   2.225   0.798  0.0097  0.1757 -0.3137
19430TIP3    H279706   4.923   2.096   0.851 -0.1608  0.1070 -0.2954
19431TIP3   OH279707   1.327   1.608   5.486 -0.8809 -0.3105 -0.2015
19431TIP3    H179708   1.244   1.655   5.489 -0.3599  0.6779 -0.9259
19431TIP3    H279709   1.379   1.646   5.557 -1.3863 -1.6461  0.9397
19432TIP3   OH279710   1.399   0.192  15.304 -0.2139  0.0479 -0.5793
19432TIP3    H179711   1.431   0.106  15.277 -0.9044 -1.0087  1.7079
19432TIP3    H279712   1.323   0.173  15.359 -0.3093  2.1141  0.0749
19433TIP3   OH279713   0.093   6.358  12.181 -0.1959  0.1037  0.0518
19433TIP3    H179714   0.155   6.351  12.109  0.2317  2.6298  0.1120
19433TIP3    H279715   0.006   6.351  12.140  0.0582  0.7901 -0.6135
19434TIP3   OH279716   1.694   5.966  14.478  0.0179  0.3274  0.0498
19434TIP3    H179717   1.661   6.025  14.545  1.4996  0.1340  0.9845
19434TIP3    H279718   1.681   5.879  14.513 -2.9982 -0.0810 -1.7021
19435TIP3   OH279719   2.913   0.534  13.570 -0.2388 -0.4032 -0.1609
19435TIP3    H179720   2.964   0.462  13.534 -1.5352 -0.8199 -1.2644
19435TIP3    H279721   2.912   0.601  13.502  0.4815  0.4462  0.6350
19436TIP3   OH279722   5.919   5.178   0.495  0.5098 -0.1057  0.3451
19436TIP3    H179723   5.999   5.161   0.446  1.0790  2.3065  0.3307
19436TIP3    H279724   5.947   5.182   0.586  0.4143  0.6764  0.3468
19437TIP3   OH279725   4.918   6.319   4.297 -0.1355 -0.1596  0.7353
19437TIP3    H179726   4.833   6.276   4.290 -0.9934  1.5600  0.1272
19437TIP3    H279727   4.903   6.409   4.269  2.0753 -0.0114 -0.2165
19438TIP3   OH279728   2.161   2.832  15.851  0.4926 -0.0053 -0.5675
19438TIP3    H179729   2.243   2.787  15.872 -0.7915 -2.0020  0.6214
19438TIP3    H279730   2.093   2.765  15.866 -1.3345  1.4795 -1.7521
19439TIP3   OH279731   4.424   4.045  13.745  0.4481 -0.2994 -0.2338
19439TIP3    H179732   4.455   4.032  13.655  0.0990  2.4424 -0.8249
19439TIP3    H279733   4.387   4.133  13.745 -0.1711 -0.4897  2.4546
19440TIP3   OH279734   1.530   5.686   2.736 -0.3496  0.5067  0.0821
19440TIP3    H179735   1.561   5.715   2.650 -0.1752  2.3142  0.7231
19440TIP3    H279736   1.604   5.638   2.773 -0.5651 -0.6427 -0.9096
19441TIP3   OH279737   1.850   2.754   5.966 -0.3859 -0.3880  0.2682
19441TIP3    H179738   1.757   2.733   5.980 -0.6130  0.9310  0.8299
19441TIP3    H279739   1.877   2.797   6.047  0.1807  1.0629 -0.6640
19442TIP3   OH279740   1.057   3.466   3.355  0.7677 -0.3601  0.3861
19442TIP3    H179741   1.138   3.421   3.334 -0.9672 -3.1719 -0.8510
19442TIP3    H279742   1.010   3.406   3.412 -1.5493 -0.0590 -1.0590
19443TIP3   OH279743   4.504   2.276   1.439  0.1657  0.4345  0.1698
19443TIP3    H179744   4.528   2.354   1.389 -1.7265  0.3927 -0.8837
19443TIP3    H279745   4.453   2.311   1.513  1.9564  0.3986  1.4926
19444TIP3   OH279746   4.395   5.747  14.394 -0.2673  0.4107 -0.0616
19444TIP3    H179747   4.319   5.740  14.453 -0.1011  0.2170  0.1317
19444TIP3    H279748   4.440   5.663  14.403  1.3676  1.4043  1.7382
19445TIP3   OH279749   1.575   0.267  16.917  0.8134 -0.3078  0.2568
19445TIP3    H179750   1.605   0.357  16.926  0.9011 -0.0259 -2.2354
19445TIP3    H279751   1.632   0.230  16.849  0.4948 -2.1297  0.9264
19446TIP3   OH279752   0.476   0.236  17.091 -0.0444 -0.5405 -0.1940
19446TIP3    H179753   0.510   0.253  17.178 -0.6731 -0.6444  0.0799
19446TIP3    H279754   0.530   0.289  17.033  0.5720 -0.7052  0.2207
19447TIP3   OH279755   2.747   3.806  12.988  0.1208  0.2117 -0.3802
19447TIP3    H179756   2.841   3.791  12.974  0.2201 -0.9907  1.2685
19447TIP3    H279757   2.737   3.901  12.982  1.5905  0.4354  0.1630
19448TIP3   OH279758   5.029   0.420   4.473 -0.0353  0.0895 -0.6716
19448TIP3    H179759   5.080   0.382   4.544  0.1812  0.6916 -0.5014
19448TIP3    H279760   4.941   0.382   4.484  0.7115 -2.1495 -1.8940
19449TIP3   OH279761   0.013   1.147  15.696 -0.3027  0.2125 -0.4096
19449TIP3    H179762  -0.077   1.165  15.669  0.1670  1.7918 -1.0222
19449TIP3    H279763   0.056   1.117  15.616  0.0403  0.7651 -0.4363
19450TIP3   OH279764   6.676   6.659  11.590  0.1628 -0.2834  0.1839
19450TIP3    H179765   6.597   6.674  11.640 -2.1344 -2.2918 -2.4991
19450TIP3    H279766   6.690   6.565  11.595  1.3053 -0.1987 -0.8777
19451TIP3   OH279767   5.747   4.891   2.349 -0.3784  0.1599  0.6215
19451TIP3    H179768   5.751   4.796   2.358 -1.3205  0.0687  0.1752
19451TIP3    H279769   5.702   4.921   2.428  0.2728  0.2891  0.9583
19452TIP3   OH279770   0.683   3.733  13.869 -0.7317  0.4105  0.3262
19452TIP3    H179771   0.615   3.801  13.867  0.8050  1.9907 -1.3149
19452TIP3    H279772   0.748   3.766  13.931 -0.2111  0.2274 -0.1143
19453TIP3   OH279773   0.933   1.913  10.933  0.0236  0.4744  0.0421
19453TIP3    H179774   0.924   1.995  10.981 -0.5493  1.0413 -0.9949
19453TIP3    H279775   0.846   1.895  10.899 -0.0575 -1.0338  0.9557
19454TIP3   OH279776   1.282   1.256   3.886 -0.1693 -0.4933 -0.1922
19454TIP3    H179777   1.349   1.189   3.877 -0.3274 -0.8139  0.8274
19454TIP3    H279778   1.297   1.292   3.974 -0.2754  0.5949 -0.6138
19455TIP3   OH279779   4.248   5.691  14.156  0.1996 -0.3203 -0.1572
19455TIP3    H179780   4.224   5.612  14.205 -1.2888  0.3258  0.2131
19455TIP3    H279781   4.319   5.730  14.206 -0.2679 -0.4838  0.6481
19456TIP3   OH279782   1.231   1.653   1.756 -0.1605  0.1339  0.6841
19456TIP3    H179783   1.245   1.638   1.849 -0.0964  0.0855  0.6668
19456TIP3    H279784   1.141   1.628   1.740  0.0061 -0.4215  0.6153
19457TIP3   OH279785   0.787   1.647  14.319  0.1526 -0.1069 -0.4511
19457TIP3    H179786   0.838   1.690  14.388  0.2673 -0.5551 -0.2546
19457TIP3    H279787   0.853   1.601  14.267 -0.0086 -0.3323 -0.4538
19458TIP3   OH279788   0.983   5.946  10.678 -0.8091  0.3082  0.2390
19458TIP3    H179789   1.038   5.987  10.746 -0.4078 -0.7327  0.5677
19458TIP3    H279790   1.046   5.912  10.614 -0.7962 -3.1149  1.8455
19459TIP3   OH279791   1.093   4.200   1.273 -0.3086  0.3882  0.5204
19459TIP3    H179792   1.010   4.245   1.257 -0.6990 -0.4081  0.2787
19459TIP3    H279793   1.147   4.222   1.197  0.0673  1.7040  1.1399
19460TIP3   OH279794   3.705   4.744  10.520  0.4762  0.7481  0.0094
19460TIP3    H179795   3.666   4.683  10.583 -0.7395  1.4038 -0.0776
19460TIP3    H279796   3.689   4.704  10.435  1.9960 -0.0686  0.0648
19461TIP3   OH279797   5.788   5.182  11.557 -0.1231  0.1859  0.2198
19461TIP3    H179798   5.788   5.110  11.493 -2.1100  0.4386 -0.1159
19461TIP3    H279799   5.799   5.138  11.641 -0.6312 -0.4599 -0.0385
19462TIP3   OH279800   1.241   0.939   3.841 -0.4290 -0.3147  0.7433
19462TIP3    H179801   1.309   0.953   3.908 -0.4850  0.5928  0.6219
19462TIP3    H279802   1.288   0.901   3.767 -0.2273 -0.5944  1.0118
19463TIP3   OH279803   2.904   4.197  14.772 -1.1027 -0.2534  0.0205
19463TIP3    H179804   2.962   4.120  14.775 -0.8831 -0.1643 -1.3169
19463TIP3    H279805   2.878   4.210  14.863  0.3532 -0.7776  0.5557
19464TIP3   OH279806   4.639   5.723  13.570 -0.6500  0.1279 -0.2601
19464TIP3    H179807   4.600   5.721  13.483 -1.8970 -0.3794  0.2783
19464TIP3    H279808   4.720   5.773  13.559 -1.7161  1.7476 -1.3399
19465TIP3   OH279809   4.649   4.441   5.724  0.1914 -0.0955  0.6987
19465TIP3    H179810   4.726   4.469   5.674  0.2943 -0.3799  0.6990
19465TIP3    H279811   4.624   4.357   5.686 -0.3206  0.1480  0.4811
19466TIP3   OH279812   1.526   1.080  15.557  0.1686  0.1560 -0.1590
19466TIP3    H179813   1.543   1.158  15.503  1.3235 -0.0528 -0.1299
19466TIP3    H279814   1.595   1.019  15.533 -1.4734 -1.3918 -1.1172
19467TIP3   OH279815   2.925   2.518  15.059  0.3734  0.1490 -0.3914
19467TIP3    H179816   2.919   2.612  15.042 -0.7221 -0.1660 -1.9393
19467TIP3    H279817   2.858   2.479  15.003  0.7572 -1.5621  0.2702
19468TIP3   OH279818   4.538   5.031   3.045  0.0961  0.0200 -0.0586
19468TIP3    H179819   4.495   5.112   3.016 -1.4796 -0.8118 -0.1559
19468TIP3    H279820   4.612   5.061   3.098 -0.0938  1.5253 -0.5932
19469TIP3   OH279821   5.021   4.880  12.135 -0.3320  0.0811  0.2627
19469TIP3    H179822   5.107   4.909  12.167 -0.3624  3.2106 -2.0368
19469TIP3    H279823   5.031   4.877  12.040 -2.3636 -1.0430  0.0341
19470TIP3   OH279824   1.057   5.321  14.668  0.4372 -0.3284  0.2631
19470TIP3    H179825   1.150   5.323  14.690  0.9795  4.4260 -1.2781
19470TIP3    H279826   1.012   5.343  14.750  0.9911  0.4905  0.3619
19471TIP3   OH279827   0.342   3.636   1.392 -0.1288  0.6364  0.2025
19471TIP3    H179828   0.356   3.675   1.305 -0.4331  0.4307  0.0585
19471TIP3    H279829   0.250   3.608   1.391 -0.5446  1.8658  1.0896
19472TIP3   OH279830   5.227   4.563   2.488 -0.0952  0.0543  0.2666
19472TIP3    H179831   5.207   4.494   2.552  0.3483  0.0053  0.3608
19472TIP3    H279832   5.145   4.610   2.476 -0.8345 -1.5036 -1.0369
19473TIP3   OH279833   6.027   0.523  16.191 -0.5843 -0.7500 -0.3355
19473TIP3    H179834   5.940   0.489  16.212  0.0329 -1.9022  0.4342
19473TIP3    H279835   6.083   0.445  16.187  0.3003 -0.0879 -1.4504
19474TIP3   OH279836   1.561   5.171  13.437  0.4850 -0.5133  0.5793
19474TIP3    H179837   1.472   5.199  13.419  1.0352  3.4822  2.8887
19474TIP3    H279838   1.616   5.234  13.390  2.1463 -2.0603  0.2952
19475TIP3   OH279839   2.758   2.165   2.811 -0.0810  0.4950  0.3416
19475TIP3    H179840   2.783   2.078   2.844 -0.8522  0.7549  1.6938
19475TIP3    H279841   2.817   2.181   2.738  1.6385 -0.1864  1.5287
19476TIP3   OH279842   0.008   4.039   6.536 -0.5116 -0.6059 -0.0285
19476TIP3    H179843   0.007   4.113   6.475  1.4207 -1.7178 -1.5385
19476TIP3    H279844   0.016   4.079   6.623 -1.6063  0.9796 -0.6117
19477TIP3   OH279845   2.959   4.958   1.240  0.2158  0.0543 -0.2019
19477TIP3    H179846   2.868   4.974   1.215  0.8274  0.9711 -2.0069
19477TIP3    H279847   2.959   4.870   1.278 -1.4724  0.1895  0.1855
19478TIP3   OH279848   4.825   0.004   4.984 -0.0730 -0.4811 -0.4582
19478TIP3    H179849   4.781  -0.071   5.024 -0.0316  0.6258  1.8124
19478TIP3    H279850   4.914  -0.027   4.966 -0.3486 -1.2580 -0.5411
19479TIP3   OH279851   1.172   2.897  11.943 -0.1030 -0.2415 -1.0394
19479TIP3    H179852   1.089   2.853  11.956  0.0512 -0.4903 -0.8902
19479TIP3    H279853   1.237   2.838  11.980 -0.1164  1.1786  1.4614
19480TIP3   OH279854   1.686   6.635  16.286  0.8044 -0.3756 -0.1972
19480TIP3    H179855   1.608   6.687  16.304 -0.8566 -2.1924 -1.7409
19480TIP3    H279856   1.720   6.613  16.373  0.6752  1.9007  0.4990
19481TIP3   OH279857   4.661   4.473  14.252 -0.3177  0.0601 -0.7558
19481TIP3    H179858   4.680   4.411  14.323 -0.4855 -1.0258 -1.6300
19481TIP3    H279859   4.572   4.503  14.271  0.4397  1.5081  0.7107
19482TIP3   OH279860   3.472   6.216   5.115  0.3423  0.0130 -0.0782
19482TIP3    H179861   3.512   6.138   5.078  0.3436 -0.2060  0.3822
19482TIP3    H279862   3.540   6.254   5.170  0.8270  1.1037 -1.3549
19483TIP3   OH279863   5.858   3.208  11.278  0.0273  0.4735  0.5033
19483TIP3    H179864   5.926   3.231  11.214  1.6201  0.2168  2.0146
19483TIP3    H279865   5.809   3.138  11.236  1.8490 -0.5961  0.0244
19484TIP3   OH279866   0.415   2.283  12.506 -0.0123 -1.2448 -0.0683
19484TIP3    H179867   0.375   2.368  12.487  0.5061 -0.5878  1.5372
19484TIP3    H279868   0.356   2.244  12.571  0.1485 -1.7881 -0.2486
19485TIP3   OH279869   3.794   0.215  15.839  0.0311 -0.3729 -0.4277
19485TIP3    H179870   3.810   0.308  15.828  0.1655 -0.4442 -0.8155
19485TIP3    H279871   3.704   0.211  15.872 -0.2612 -0.1481 -1.1759
19486TIP3   OH279872   3.646   3.986  14.410 -0.3356 -0.1348 -0.2763
19486TIP3    H179873   3.576   4.051  14.418  0.6447  1.1085 -1.3513
19486TIP3    H279874   3.677   3.995  14.320 -0.4259 -2.3997 -0.5886
19487TIP3   OH279875   6.256   0.082   0.927  0.2027  0.8605 -0.6677
19487TIP3    H179876   6.302   0.102   0.846  2.1363  2.5094  0.7255
19487TIP3    H279877   6.303   0.008   0.965 -1.1000 -0.3421 -1.2850
19488TIP3   OH279878   3.621   5.805   5.452 -0.0492  0.1264  0.2872
19488TIP3    H179879   3.569   5.785   5.530  0.5528 -0.8093  0.4734
19488TIP3    H279880   3.637   5.899   5.456 -1.3151  0.3498  0.4736
19489TIP3   OH279881   2.300   1.027  16.668 -0.0099  0.9155  0.8240
19489TIP3    H179882   2.292   1.120  16.647 -3.3032  0.7130  0.7053
19489TIP3    H279883   2.252   1.016  16.750 -1.8363 -1.0015 -0.3857
19490TIP3   OH279884   1.130   2.148   5.987  0.5339 -0.6349  0.2787
19490TIP3    H179885   1.136   2.158   6.082  1.9898 -0.7737  0.2308
19490TIP3    H279886   1.220   2.129   5.960  0.6328  1.7480 -1.3964
19491TIP3   OH279887   2.858   2.291   0.360  0.1360  0.0226 -0.6129
19491TIP3    H179888   2.769   2.323   0.344  0.4092  1.2841  0.2212
19491TIP3    H279889   2.881   2.329   0.445  0.7318 -1.9277  0.1306
19492TIP3   OH279890   2.578   5.463  11.859  0.2128  0.0381 -0.8956
19492TIP3    H179891   2.533   5.379  11.857  1.1395 -0.5212  0.4600
19492TIP3    H279892   2.662   5.445  11.903 -0.0883  1.8958  0.5884
19493TIP3   OH279893   4.504   5.889  16.789 -0.1851 -0.3957 -0.5307
19493TIP3    H179894   4.501   5.936  16.705  0.5208 -0.2065 -0.4626
19493TIP3    H279895   4.583   5.923  16.832 -1.1869  0.3811  0.7373
19494TIP3   OH279896   5.635   3.631   4.865 -0.5740 -0.3632 -0.2150
19494TIP3    H179897   5.578   3.695   4.907 -1.4564 -0.9668 -0.4656
19494TIP3    H279898   5.587   3.603   4.787 -0.2331 -1.3598 -0.0883
19495TIP3   OH279899   6.628   1.634   1.227 -0.0813  0.8278  0.2142
19495TIP3    H179900   6.652   1.724   1.249  0.8723  0.2727  1.6101
19495TIP3    H279901   6.585   1.600   1.305  2.1516 -0.7911  0.8557
19496TIP3   OH279902   1.087   2.648  11.525  0.2291 -0.3061  0.0901
19496TIP3    H179903   1.015   2.585  11.534  0.8670 -1.2250 -0.9069
19496TIP3    H279904   1.050   2.720  11.474 -0.4392  0.0313  1.0217
19497TIP3   OH279905   0.578   4.201   5.139  0.2810 -0.2364 -0.7135
19497TIP3    H179906   0.641   4.220   5.209 -0.3007  0.5728 -0.3911
19497TIP3    H279907   0.610   4.120   5.100  0.0727 -1.2961  1.1573
19498TIP3   OH279908   0.586   3.246  17.147  0.1103  0.3239  0.0141
19498TIP3    H179909   0.586   3.342  17.159  1.3518  0.3237  0.1094
19498TIP3    H279910   0.599   3.212  17.236  2.6929  0.1686 -0.3400
19499TIP3   OH279911   3.837   4.172   4.475 -0.1455  0.6461 -0.0882
19499TIP3    H179912   3.902   4.167   4.544  1.2319 -1.4621 -1.4320
19499TIP3    H279913   3.782   4.094   4.488  0.6012 -0.1963 -1.7565
19500TIP3   OH279914   3.622   0.900   0.639 -0.0948 -0.3516 -0.0689
19500TIP3    H179915   3.593   0.810   0.654 -0.1385 -0.5649 -1.3422
19500TIP3    H279916   3.706   0.891   0.595 -0.0772  0.2343 -0.1621
19501TIP3   OH279917   4.388   6.415   4.514  0.5037  0.2715  0.6021
19501TIP3    H179918   4.389   6.433   4.608  0.2806  1.5346  0.3846
19501TIP3    H279919   4.338   6.487   4.476  0.0189 -0.5777 -0.4226
19502TIP3   OH279920   1.263   1.669  12.483  0.7753  0.2541  0.2955
19502TIP3    H179921   1.348   1.625  12.488  0.4387 -0.3920  0.5092
19502TIP3    H279922   1.259   1.705  12.395  2.4766  2.8015  1.1461
19503TIP3   OH279923   3.338   6.203   3.306  0.1948  0.2992 -0.0006
19503TIP3    H179924   3.342   6.199   3.210  0.2592 -0.6327  0.0284
19503TIP3    H279925   3.248   6.228   3.325 -0.3245 -1.1960 -0.3016
19504TIP3   OH279926   0.813   5.396   5.450 -0.2731 -0.0876 -0.0056
19504TIP3    H179927   0.756   5.352   5.386 -1.0291 -0.4854  0.9066
19504TIP3    H279928   0.760   5.400   5.530  0.4069  0.9903  0.4137
19505TIP3   OH279929   4.003   6.175   1.778 -0.4308 -0.0357  0.2577
19505TIP3    H179930   4.052   6.150   1.857  0.5742  0.2442 -0.2518
19505TIP3    H279931   3.995   6.095   1.728  1.3171  0.2756 -0.5942
19506TIP3   OH279932   5.564   1.914  15.909  0.3069  0.6316  0.2964
19506TIP3    H179933   5.489   1.943  15.858 -0.1684 -0.0238  0.6001
19506TIP3    H279934   5.526   1.870  15.986  0.9574 -1.0508 -0.2838
19507TIP3   OH279935   3.984   6.099  12.881 -0.0948 -0.3055  0.2781
19507TIP3    H179936   3.998   6.031  12.947 -1.5741 -0.4546  0.4693
19507TIP3    H279937   4.061   6.094  12.824  0.2375 -1.5411  0.8142
19508TIP3   OH279938   1.111   6.307   1.625  0.4807 -0.0948  0.3455
19508TIP3    H179939   1.035   6.288   1.569  0.9711  2.0100 -1.1633
19508TIP3    H279940   1.073   6.324   1.711 -0.9482  1.8997 -0.5955
19509TIP3   OH279941   2.046   0.024  13.752 -0.3058  0.1472  0.6744
19509TIP3    H179942   2.018   0.081  13.680  1.5785  1.3261  0.8269
19509TIP3    H279943   2.069  -0.059  13.709  0.9546  0.8844 -0.1484
19510TIP3   OH279944   2.491   3.908   0.628 -0.5758 -0.0617  0.1280
19510TIP3    H179945   2.509   3.861   0.709  2.0824 -0.0454 -0.3701
19510TIP3    H279946   2.576   3.942   0.600 -1.9300  2.7697 -0.9538
19511TIP3   OH279947   0.226   2.033  16.255 -0.3343 -0.5567  0.0759
19511TIP3    H179948   0.236   2.034  16.350  0.6081 -0.6259 -0.0189
19511TIP3    H279949   0.303   2.079  16.222  0.0826 -1.7972 -0.7166
19512TIP3   OH279950   0.280   6.072  11.384  0.5099 -0.0201  0.8081
19512TIP3    H179951   0.298   6.030  11.300  0.0075 -0.5290  0.9518
19512TIP3    H279952   0.301   6.165  11.369  0.6233 -0.1401  0.1871
19513TIP3   OH279953   0.460   0.545  15.357 -0.1260 -0.4662  0.1987
19513TIP3    H179954   0.514   0.601  15.412  0.6929 -3.7260  3.1025
19513TIP3    H279955   0.515   0.467  15.342 -2.3805 -2.0054 -0.5910
19514TIP3   OH279956   6.526   4.353  14.656 -0.1175 -0.1872 -0.2355
19514TIP3    H179957   6.561   4.361  14.567  0.5657 -0.6683 -0.0245
19514TIP3    H279958   6.479   4.270  14.656  0.0693 -0.2959 -0.0955
19515TIP3   OH279959   1.311   5.543  16.371  0.4017 -0.2208 -0.4484
19515TIP3    H179960   1.323   5.518  16.280  0.0597 -0.0551 -0.5397
19515TIP3    H279961   1.250   5.617  16.369 -0.4617 -0.8982 -0.0182
19516TIP3   OH279962   4.017   1.243   4.866  0.3903  0.7768 -0.3141
19516TIP3    H179963   4.044   1.262   4.956  0.4912 -0.0408 -0.1644
19516TIP3    H279964   4.088   1.275   4.812  0.5807  0.7770 -0.0620
19517TIP3   OH279965   4.998   6.402  15.361  0.4524 -0.1647  0.6881
19517TIP3    H179966   5.027   6.388  15.451 -2.8804 -2.7628  1.5670
19517TIP3    H279967   4.910   6.437  15.370  0.4325  0.5009 -1.6267
19518TIP3   OH279968   2.423   5.627  12.890 -0.6302 -0.0787 -0.2867
19518TIP3    H179969   2.393   5.625  12.799 -0.5972 -1.1026 -0.2870
19518TIP3    H279970   2.488   5.698  12.892  0.0156 -0.6112 -1.2756
19519TIP3   OH279971   4.173   6.782   5.546  0.1740  0.1190 -0.3043
19519TIP3    H179972   4.167   6.861   5.600  2.0231  1.2652 -1.6477
19519TIP3    H279973   4.195   6.712   5.607 -2.0941  0.4432  1.0031
19520TIP3   OH279974   0.215   2.013   6.055 -0.7766 -0.2815 -0.3211
19520TIP3    H179975   0.290   1.991   6.111  1.5490  0.8958 -2.7335
19520TIP3    H279976   0.138   1.996   6.110  1.2735  1.0579  3.3348
19521TIP3   OH279977   5.219   6.444   1.258 -0.0702  0.1172 -0.0044
19521TIP3    H179978   5.264   6.523   1.230 -0.0174  0.3984  0.8329
19521TIP3    H279979   5.281   6.373   1.241  0.3147  0.3901  0.2454
19522TIP3   OH279980   6.606   3.650  13.808  0.2017  0.4313  0.0148
19522TIP3    H179981   6.643   3.585  13.868  1.1434  1.3441  0.4621
19522TIP3    H279982   6.519   3.617  13.787  0.0710 -0.1920  1.4422
19523TIP3   OH279983   1.606   2.674  16.982  0.3614 -0.1010  0.0402
19523TIP3    H179984   1.590   2.719  16.900 -0.2273 -0.1215  0.1451
19523TIP3    H279985   1.609   2.581  16.959 -0.5699 -0.1669  0.1543
19524TIP3   OH279986   2.621   2.959   5.062 -0.3454  0.1545 -0.0122
19524TIP3    H179987   2.685   2.910   5.114  0.0639  1.9898  1.3141
19524TIP3    H279988   2.644   2.941   4.971  0.1303 -1.6341  0.4270
19525TIP3   OH279989   4.984   4.413  13.743  0.0557  0.2480 -0.2130
19525TIP3    H179990   4.920   4.380  13.679 -0.3521  0.2889  0.1648
19525TIP3    H279991   5.058   4.353  13.736 -0.7095 -0.8295  0.5162
19526TIP3   OH279992   3.366   6.289   5.895  0.7510  0.6957  0.1669
19526TIP3    H179993   3.441   6.302   5.837 -0.6393 -1.4713 -2.3637
19526TIP3    H279994   3.296   6.258   5.837 -1.5552  0.8124  2.6832
19527TIP3   OH279995   3.734   6.304  16.191 -0.4956  0.1850 -0.4810
19527TIP3    H179996   3.810   6.255  16.221  0.2390  1.1444 -0.7684
19527TIP3    H279997   3.710   6.360  16.264  0.4607  1.5247 -1.1723
19528TIP3   OH279998   3.470   4.734   1.003 -0.1349 -0.5268 -0.1500
19528TIP3    H179999   3.548   4.684   1.027 -1.0292 -1.5702  0.6613
19528TIP3    H280000   3.399   4.670   1.006 -0.9609  0.2915 -1.3748
19529TIP3   OH280001   6.010   3.198   1.146  0.4988  0.2993  0.0734
19529TIP3    H180002   6.073   3.128   1.159  0.5279  0.3270  0.0823
19529TIP3    H280003   6.018   3.252   1.225 -1.5881 -1.2775  1.4551
19530TIP3   OH280004   4.227   1.029  12.255 -0.4917 -0.4781 -0.1223
19530TIP3    H180005   4.322   1.046  12.256 -0.5828  0.0858 -0.4881
19530TIP3    H280006   4.206   1.008  12.346  0.0054 -0.7373 -0.0600
19531TIP3   OH280007   0.954   2.738   2.463  0.4160  0.8529 -0.8522
19531TIP3    H180008   0.892   2.759   2.393  1.1388  2.4514 -1.0497
19531TIP3    H280009   0.941   2.807   2.528 -1.5873 -1.5716  1.6014
19532TIP3   OH280010   5.444   4.522  13.356 -0.1369 -0.1027  0.2297
19532TIP3    H180011   5.361   4.558  13.325 -1.5116 -2.3180  1.1136
19532TIP3    H280012   5.489   4.494  13.277 -1.4004 -1.1828 -0.1433
19533TIP3   OH280013   4.626   2.310  14.143  0.4152 -0.2298 -0.1251
19533TIP3    H180014   4.531   2.315  14.151  0.1013 -3.2882 -0.5082
19533TIP3    H280015   4.641   2.278  14.054  1.9947  2.2730 -0.8670
19534TIP3   OH280016   4.839   6.245  14.464 -0.4173 -0.0545  0.4214
19534TIP3    H180017   4.800   6.330  14.480 -1.4301 -0.5629  0.7108
19534TIP3    H280018   4.894   6.229  14.541  0.8271  0.8989 -0.2376
19535TIP3   OH280019   6.517   2.570   3.390  0.0316 -0.2203  0.3800
19535TIP3    H180020   6.438   2.592   3.440  0.8012 -0.5602  1.7751
19535TIP3    H280021   6.578   2.641   3.407  0.6102 -0.7627  0.6087
19536TIP3   OH280022   4.037   3.356  11.660 -0.2997 -0.1552  0.9213
19536TIP3    H180023   4.068   3.396  11.741 -0.8498 -1.3156  1.7275
19536TIP3    H280024   3.971   3.293  11.688 -0.2373 -0.8372 -0.4012
19537TIP3   OH280025   0.065   4.361   1.001  0.1439  0.2836  0.0121
19537TIP3    H180026   0.103   4.277   1.028 -2.1806 -0.0417  2.7351
19537TIP3    H280027   0.003   4.338   0.932  1.5963  0.2482 -1.3494
19538TIP3   OH280028   3.140   4.813  12.250  0.1568  0.1228  0.1083
19538TIP3    H180029   3.047   4.798  12.230 -0.1293  1.2591  0.5003
19538TIP3    H280030   3.172   4.866  12.177  0.2470  0.5470  0.4529
19539TIP3   OH280031   4.439   4.385   3.769  0.3411  0.1660 -0.5833
19539TIP3    H180032   4.364   4.418   3.718 -0.1883  1.0642  0.7074
19539TIP3    H280033   4.413   4.297   3.796  0.1812  0.0911 -0.9734
19540TIP3   OH280034   1.011   6.211  12.123  0.1841  0.2827 -0.2869
19540TIP3    H180035   1.073   6.145  12.153 -0.2229  0.1767  0.3373
19540TIP3    H280036   0.974   6.175  12.043 -0.3633 -0.4548  0.2897
19541TIP3   OH280037   3.825   4.182  16.442 -0.5516 -1.0540  0.1883
19541TIP3    H180038   3.828   4.207  16.350  0.5851 -1.7793  0.0077
19541TIP3    H280039   3.888   4.239  16.485  1.4287 -2.9212 -0.0849
19542TIP3   OH280040   0.396   0.697  14.901 -0.4394 -0.1064 -0.3380
19542TIP3    H180041   0.423   0.616  14.943  0.1507 -0.0774 -0.6467
19542TIP3    H280042   0.310   0.717  14.939 -1.2692 -1.6241 -1.3141
19543TIP3   OH280043   3.839   3.547   4.597  0.1340 -0.0489 -0.1433
19543TIP3    H180044   3.778   3.478   4.571 -3.5448  2.4808  0.8798
19543TIP3    H280045   3.865   3.524   4.686  0.6936 -1.1468 -0.5743
19544TIP3   OH280046   5.125   2.894   3.594  0.2071  1.1863 -0.2888
19544TIP3    H180047   5.097   2.946   3.518  2.1116 -0.7906 -2.5281
19544TIP3    H280048   5.155   2.812   3.556 -0.9448 -0.9013  2.9016
19545TIP3   OH280049   3.833   5.219   2.181  0.0425 -0.2531 -0.0659
19545TIP3    H180050   3.764   5.189   2.122 -1.4346  0.6732  1.1269
19545TIP3    H280051   3.863   5.301   2.143 -1.7551  0.9793  1.0267
19546TIP3   OH280052   1.277   6.633  13.768  0.3315 -0.3360 -0.2278
19546TIP3    H180053   1.301   6.725  13.764  1.4792 -0.6642 -2.3925
19546TIP3    H280054   1.350   6.587  13.727 -1.0949 -2.0160 -1.0480
19547TIP3   OH280055   5.667   4.329   1.819  0.2087 -0.0543 -0.4027
19547TIP3    H180056   5.655   4.258   1.756  0.3476 -1.0943  0.6919
19547TIP3    H280057   5.717   4.288   1.890 -0.0660  1.0389  0.4335
19548TIP3   OH280058   5.506   5.082   2.801 -0.1218  0.0700 -0.3971
19548TIP3    H180059   5.448   5.157   2.787  0.6943  0.6033 -1.0740
19548TIP3    H280060   5.456   5.006   2.772 -0.4043  0.5441 -1.1817
19549TIP3   OH280061   5.128   5.480   2.348 -0.9078 -0.1681 -0.4152
19549TIP3    H180062   5.046   5.526   2.332 -0.1195  0.9331 -1.4957
19549TIP3    H280063   5.184   5.544   2.393 -0.3963 -0.6440 -0.3570
19550TIP3   OH280064   1.580   2.547  16.549  0.5010 -0.2125  0.0861
19550TIP3    H180065   1.652   2.512  16.497 -0.6969 -1.4999 -0.7434
19550TIP3    H280066   1.516   2.578  16.485  0.0016  0.3005  0.8107
19551TIP3   OH280067   0.906   6.703  11.091  0.6535  0.6953 -0.5039
19551TIP3    H180068   0.931   6.769  11.026  1.9139  0.7865  0.0470
19551TIP3    H280069   0.975   6.637  11.086  0.0530  0.0312 -0.1862
19552TIP3   OH280070   2.040   3.718   4.588 -0.2540 -0.0138  0.4269
19552TIP3    H180071   1.993   3.797   4.616 -0.3153  0.2158 -0.3050
19552TIP3    H280072   2.029   3.656   4.661 -0.7002  0.4446  0.7550
19553TIP3   OH280073   6.174   4.086   4.080 -0.4468 -0.3721 -0.6125
19553TIP3    H180074   6.091   4.100   4.035  0.0692 -1.7510 -2.0715
19553TIP3    H280075   6.238   4.071   4.010  0.5493 -1.7823  0.5348
19554TIP3   OH280076   5.291   0.733  13.539 -0.1824 -0.1982  0.1468
19554TIP3    H180077   5.364   0.794  13.542 -0.1354 -0.2420 -0.0417
19554TIP3    H280078   5.249   0.750  13.454 -2.4290  2.1447  1.5768
19555TIP3   OH280079   2.992   3.574   1.226 -0.3367  0.4038 -0.5793
19555TIP3    H180080   3.054   3.623   1.280  0.5960  0.2407 -1.4847
19555TIP3    H280081   3.035   3.491   1.208 -0.5962  0.4859 -1.6400
19556TIP3   OH280082   5.161   6.680   6.424  0.0735  0.0943 -0.3892
19556TIP3    H180083   5.248   6.660   6.459  0.5538  0.7079 -1.2108
19556TIP3    H280084   5.129   6.596   6.392  0.9921  0.1255 -1.4418
19557TIP3   OH280085   0.568   5.304  13.535 -0.3716 -0.3750 -0.2154
19557TIP3    H180086   0.584   5.270  13.447 -1.1849  1.2369 -1.0446
19557TIP3    H280087   0.581   5.398  13.527 -0.7208 -0.1644  1.3314
19558TIP3   OH280088   6.439   3.695   0.352 -0.4347  1.0464 -0.3773
19558TIP3    H180089   6.386   3.657   0.282 -1.1343  1.6598 -0.1942
19558TIP3    H280090   6.491   3.763   0.309  1.8133 -0.9193 -0.9668
19559TIP3   OH280091   4.282   1.666  14.873 -0.2565  0.1304 -0.2172
19559TIP3    H180092   4.348   1.607  14.837 -0.6881  0.3052 -1.3436
19559TIP3    H280093   4.297   1.749  14.828  0.6984  1.0950  1.7436
19560TIP3   OH280094   4.869   3.005   0.706 -0.1466  0.1243  0.0724
19560TIP3    H180095   4.810   3.077   0.683 -0.0541  0.9603  2.2668
19560TIP3    H280096   4.941   3.013   0.643 -1.3349  0.3668 -1.3162
19561TIP3   OH280097   2.089   3.852   2.392 -0.5092  0.6162  0.1197
19561TIP3    H180098   1.996   3.863   2.371 -0.5272 -1.8494 -1.3968
19561TIP3    H280099   2.090   3.799   2.472 -0.4479 -0.6324 -0.6853
19562TIP3   OH280100   3.162   0.208   6.103 -0.3842  0.5951 -0.2164
19562TIP3    H180101   3.171   0.300   6.077  0.5743  0.3719 -0.7490
19562TIP3    H280102   3.176   0.208   6.197 -3.8633  1.4200  0.4230
19563TIP3   OH280103   4.922   2.476  16.317  0.1265  0.1256  0.0469
19563TIP3    H180104   4.880   2.394  16.342 -2.0823  0.9851 -0.6188
19563TIP3    H280105   4.937   2.521  16.400  0.6900 -0.6084  0.3620
19564TIP3   OH280106   0.890   6.750   3.399 -0.3460 -0.1041 -0.4379
19564TIP3    H180107   0.796   6.766   3.398 -0.3291  0.0589  0.3903
19564TIP3    H280108   0.929   6.836   3.417 -0.0707 -0.3231  0.0138
19565TIP3   OH280109   0.214   6.323   4.834 -0.5483  0.0621 -0.6787
19565TIP3    H180110   0.279   6.375   4.882  0.7180 -1.3173 -0.8491
19565TIP3    H280111   0.181   6.260   4.898  0.0668 -0.8217 -1.2172
19566TIP3   OH280112   3.852   3.830  15.272  0.3666  0.1166  0.6501
19566TIP3    H180113   3.779   3.862  15.325 -1.5443 -0.0903 -1.7130
19566TIP3    H280114   3.856   3.890  15.198  0.9223 -1.3641 -0.5702
19567TIP3   OH280115   3.674   0.266   3.764  0.1839 -0.3185 -0.1362
19567TIP3    H180116   3.762   0.247   3.732  1.1373  1.7863  1.0227
19567TIP3    H280117   3.652   0.192   3.820  1.0618 -1.0260 -0.7019
19568TIP3   OH280118   0.549   1.165   0.983 -0.4677  0.1724  0.0734
19568TIP3    H180119   0.593   1.249   0.974  0.0643 -0.0557  0.5050
19568TIP3    H280120   0.542   1.132   0.893 -0.3717  0.5167 -0.0623
19569TIP3   OH280121   4.756   5.502  11.347  0.2132  0.0175  0.1159
19569TIP3    H180122   4.662   5.511  11.363 -0.0521  0.5924 -1.5324
19569TIP3    H280123   4.763   5.426  11.289  0.9363 -0.9609  1.4485
19570TIP3   OH280124   4.086   1.309   4.323  0.5352  0.0280 -0.2467
19570TIP3    H180125   4.156   1.372   4.303  0.1566  0.5052 -0.0810
19570TIP3    H280126   4.054   1.336   4.409  2.0776 -1.9333  1.0417
19571TIP3   OH280127   4.078   5.058  14.013 -0.8468  0.3530  0.2138
19571TIP3    H180128   4.093   4.966  14.033  1.6069  0.8065  0.8477
19571TIP3    H280129   4.107   5.105  14.091 -0.5070  1.7224 -0.6870
19572TIP3   OH280130   2.812   0.009  10.552  0.2550 -0.2266 -0.1926
19572TIP3    H180131   2.904   0.001  10.578  0.1009 -1.3503  0.0810
19572TIP3    H280132   2.798  -0.062  10.490 -0.2139  0.4783 -0.9089
19573TIP3   OH280133   6.261   1.168  13.286 -0.4945 -0.4683  0.1439
19573TIP3    H180134   6.242   1.129  13.201  0.2895  0.8753 -0.6961
19573TIP3    H280135   6.274   1.094  13.345 -1.1377 -1.4248 -0.8812
19574TIP3   OH280136   2.651   6.379  12.484  0.3845 -0.3561 -0.3460
19574TIP3    H180137   2.700   6.425  12.415 -0.2046 -2.4084 -2.2574
19574TIP3    H280138   2.561   6.408  12.472 -0.0139 -2.0059 -1.6546
19575TIP3   OH280139   4.487   3.182   3.711  0.1249 -0.6129 -0.3449
19575TIP3    H180140   4.462   3.090   3.699  0.2639 -0.9333  1.4607
19575TIP3    H280141   4.403   3.227   3.727  0.0866 -0.4821 -0.9134
19576TIP3   OH280142   4.738   5.665   3.164  0.4342  0.3328 -0.6579
19576TIP3    H180143   4.720   5.645   3.072  0.6518  0.1853 -0.6692
19576TIP3    H280144   4.733   5.580   3.209 -0.0761  0.4606 -0.4648
19577TIP3   OH280145   1.164   4.864   3.318  0.8118  0.1287  0.6546
19577TIP3    H180146   1.184   4.799   3.250  1.0491 -1.8337  2.5048
19577TIP3    H280147   1.070   4.852   3.336  0.7810  0.5339  0.7742
19578TIP3   OH280148   2.573   1.264  13.641  0.5634  0.1126  1.0081
19578TIP3    H180149   2.555   1.173  13.622  2.4303 -0.3501  1.2187
19578TIP3    H280150   2.555   1.273  13.735 -1.8920  0.6053  0.5408
19579TIP3   OH280151   6.316   6.409  12.656  0.0174  0.7088 -0.2863
19579TIP3    H180152   6.302   6.461  12.577 -0.3839  0.8378 -0.1341
19579TIP3    H280153   6.406   6.428  12.682 -0.1768  1.4776 -0.1322
19580TIP3   OH280154   2.580   4.872   3.916 -0.2951 -0.4772 -0.2998
19580TIP3    H180155   2.587   4.959   3.957 -1.2024 -0.6355  0.2364
19580TIP3    H280156   2.628   4.880   3.834 -0.7103  0.6694 -0.4513
19581TIP3   OH280157   6.065   1.881   2.147 -0.2774 -0.2742 -0.2273
19581TIP3    H180158   6.124   1.810   2.123 -2.2974 -1.4536 -2.0835
19581TIP3    H280159   5.999   1.839   2.203  0.0149  0.7748  0.9380
19582TIP3   OH280160   0.461   3.639  10.578  0.3359 -0.7815 -0.1362
19582TIP3    H180161   0.471   3.620  10.671 -0.3150 -0.2774  0.0439
19582TIP3    H280162   0.487   3.558  10.534  0.0037 -1.2428  0.5081
19583TIP3   OH280163   5.092   0.266  15.713 -0.1382 -0.1735 -0.3141
19583TIP3    H180164   5.137   0.331  15.659 -1.7248  1.1222 -0.1602
19583TIP3    H280165   5.009   0.250  15.667 -0.4852 -0.8443  0.5203
19584TIP3   OH280166   4.959   3.055  15.927  0.4257 -0.5209  0.4449
19584TIP3    H180167   5.050   3.082  15.937  0.3976 -0.1758 -0.1797
19584TIP3    H280168   4.947   2.985  15.991  1.9532 -2.6044 -1.3887
19585TIP3   OH280169   4.078   1.411  13.577 -0.2223 -0.6225  0.5066
19585TIP3    H180170   4.053   1.428  13.668 -2.7271 -0.8498 -0.0540
19585TIP3    H280171   4.095   1.497  13.540 -1.0856 -0.3455  0.7229
19586TIP3   OH280172   4.479   3.295  11.623 -0.4480 -0.1196 -0.3025
19586TIP3    H180173   4.432   3.279  11.542 -1.9737  2.4285 -0.0336
19586TIP3    H280174   4.514   3.210  11.648  1.2799 -0.7947 -4.2711
19587TIP3   OH280175   3.214   2.835  15.558  0.4440 -1.0485 -1.0093
19587TIP3    H180176   3.234   2.771  15.626  0.5282  1.2333  1.2762
19587TIP3    H280177   3.298   2.853  15.516  1.0416 -0.2215  0.4651
19588TIP3   OH280178   0.989   6.231  15.867  0.5632 -0.3472 -0.0960
19588TIP3    H180179   0.967   6.195  15.953 -0.2583 -1.1903 -0.6366
19588TIP3    H280180   0.953   6.320  15.868  0.5959 -0.3380  0.4381
19589TIP3   OH280181   4.614   4.480  16.322 -0.3728  0.1907 -0.4127
19589TIP3    H180182   4.695   4.440  16.354 -1.5298 -2.1229 -0.1104
19589TIP3    H280183   4.631   4.500  16.230  0.7727  0.4130 -0.1618
19590TIP3   OH280184   2.359   4.063  14.486 -0.0393 -0.5758  0.1736
19590TIP3    H180185   2.433   4.082  14.429 -0.1396 -2.6878 -0.7622
19590TIP3    H280186   2.363   4.130  14.554  0.9326  1.1593 -1.5033
19591TIP3   OH280187   2.424   3.157   0.077  0.2609  0.3230  0.1891
19591TIP3    H180188   2.402   3.243   0.042  0.3537  0.1636 -0.2683
19591TIP3    H280189   2.517   3.162   0.098  0.4841  0.0573 -0.6822
19592TIP3   OH280190   4.233   6.326   3.090  0.7839  0.5279  0.6486
19592TIP3    H180191   4.262   6.266   3.158 -1.3174 -0.7356  0.5350
19592TIP3    H280192   4.258   6.282   3.008 -1.1753 -0.5547  0.5510
19593TIP3   OH280193   4.743   6.649   5.667 -0.0792  0.1687 -0.4676
19593TIP3    H180194   4.834   6.638   5.640 -0.3833 -1.1124 -1.0388
19593TIP3    H280195   4.748   6.707   5.743  1.3648 -1.0531  0.4436
19594TIP3   OH280196   2.856   2.705  10.964  0.3754 -0.2712  0.4393
19594TIP3    H180197   2.782   2.684  10.906  0.3530 -1.4000  0.8565
19594TIP3    H280198   2.931   2.664  10.922  0.3655 -1.0677  1.1721
19595TIP3   OH280199   3.164   3.959   1.567  0.1235 -0.0361 -0.0162
19595TIP3    H180200   3.069   3.969   1.574 -0.0856 -2.3916  1.6284
19595TIP3    H280201   3.184   3.976   1.475 -1.7150  1.4492 -0.1983
19596TIP3   OH280202   6.404   1.775   5.479  0.1096 -0.2217 -0.5847
19596TIP3    H180203   6.395   1.866   5.452 -1.2835  0.0444  0.6556
19596TIP3    H280204   6.405   1.778   5.575 -0.2667 -1.5273 -0.5184
19597TIP3   OH280205   4.227   0.197   5.275  0.1219  0.0661 -0.6414
19597TIP3    H180206   4.134   0.176   5.278 -0.4456  1.5989 -3.4611
19597TIP3    H280207   4.271   0.113   5.281 -1.5526 -0.9215 -1.4847
19598TIP3   OH280208   6.333   6.487   3.073  0.0048  0.0898 -0.5192
19598TIP3    H180209   6.383   6.425   3.127 -0.4810  0.8599  0.8606
19598TIP3    H280210   6.308   6.557   3.134 -0.0772  1.2857 -1.8846
19599TIP3   OH280211   0.815   1.480  16.117  0.1347 -0.1091  0.2612
19599TIP3    H180212   0.777   1.402  16.157  0.9890 -1.0330 -0.6828
19599TIP3    H280213   0.905   1.482  16.148 -0.3266  1.5163  1.6839
19600TIP3   OH280214   0.662   3.052   1.069 -0.0130  0.6249  0.0458
19600TIP3    H180215   0.705   3.034   0.986  1.7540  0.4595  0.9410
19600TIP3    H280216   0.731   3.039   1.135 -1.9962 -2.1051  1.8260
19601TIP3   OH280217   1.243   3.675   2.242 -0.1847  0.1620  0.4096
19601TIP3    H180218   1.234   3.748   2.181 -2.2245 -0.5524 -0.2064
19601TIP3    H280219   1.157   3.666   2.282  0.3862 -1.0931  1.4438
19602TIP3   OH280220   2.809   2.170  11.479  0.2788 -0.6160  0.1015
19602TIP3    H180221   2.807   2.116  11.400  1.3769 -1.3007  0.5221
19602TIP3    H280222   2.717   2.188  11.497 -0.0588 -1.4699 -0.6528
19603TIP3   OH280223   3.833   0.798   0.113  0.7024 -0.4015 -0.2297
19603TIP3    H180224   3.841   0.839   0.027  1.4514 -0.7494 -0.3357
19603TIP3    H280225   3.923   0.773   0.136  0.5837  0.1050  0.8607
19604TIP3   OH280226   1.020   5.581   4.102  0.0442 -0.0940 -0.6039
19604TIP3    H180227   1.088   5.616   4.045  2.3966 -0.5960  1.6681
19604TIP3    H280228   1.047   5.491   4.119 -1.2783 -0.3516  0.2549
19605TIP3   OH280229   2.776   6.163  15.600 -0.2097 -0.2987 -0.2346
19605TIP3    H180230   2.772   6.135  15.508 -0.5473  0.9607 -0.6257
19605TIP3    H280231   2.837   6.237  15.599  0.5222 -0.8689  0.7289
19606TIP3   OH280232   2.455   6.226   2.577  0.6146  0.1453 -0.6370
19606TIP3    H180233   2.393   6.281   2.528  1.6452  2.1389  0.2117
19606TIP3    H280234   2.399   6.169   2.630 -0.5073  1.0220 -0.8280
19607TIP3   OH280235   1.094   2.425  14.316 -0.2721 -0.0941  0.1449
19607TIP3    H180236   1.152   2.349  14.311 -2.5193 -1.9623  0.4600
19607TIP3    H280237   1.075   2.435  14.409 -0.6142  0.3476  0.0325
19608TIP3   OH280238   1.977   4.631   3.681  0.4868 -0.2215  0.1485
19608TIP3    H180239   2.031   4.619   3.759  0.0183  0.6711  0.6220
19608TIP3    H280240   1.931   4.714   3.696  0.4051 -0.0301 -1.0834
19609TIP3   OH280241   5.430   5.486  12.164 -0.3474  0.0505 -0.5490
19609TIP3    H180242   5.505   5.485  12.224 -0.9521 -1.6996  0.2495
19609TIP3    H280243   5.467   5.514  12.080  0.9747  0.3064  0.0914
19610TIP3   OH280244   0.368   4.134  13.747 -0.1564 -0.1995 -0.1339
19610TIP3    H180245   0.416   4.186  13.683  0.6323  1.4060  1.6630
19610TIP3    H280246   0.316   4.198  13.796  0.4518 -1.1468  1.8196
19611TIP3   OH280247   6.568   0.713   3.343 -0.1152  0.6255  0.2092
19611TIP3    H180248   6.635   0.729   3.276 -0.1579 -2.5124 -0.7347
19611TIP3    H280249   6.616   0.717   3.426  0.9374  0.0357 -0.3500
19612TIP3   OH280250   4.752   6.639   3.293  0.0034  0.6690  0.0603
19612TIP3    H180251   4.725   6.730   3.303 -0.0860  0.5921  0.5620
19612TIP3    H280252   4.757   6.606   3.383 -0.5799  0.0052 -0.1438
19613TIP3   OH280253   4.921   5.914  16.278 -0.6132  0.9766  0.1175
19613TIP3    H180254   4.904   5.836  16.226 -3.4463  1.6475 -0.1398
19613TIP3    H280255   4.995   5.890  16.334 -2.9228 -2.8865  1.9369
19614TIP3   OH280256   3.084   2.246   0.161 -0.7141 -0.2804 -0.0863
19614TIP3    H180257   3.153   2.271   0.222 -0.2302 -0.6495 -0.4772
19614TIP3    H280258   3.010   2.221   0.218 -0.0573 -1.2604  0.3807
19615TIP3   OH280259   1.725   0.339   3.569  0.3598 -0.2937 -0.1376
19615TIP3    H180260   1.694   0.288   3.644  0.5096 -1.2140 -0.6924
19615TIP3    H280261   1.645   0.369   3.526  0.2515 -1.0591 -0.4789
19616TIP3   OH280262   5.392   5.057   5.072 -0.2949  0.6796  0.1657
19616TIP3    H180263   5.343   5.087   5.148  0.2308 -3.0983  2.2155
19616TIP3    H280264   5.344   4.981   5.041  2.0413 -0.7121 -0.2679
19617TIP3   OH280265   1.748   6.550   2.056  0.1885  0.5392  0.4751
19617TIP3    H180266   1.799   6.568   2.134  3.2076  0.7120 -1.3821
19617TIP3    H280267   1.750   6.632   2.006 -0.1220 -0.0911 -0.6071
19618TIP3   OH280268   4.135   3.932  13.713 -0.2323  0.2691 -0.4052
19618TIP3    H180269   4.221   3.893  13.699  0.1081  0.6561  0.5176
19618TIP3    H280270   4.109   3.966  13.628 -0.3872 -1.6355 -1.1672
19619TIP3   OH280271   6.267   1.426  11.964 -0.1755  0.4466  0.9969
19619TIP3    H180272   6.284   1.386  12.049 -0.0678  1.1391  1.3075
19619TIP3    H280273   6.226   1.510  11.985 -1.7539 -0.1225  0.3260
19620TIP3   OH280274   1.444   3.791   5.453  0.2578 -0.2936  0.3374
19620TIP3    H180275   1.506   3.816   5.521  1.0133  0.9565 -0.7416
19620TIP3    H280276   1.366   3.843   5.471  0.6378  0.4164 -0.0125
19621TIP3   OH280277   1.191   3.973  12.924 -0.4327  0.0090 -0.8702
19621TIP3    H180278   1.174   4.046  12.984 -1.1002  0.5150 -1.6414
19621TIP3    H280279   1.223   3.902  12.980  0.1007  0.8471 -0.0881
19622TIP3   OH280280   6.498   6.781   3.798  0.3917 -0.2111  0.6810
19622TIP3    H180281   6.489   6.746   3.886 -0.8942 -1.3068  0.1501
19622TIP3    H280282   6.427   6.741   3.748  2.3089 -1.2935 -1.3872
19623TIP3   OH280283   4.845   6.112  13.221 -0.4418  0.0140  0.1478
19623TIP3    H180284   4.820   6.084  13.133  0.3002  0.4977 -0.2334
19623TIP3    H280285   4.862   6.030  13.268 -1.3527 -0.2664  0.0102
19624TIP3   OH280286   4.254   3.566   4.180  0.9206 -0.0492  0.4490
19624TIP3    H180287   4.347   3.560   4.160  0.9327 -1.0061  0.7166
19624TIP3    H280288   4.247   3.538   4.271  0.3428 -0.2596  0.3467
19625TIP3   OH280289   4.778   6.394  16.159  0.1500  0.2433 -0.1509
19625TIP3    H180290   4.696   6.381  16.208  0.9234  0.4520  1.2610
19625TIP3    H280291   4.789   6.313  16.109  0.1739 -0.7098  1.3379
19626TIP3   OH280292   5.767   0.921  11.819  0.5105  0.0762  0.4135
19626TIP3    H180293   5.821   0.948  11.893 -0.0792  1.0631  0.5027
19626TIP3    H280294   5.706   0.856  11.855  0.0172  0.7866  0.8802
19627TIP3   OH280295   6.680   2.435  14.369 -0.2125  0.0789  0.1076
19627TIP3    H180296   6.705   2.397  14.285  1.2753  0.0706  0.5327
19627TIP3    H280297   6.751   2.412  14.429 -2.1082 -1.5724  1.8996
19628TIP3   OH280298   2.472   3.886  12.345  0.3014  0.1481  0.2211
19628TIP3    H180299   2.401   3.861  12.286 -0.5652  1.0329  0.8558
19628TIP3    H280300   2.534   3.933  12.288  1.2623 -2.0670 -0.6824
19629TIP3   OH280301   5.559   2.549  12.535  0.2188  0.0957 -0.9941
19629TIP3    H180302   5.553   2.455  12.551 -0.0129  0.1673 -0.6446
19629TIP3    H280303   5.551   2.589  12.622 -3.2536  0.6213 -1.4350
19630TIP3   OH280304   0.583   0.324   0.165 -0.3567 -0.1171  0.0933
19630TIP3    H180305   0.543   0.352   0.247 -0.8834  0.6609 -0.4240
19630TIP3    H280306   0.666   0.372   0.162  0.4328 -1.3574  0.9248
19631TIP3   OH280307   3.391   2.776  16.711  0.0470  0.4436 -0.1841
19631TIP3    H180308   3.354   2.768  16.799 -0.4119  0.5252 -0.3666
19631TIP3    H280309   3.445   2.856  16.715  0.0397  0.4384  0.0270
19632TIP3   OH280310   3.282   3.514   6.232 -0.1632  0.0948  0.4260
19632TIP3    H180311   3.315   3.425   6.241 -0.1745 -0.3217 -2.5899
19632TIP3    H280312   3.351   3.561   6.186 -1.4549  0.7399 -0.9175
19633TIP3   OH280313   5.682   2.597  11.870  0.0673 -0.0063 -0.2204
19633TIP3    H180314   5.749   2.597  11.801  1.9845  3.4349  1.3677
19633TIP3    H280315   5.630   2.676  11.852 -0.1173  0.3159  1.5793
19634TIP3   OH280316   0.346   0.375  12.611 -0.1128 -0.5526  0.5550
19634TIP3    H180317   0.346   0.425  12.529  1.8362 -1.4099 -0.0200
19634TIP3    H280318   0.283   0.305  12.596 -1.9892  0.9695  0.9342
19635TIP3   OH280319   6.621   1.083   6.411 -0.0473 -0.4164 -0.3670
19635TIP3    H180320   6.583   1.067   6.498 -0.5894 -2.8954 -0.9803
19635TIP3    H280321   6.546   1.108   6.357  0.2842  1.0844 -0.1816
19636TIP3   OH280322   6.127   0.180   0.335 -0.2804 -0.6102 -0.2848
19636TIP3    H180323   6.058   0.125   0.372  0.7607 -0.9598  1.2454
19636TIP3    H280324   6.137   0.252   0.397  0.8866 -0.7001 -0.3407
19637TIP3   OH280325   0.424   4.267   1.735  0.4400 -0.2812  0.0887
19637TIP3    H180326   0.388   4.325   1.802  1.1097 -1.5668  1.6312
19637TIP3    H280327   0.498   4.316   1.698  1.2327 -0.2692  1.6306
19638TIP3   OH280328   2.013   2.213  15.928  0.4374  0.5244 -0.0889
19638TIP3    H180329   1.928   2.211  15.973  0.1534 -2.6619 -0.5443
19638TIP3    H280330   1.995   2.258  15.845 -0.5983  0.6972  0.2158
19639TIP3   OH280331   1.152   5.569  11.368 -0.4102 -0.4472  0.3579
19639TIP3    H180332   1.063   5.557  11.335 -0.3558 -0.0487  0.0573
19639TIP3    H280333   1.207   5.566  11.290 -0.4090  1.9218  0.2206
19640TIP3   OH280334   6.212   1.149   3.381  0.0746  0.3653  0.1986
19640TIP3    H180335   6.268   1.073   3.367  0.3153  0.7397 -0.9463
19640TIP3    H280336   6.127   1.112   3.405  0.7685 -0.2073  1.9520
19641TIP3   OH280337   0.138   6.329  13.171 -0.2400 -0.0968 -0.2624
19641TIP3    H180338   0.182   6.371  13.097 -1.8592  0.8191 -0.7642
19641TIP3    H280339   0.186   6.359  13.248 -1.6578  3.3038 -0.5321
19642TIP3   OH280340   5.546   1.740  14.870  0.6076  0.5070  0.4589
19642TIP3    H180341   5.638   1.750  14.845  0.7185  2.0659  1.3510
19642TIP3    H280342   5.547   1.733  14.965 -0.0709 -1.7381  0.3516
19643TIP3   OH280343   5.277   6.409  14.754  0.1885 -0.2891  0.1494
19643TIP3    H180344   5.293   6.485  14.811 -0.4835 -1.2094  1.6319
19643TIP3    H280345   5.228   6.348  14.809  0.8021 -1.8598 -0.9731
19644TIP3   OH280346   4.438   1.237   2.021  0.2258  0.2232 -0.4664
19644TIP3    H180347   4.445   1.141   2.016  2.0969  0.3743 -2.6217
19644TIP3    H280348   4.447   1.266   1.930  2.6177  2.5485  0.3826
19645TIP3   OH280349   0.965   4.922   3.033  0.4161  0.2937 -0.6723
19645TIP3    H180350   0.946   4.970   3.114  0.7374  0.8533 -0.9194
19645TIP3    H280351   0.886   4.870   3.017  0.0427  0.7684 -0.4148
19646TIP3   OH280352   3.464   5.304   5.038  0.1523 -0.1133  0.1157
19646TIP3    H180353   3.494   5.317   4.948 -0.3319  0.7675  0.0729
19646TIP3    H280354   3.411   5.224   5.034  1.0311 -0.7012 -0.1494
19647TIP3   OH280355   2.098   4.358  11.242  0.3342 -0.6404 -0.3026
19647TIP3    H180356   2.144   4.420  11.298  0.2291  2.0106 -2.8936
19647TIP3    H280357   2.166   4.297  11.213  1.1309  0.1370 -0.1001
19648TIP3   OH280358   5.327   3.208  16.023 -0.1073  0.8295 -0.0176
19648TIP3    H180359   5.374   3.266  16.083 -0.4052  2.6195 -1.4174
19648TIP3    H280360   5.234   3.220  16.045 -0.1153 -1.0449  1.2856
19649TIP3   OH280361   1.043   2.678   3.460  0.0444 -0.1995 -0.7632
19649TIP3    H180362   1.108   2.705   3.524 -0.4974  1.1992 -0.7838
19649TIP3    H280363   0.959   2.688   3.505 -0.3440  0.7869 -1.6791
19650TIP3   OH280364   1.361   1.649  11.673  0.8888  0.5755 -0.7290
19650TIP3    H180365   1.423   1.621  11.740 -0.7901 -1.7298 -0.0185
19650TIP3    H280366   1.275   1.626  11.708 -0.3962  3.1076 -1.9290
19651TIP3   OH280367   5.273   2.358  11.566  0.3237 -0.2513 -0.0222
19651TIP3    H180368   5.201   2.410  11.603  0.4785  0.3447 -0.5394
19651TIP3    H280369   5.254   2.269  11.594 -1.7846 -0.4735 -1.8761
19652TIP3   OH280370   0.963   5.417  15.910  0.4069  0.1654  0.0907
19652TIP3    H180371   1.035   5.371  15.954 -0.5758 -1.3857  0.1697
19652TIP3    H280372   0.913   5.458  15.981  1.5693  1.8501 -0.0184
19653TIP3   OH280373   6.272   6.473   2.493  0.5243  0.0917  0.0043
19653TIP3    H180374   6.365   6.489   2.508  1.0514 -2.3165 -0.3307
19653TIP3    H280375   6.230   6.492   2.577  1.8765 -2.3482  1.3237
19654TIP3   OH280376   3.444   4.153  11.413 -0.2424 -1.0597  0.3384
19654TIP3    H180377   3.353   4.180  11.424 -0.2797 -1.1689  0.3022
19654TIP3    H280378   3.440   4.079  11.352 -0.0281 -0.4074 -0.4759
19655TIP3   OH280379   4.634   0.279   0.344  0.3154  0.0184 -0.7119
19655TIP3    H180380   4.618   0.229   0.424 -1.1445 -0.4580 -1.2607
19655TIP3    H280381   4.610   0.368   0.367  2.8436  0.5450  0.2453
19656TIP3   OH280382   2.568   4.260   2.101  0.3857  0.0939 -0.2438
19656TIP3    H180383   2.658   4.251   2.070  0.2966  0.6730 -0.7105
19656TIP3    H280384   2.543   4.173   2.130  0.9342 -0.1761 -0.5682
19657TIP3   OH280385   4.198   4.979  12.695  0.5974  0.0765 -0.2299
19657TIP3    H180386   4.180   4.900  12.745 -0.4827 -0.2330 -1.0825
19657TIP3    H280387   4.170   4.959  12.606  1.7046  0.9085 -0.7979
19658TIP3   OH280388   6.560   3.698  12.629  0.2583  0.1772 -0.4226
19658TIP3    H180389   6.609   3.620  12.656  0.8190  0.7281  0.1781
19658TIP3    H280390   6.559   3.694  12.533  0.1847 -0.6204 -0.3970
19659TIP3   OH280391   3.163   5.730  12.710 -0.2978  0.3020 -0.6242
19659TIP3    H180392   3.171   5.640  12.742  0.3710  0.2902 -0.8026
19659TIP3    H280393   3.175   5.784  12.788 -2.4715  0.2340 -0.1827
19660TIP3   OH280394   6.393   5.733   1.559  0.7105 -0.0724 -0.4288
19660TIP3    H180395   6.471   5.787   1.572  2.3841 -2.2056 -1.1653
19660TIP3    H280396   6.408   5.655   1.612 -1.2533 -0.2646 -0.0810
19661TIP3   OH280397   4.523   1.306   1.767  0.7994  0.8747 -0.2064
19661TIP3    H180398   4.534   1.385   1.715  1.1309  0.5653 -0.6052
19661TIP3    H280399   4.543   1.234   1.708 -0.7698  0.4150 -0.2107
19662TIP3   OH280400   5.366   4.084  13.885 -0.3230  0.3867 -0.1184
19662TIP3    H180401   5.412   4.120  13.961 -1.5854  1.0403  0.3641
19662TIP3    H280402   5.362   3.990  13.902  0.4728  0.3736  0.0216
19663TIP3   OH280403   4.513   0.264  16.862  0.0831 -0.1318 -0.2602
19663TIP3    H180404   4.443   0.298  16.918  0.5105 -0.7363  0.6659
19663TIP3    H280405   4.567   0.340  16.842 -0.6013  0.2621 -0.6354
19664TIP3   OH280406   0.012   0.736   2.118  0.3865  0.0057 -0.1765
19664TIP3    H180407  -0.028   0.649   2.110 -1.0821  0.7717 -2.0513
19664TIP3    H280408   0.018   0.751   2.212  0.0433 -1.8480  0.1814
19665TIP3   OH280409   0.270   5.187  13.313  0.9612  0.4852 -0.6847
19665TIP3    H180410   0.262   5.270  13.266  0.8321 -0.5032 -2.5035
19665TIP3    H280411   0.202   5.132  13.274  0.1745 -0.1060  1.3876
19666TIP3   OH280412   1.061   2.451  14.643 -0.1528 -0.2662 -0.4127
19666TIP3    H180413   1.123   2.386  14.610 -0.1961 -0.2381 -0.5458
19666TIP3    H280414   1.115   2.525  14.668 -0.1133 -0.3150 -0.3511
19667TIP3   OH280415   3.435   0.467   3.079 -0.2613 -0.1112 -0.5149
19667TIP3    H180416   3.351   0.439   3.116  0.0936 -1.0600 -0.3858
19667TIP3    H280417   3.497   0.461   3.152  0.2668 -1.1489 -1.0248
19668TIP3   OH280418   6.588   5.357  13.786  0.2398 -0.1531  0.0540
19668TIP3    H180419   6.514   5.297  13.778  0.2346 -0.3672  1.4569
19668TIP3    H280420   6.548   5.442  13.806  0.3245 -0.0697 -0.1320
19669TIP3   OH280421   2.895   4.065   4.380 -0.0916  0.4203  0.1859
19669TIP3    H180422   2.942   4.110   4.451 -0.0433  1.3706 -0.4319
19669TIP3    H280423   2.950   3.989   4.360  1.5666  1.8347 -0.9417
19670TIP3   OH280424   5.752   4.107  13.427  0.3209 -0.2977  0.1079
19670TIP3    H180425   5.835   4.135  13.466  0.7590 -1.1096 -0.2139
19670TIP3    H280426   5.687   4.165  13.466  0.8919 -0.3292  1.1545
19671TIP3   OH280427   1.998   6.351  10.755 -0.1669 -0.0005 -0.0769
19671TIP3    H180428   1.962   6.264  10.767  1.4510 -0.8954 -1.2905
19671TIP3    H280429   2.040   6.348  10.669 -0.0172  1.9663 -0.1237
19672TIP3   OH280430   0.881   5.566   3.706  0.1350 -0.0429  0.9564
19672TIP3    H180431   0.786   5.569   3.722  0.1641 -1.3245  1.5026
19672TIP3    H280432   0.911   5.654   3.725 -0.7335 -0.0090  2.2875
19673TIP3   OH280433   6.435   4.303   5.412 -0.0233  0.0199 -0.7690
19673TIP3    H180434   6.505   4.247   5.380  0.0449 -0.8646  0.8185
19673TIP3    H280435   6.476   4.357   5.480 -1.1976 -1.8307  1.5403
19674TIP3   OH280436   0.258   5.565  14.148 -0.4631  0.1508  0.1707
19674TIP3    H180437   0.298   5.483  14.120  0.1214  0.8106 -1.0327
19674TIP3    H280438   0.327   5.611  14.197  0.4676  1.4232 -2.1661
19675TIP3   OH280439   0.237   0.198   5.228 -0.6122  0.2992 -0.8929
19675TIP3    H180440   0.263   0.122   5.281 -1.9685  1.2471  1.2565
19675TIP3    H280441   0.320   0.236   5.199  0.2358 -0.0989  0.8489
19676TIP3   OH280442   0.714   6.755   2.327 -0.1296 -0.1026 -0.0597
19676TIP3    H180443   0.757   6.670   2.324  0.1464 -0.0024  0.7896
19676TIP3    H280444   0.785   6.819   2.319 -0.2862  0.0578 -0.2022
19677TIP3   OH280445   5.517   2.829   4.518  0.1574  0.0064  0.2678
19677TIP3    H180446   5.445   2.859   4.463 -1.5661 -1.9100  1.3457
19677TIP3    H280447   5.585   2.894   4.506 -1.2052  1.1331 -1.9244
19678TIP3   OH280448   0.302   0.996  11.371  0.1792  0.2875  0.1495
19678TIP3    H180449   0.239   0.955  11.313 -0.9886  2.2519 -0.0738
19678TIP3    H280450   0.386   0.959  11.346 -0.4122  0.3657 -2.1563
19679TIP3   OH280451   2.528   0.778   6.348  0.2711 -0.0909  0.3142
19679TIP3    H180452   2.468   0.851   6.360  1.1254  0.5159  1.0764
19679TIP3    H280453   2.477   0.711   6.304 -0.8287  0.5758  0.5472
19680TIP3   OH280454   2.164   6.049   2.308 -0.0876 -0.0434  0.0684
19680TIP3    H180455   2.098   6.073   2.373 -2.1618  0.9380 -2.2537
19680TIP3    H280456   2.215   6.130   2.295  1.2923 -0.6496  1.4670
19681TIP3   OH280457   0.197   6.116   4.268 -0.3298  0.0557  0.3734
19681TIP3    H180458   0.238   6.092   4.185  0.0971 -0.2851  0.6720
19681TIP3    H280459   0.264   6.096   4.334 -0.7480  0.0948  0.8182
19682TIP3   OH280460   2.651   5.893  16.886  0.1971 -0.1241  0.2741
19682TIP3    H180461   2.693   5.875  16.802  0.4739 -0.9317  0.5771
19682TIP3    H280462   2.723   5.916  16.945 -0.1663  2.6066 -0.1991
19683TIP3   OH280463   2.247   0.138   5.306 -0.0396 -0.8989 -0.4668
19683TIP3    H180464   2.281   0.132   5.395 -2.4145 -1.5337  0.4806
19683TIP3    H280465   2.238   0.232   5.290 -1.2757 -0.7821  0.7146
19684TIP3   OH280466   3.119   1.414   0.089  0.2930  0.1831  0.3141
19684TIP3    H180467   3.084   1.340   0.138  1.6985  0.4492  1.8118
19684TIP3    H280468   3.190   1.377   0.036  1.1937  0.4528  1.2852
19685TIP3   OH280469   0.685   0.691  11.539  0.0670 -0.6126  0.4172
19685TIP3    H180470   0.697   0.596  11.550  1.5995 -0.4219  0.5768
19685TIP3    H280471   0.607   0.711  11.590 -0.3548 -1.8151  0.2719
19686TIP3   OH280472   0.603   6.133  11.345 -0.1626  0.6928  0.3216
19686TIP3    H180473   0.629   6.045  11.373 -0.8084  0.0283 -1.0772
19686TIP3    H280474   0.656   6.150  11.267 -1.5076  0.7037 -0.6043
19687TIP3   OH280475   1.316   1.460  11.053  0.1520 -0.3813 -0.1657
19687TIP3    H180476   1.238   1.421  11.092 -0.4979  0.1714 -0.8920
19687TIP3    H280477   1.326   1.415  10.968 -1.2956  1.7776 -1.5592
19688TIP3   OH280478   1.776   4.401   5.695  0.3151 -0.2487 -0.2963
19688TIP3    H180479   1.755   4.426   5.785  0.8533  1.3766 -0.5916
19688TIP3    H280480   1.741   4.472   5.642  0.2439 -1.0635 -1.3546
19689TIP3   OH280481   6.375   5.520   0.824 -0.0477  0.1107  0.1814
19689TIP3    H180482   6.353   5.520   0.917  0.2108  1.0951  0.2569
19689TIP3    H280483   6.317   5.586   0.785 -0.6689 -0.8158 -0.4950
19690TIP3   OH280484   5.250   2.520  15.854 -0.8661  0.0809  0.5893
19690TIP3    H180485   5.280   2.525  15.945 -0.9345  1.1741  0.5661
19690TIP3    H280486   5.155   2.508  15.860 -1.4019  3.4022  0.7416
19691TIP3   OH280487   6.183   5.103  12.020  0.3941  0.1800  0.3466
19691TIP3    H180488   6.101   5.122  11.974 -0.2895 -0.3928  1.3109
19691TIP3    H280489   6.172   5.014  12.054  2.1132 -0.6115 -0.9925
19692TIP3   OH280490   2.075   0.680   0.219 -0.4496  0.4124 -0.4204
19692TIP3    H180491   2.058   0.709   0.130 -3.1543 -0.6865 -0.3818
19692TIP3    H280492   2.064   0.758   0.273 -0.1828  0.8087 -0.9429
19693TIP3   OH280493   5.175   2.165   1.426 -0.5640  0.4140 -0.5692
19693TIP3    H180494   5.222   2.099   1.375 -0.7232 -1.3508  1.4175
19693TIP3    H280495   5.090   2.173   1.382 -0.0101  0.3971 -1.6742
19694TIP3   OH280496   2.384   1.780   5.635  0.2281  0.1922  0.2201
19694TIP3    H180497   2.295   1.813   5.636  0.0737 -0.1947 -0.2548
19694TIP3    H280498   2.397   1.741   5.722  0.7648  2.3598  1.1752
19695TIP3   OH280499   4.880   6.724  15.648  0.1936 -0.1190  0.0156
19695TIP3    H180500   4.874   6.817  15.627  0.3073 -0.0685  0.1998
19695TIP3    H280501   4.805   6.684  15.604 -1.4727  0.4649  2.1553
19696TIP3   OH280502   3.836   0.721   5.569  0.4983 -0.2578  0.0310
19696TIP3    H180503   3.794   0.674   5.641 -1.2630  0.3607 -0.5300
19696TIP3    H280504   3.882   0.794   5.612 -0.6550  0.1954  0.5512
19697TIP3   OH280505   4.973   3.179   2.419  0.1151  0.3400 -0.2046
19697TIP3    H180506   5.031   3.185   2.495  0.6887  1.4749 -0.7183
19697TIP3    H280507   5.022   3.219   2.347 -0.3121 -0.9556 -1.2550
19698TIP3   OH280508   0.912   3.945   3.143  0.0608 -0.0720 -0.4521
19698TIP3    H180509   0.980   3.880   3.159 -0.3614 -0.6789 -1.0652
19698TIP3    H280510   0.923   4.009   3.214  1.1740 -0.2212 -0.4742
19699TIP3   OH280511   1.367   5.909   2.740 -0.3576 -0.0212 -0.2866
19699TIP3    H180512   1.443   5.852   2.752  0.2576  1.0886  1.4052
19699TIP3    H280513   1.292   5.854   2.764 -0.1549 -1.1543 -2.0544
19700TIP3   OH280514   3.551   3.956  16.816  0.0378 -0.0370  0.6677
19700TIP3    H180515   3.584   4.043  16.795  0.3965 -0.5699 -1.1647
19700TIP3    H280516   3.455   3.965  16.813  0.0297  0.6280  2.1146
19701TIP3   OH280517   5.131   6.109   6.203  0.0226  0.1389  0.2004
19701TIP3    H180518   5.051   6.115   6.256  0.5204  0.4186  0.9305
19701TIP3    H280519   5.103   6.064   6.123 -0.5827 -0.9279  0.9910
19702TIP3   OH280520   1.429   2.039  12.357  0.2086  0.4688 -0.3302
19702TIP3    H180521   1.394   1.969  12.302  0.9425  1.4447 -2.1418
19702TIP3    H280522   1.439   2.113  12.297  1.3417  1.5069  1.0814
19703TIP3   OH280523   1.052   6.654  11.678  0.4044  0.3463  0.1698
19703TIP3    H180524   0.968   6.699  11.669  0.6382  0.3557 -2.5676
19703TIP3    H280525   1.117   6.719  11.653  1.2286  0.0973  1.5278
19704TIP3   OH280526   3.699   4.440  15.885 -0.1422  0.4901 -0.2769
19704TIP3    H180527   3.608   4.469  15.893 -0.1489  0.5629 -0.6093
19704TIP3    H280528   3.748   4.499  15.943 -0.7131 -1.6301  2.5892
19705TIP3   OH280529   3.654   0.592  17.092 -0.0812 -0.1632 -0.3338
19705TIP3    H180530   3.689   0.681  17.096  0.6781 -0.4825  0.6143
19705TIP3    H280531   3.630   0.571  17.183  0.2801 -1.1178 -0.4432
19706TIP3   OH280532   3.441   3.866   6.093  0.2757  0.2195 -0.5027
19706TIP3    H180533   3.402   3.786   6.058 -0.2455 -0.1476  0.8557
19706TIP3    H280534   3.529   3.840   6.120  0.5658  0.4290 -1.2131
19707TIP3   OH280535   3.640   3.861  16.197  0.1139  0.2539 -0.3213
19707TIP3    H180536   3.567   3.868  16.136  0.3063  0.1365 -0.5698
19707TIP3    H280537   3.668   3.769  16.191 -0.4595 -0.0009  0.6371
19708TIP3   OH280538   6.323   2.398   1.362  0.0326 -0.6347 -0.4779
19708TIP3    H180539   6.263   2.329   1.390  0.9713 -1.4603 -0.4477
19708TIP3    H280540   6.308   2.407   1.268 -1.5825  0.6236 -0.1544
19709TIP3   OH280541   0.951   4.774   2.148 -0.2868 -0.5300  0.0139
19709TIP3    H180542   1.014   4.799   2.080  0.4200  2.7806  1.6757
19709TIP3    H280543   0.866   4.795   2.109  0.1152  1.4696  0.0824
19710TIP3   OH280544   2.991   0.245  13.747 -0.5287 -0.2450  0.2550
19710TIP3    H180545   3.052   0.298  13.798 -0.6348 -0.6108  0.7671
19710TIP3    H280546   2.908   0.291  13.754  0.3611  2.6054 -3.7940
19711TIP3   OH280547   0.884   6.441  11.381 -0.5676  0.0591  0.0853
19711TIP3    H180548   0.819   6.458  11.313  0.7551  1.7985 -0.8440
19711TIP3    H280549   0.939   6.371  11.346 -0.9101 -0.2276  0.1220
19712TIP3   OH280550   4.221   4.601  15.111  0.1897 -0.1636 -0.0601
19712TIP3    H180551   4.166   4.523  15.115  0.7890 -0.5856  0.0504
19712TIP3    H280552   4.305   4.573  15.146  0.2892  0.6387  0.3662
19713TIP3   OH280553   2.899   2.113  13.592 -0.2127 -0.2472 -0.2063
19713TIP3    H180554   2.860   2.119  13.505  0.4970 -0.6565 -0.5587
19713TIP3    H280555   2.845   2.172  13.646 -0.4846  0.2320 -0.9769
19714TIP3   OH280556   6.521   0.210   2.712 -0.2939  0.1434  0.3752
19714TIP3    H180557   6.506   0.301   2.738 -1.9518  0.3106 -0.9524
19714TIP3    H280558   6.434   0.178   2.688  0.6544 -0.8777 -1.9687
19715TIP3   OH280559   5.835   6.262  14.387  0.3941 -0.3356 -0.0244
19715TIP3    H180560   5.768   6.217  14.440 -0.5346 -0.3323 -1.1646
19715TIP3    H280561   5.792   6.279  14.304  0.8376  2.3628  0.2285
19716TIP3   OH280562   4.395   6.013  12.345  0.2473 -0.6913 -0.2831
19716TIP3    H180563   4.361   5.986  12.430  0.4715  0.7226  0.2814
19716TIP3    H280564   4.490   6.004  12.352  0.4694  1.5037  0.4441
19717TIP3   OH280565   5.462   1.361   0.809 -0.5010 -0.2780 -0.3338
19717TIP3    H180566   5.389   1.387   0.753  0.0729  0.9531 -0.5377
19717TIP3    H280567   5.423   1.347   0.895 -0.9368  0.7307 -0.3527
19718TIP3   OH280568   4.042   3.994  13.346  0.1701  0.3218  0.0537
19718TIP3    H180569   3.980   3.931  13.383  1.6002 -0.3022  1.5589
19718TIP3    H280570   3.991   4.074  13.335 -0.7510  0.0550  1.9405
19719TIP3   OH280571   1.986   2.583   0.181 -0.5586  0.0866 -0.0863
19719TIP3    H180572   2.016   2.493   0.196  3.8218  1.0406 -1.6076
19719TIP3    H280573   1.921   2.575   0.111  1.6611 -1.8516 -2.1328
19720TIP3   OH280574   4.828   4.355  16.854 -0.1970  0.2418  0.3839
19720TIP3    H180575   4.847   4.278  16.801 -2.8853 -0.0197 -0.3438
19720TIP3    H280576   4.906   4.366  16.908  1.9287 -0.6054 -2.2364
19721TIP3   OH280577   2.338   1.889   2.172 -0.3488 -0.8032  0.4111
19721TIP3    H180578   2.300   1.884   2.085  1.6785 -3.0531 -0.4694
19721TIP3    H280579   2.265   1.873   2.232 -1.5447 -0.5064 -0.9168
19722TIP3   OH280580   4.113   4.159   3.478  0.2185  0.1757 -0.2462
19722TIP3    H180581   4.140   4.104   3.552  1.1781  1.3160  0.2989
19722TIP3    H280582   4.072   4.236   3.520  1.6828  1.3125 -0.8193
19723TIP3   OH280583   2.877   1.974   4.362 -0.0308 -0.1788  0.2437
19723TIP3    H180584   2.781   1.982   4.362  0.0614  3.5983  2.4609
19723TIP3    H280585   2.897   1.944   4.451  0.8501  1.8958  0.7908
19724TIP3   OH280586   1.152   0.047   2.986 -0.4099  0.4582  0.1430
19724TIP3    H180587   1.059   0.054   3.003 -0.5504  0.6765 -0.6747
19724TIP3    H280588   1.183   0.138   2.982  0.0199  0.3793  1.3279
19725TIP3   OH280589   0.195   1.371  13.241 -0.4809 -0.4023 -0.0017
19725TIP3    H180590   0.237   1.321  13.311 -1.4815  0.8137  1.5516
19725TIP3    H280591   0.147   1.306  13.190  1.7844 -1.5682 -0.7495
19726TIP3   OH280592   2.277   2.919  12.471 -0.8145  0.3994 -0.1969
19726TIP3    H180593   2.353   2.883  12.516 -0.6750  0.7834 -0.1210
19726TIP3    H280594   2.208   2.854  12.486 -1.3465  1.4135  2.2938
19727TIP3   OH280595   5.571   0.809   0.026 -0.3745 -0.1505 -0.1514
19727TIP3    H180596   5.607   0.736   0.075  0.3626  0.8577  0.8779
19727TIP3    H280597   5.497   0.840   0.079 -1.8715 -1.2626 -1.4984
19728TIP3   OH280598   0.084   4.908   3.044  0.0583  0.0772 -0.3675
19728TIP3    H180599   0.083   4.995   3.083  3.5893 -0.0074  0.2875
19728TIP3    H280600   0.034   4.853   3.104  0.6911  1.0356  1.0907
19729TIP3   OH280601   5.160   5.757   4.832 -0.1477  0.1992 -0.0972
19729TIP3    H180602   5.192   5.750   4.922 -2.1010  0.7951  0.6869
19729TIP3    H280603   5.091   5.691   4.826 -0.8037  0.9314 -0.7936
19730TIP3   OH280604   4.561   5.446   1.690 -0.3480 -0.0931 -0.3260
19730TIP3    H180605   4.522   5.461   1.604  0.4459 -0.0689 -0.6949
19730TIP3    H280606   4.495   5.395   1.737 -1.1912  0.7132 -0.6078
19731TIP3   OH280607   2.901   0.990  12.918 -0.6450 -0.1702 -0.8349
19731TIP3    H180608   2.847   1.059  12.957 -0.1632 -1.1383  1.7355
19731TIP3    H280609   2.960   1.037  12.859  0.4805  1.8781  1.7166
19732TIP3   OH280610   4.644   0.734  16.198  0.6677  0.4515 -0.3245
19732TIP3    H180611   4.598   0.771  16.273 -0.7512 -1.6312 -0.0960
19732TIP3    H280612   4.737   0.741  16.221  0.2849  0.2224  1.4380
19733TIP3   OH280613   3.125   5.166   4.476  0.1721  0.3308  0.5024
19733TIP3    H180614   3.126   5.237   4.411 -0.3680  0.6490  0.8292
19733TIP3    H280615   3.107   5.211   4.559  0.4650 -0.1185  0.8082
19734TIP3   OH280616   3.218   1.870   6.554  0.4381 -0.0371  0.2462
19734TIP3    H180617   3.192   1.822   6.475 -1.3643  0.9155  0.2223
19734TIP3    H280618   3.274   1.941   6.521 -0.9829  0.8603 -0.3057
19735TIP3   OH280619   4.869   0.005   2.092  0.2706 -0.1886 -0.3263
19735TIP3    H180620   4.897   0.065   2.160 -1.0510 -1.5948  1.5560
19735TIP3    H280621   4.833  -0.070   2.139 -1.7018 -0.7689 -2.5559
19736TIP3   OH280622   0.468   2.678  13.890 -0.3773  0.2181  0.1506
19736TIP3    H180623   0.400   2.655  13.954 -1.7773  0.0865 -1.3131
19736TIP3    H280624   0.514   2.751  13.930 -2.0559  0.9994  0.7673
19737TIP3   OH280625   4.176   2.576   0.690 -0.3971  0.1522  0.4529
19737TIP3    H180626   4.110   2.568   0.621 -0.6979  1.2417  0.5880
19737TIP3    H280627   4.217   2.661   0.674 -0.1804  0.2290  1.3540
19738TIP3   OH280628   5.402   3.225   3.108 -0.0012  0.2637  0.2313
19738TIP3    H180629   5.428   3.290   3.173 -0.0527  1.2781 -0.7414
19738TIP3    H280630   5.340   3.270   3.052 -0.8193 -0.9368  0.1185
19739TIP3   OH280631   2.391   0.671   0.338  0.1342  0.3231 -0.1751
19739TIP3    H180632   2.457   0.637   0.399  0.2500  1.7222  0.5173
19739TIP3    H280633   2.429   0.753   0.306 -0.5469  0.2957 -1.0669
19740TIP3   OH280634   1.250   3.931   5.906 -0.2214  0.0290 -0.4190
19740TIP3    H180635   1.214   3.956   5.821 -0.4346 -1.1026 -0.6782
19740TIP3    H280636   1.344   3.923   5.890 -0.2831 -0.3548 -0.5929
19741TIP3   OH280637   5.651   5.946   6.005 -0.0016  0.7262 -0.1068
19741TIP3    H180638   5.602   5.950   6.087 -0.2224  0.4360 -0.2237
19741TIP3    H280639   5.639   5.856   5.974 -0.1138  0.9015 -0.5785
19742TIP3   OH280640   4.682   2.656  15.384 -0.3017 -0.2267 -0.2433
19742TIP3    H180641   4.603   2.637  15.436 -0.2082  0.1596  0.0421
19742TIP3    H280642   4.735   2.711  15.440  0.0233 -0.2045 -0.5682
19743TIP3   OH280643   0.048   3.437   3.615  0.0947 -0.2964 -0.2024
19743TIP3    H180644   0.005   3.353   3.598  2.1168 -1.4271 -0.1818
19743TIP3    H280645   0.098   3.421   3.695 -0.6901  1.4621  0.6835
19744TIP3   OH280646   2.455   5.793   2.721 -0.7555  0.2380 -0.5520
19744TIP3    H180647   2.545   5.823   2.715  0.1297 -2.1018 -0.0589
19744TIP3    H280648   2.448   5.723   2.657 -1.8103 -0.5283  0.3494
19745TIP3   OH280649   4.883   3.184  13.817 -0.1952 -0.1502 -0.2773
19745TIP3    H180650   4.870   3.158  13.726  1.2838  0.0828 -0.5717
19745TIP3    H280651   4.819   3.254  13.832  0.2970  0.5650 -1.4618
19746TIP3   OH280652   6.205   3.906  14.816 -0.3149 -0.3535 -0.4890
19746TIP3    H180653   6.154   3.871  14.888  1.2802 -0.4787  0.6291
19746TIP3    H280654   6.189   3.847  14.743 -2.1821 -0.0565 -0.3580
19747TIP3   OH280655   2.007   1.750   0.548  0.3865 -0.1013 -0.7777
19747TIP3    H180656   1.934   1.706   0.592 -0.4833  1.4111 -0.6352
19747TIP3    H280657   2.044   1.807   0.615  2.5363 -1.7351 -0.4886
19748TIP3   OH280658   6.620   6.167   4.167  0.3633  0.1217  0.4391
19748TIP3    H180659   6.569   6.111   4.108  2.0534  0.8437 -1.8482
19748TIP3    H280660   6.569   6.248   4.173  0.9430  0.6805 -1.4846
19749TIP3   OH280661   3.683   0.542  15.526 -0.1350 -0.4398 -0.0000
19749TIP3    H180662   3.710   0.613  15.467 -1.3962 -0.1591 -0.2678
19749TIP3    H280663   3.592   0.562  15.548 -0.3569 -1.7037  0.3316
19750TIP3   OH280664   4.950   6.183   1.533 -0.3462 -0.0037 -0.2941
19750TIP3    H180665   5.020   6.248   1.520  0.7852 -1.5018 -2.2547
19750TIP3    H280666   4.869   6.233   1.522  0.1590  2.1722  3.7623
19751TIP3   OH280667   2.989   5.576  16.042 -0.3723  0.4799  0.2144
19751TIP3    H180668   2.992   5.663  16.001 -1.5027  1.0593  1.3109
19751TIP3    H280669   2.918   5.531  15.997 -0.4544  0.4864  0.3370
19752TIP3   OH280670   3.527   0.513  13.968 -0.5669  0.2943 -0.0922
19752TIP3    H180671   3.557   0.478  13.885 -2.5860 -1.4489 -0.1810
19752TIP3    H280672   3.473   0.589  13.945 -2.1459 -0.9103 -0.5433
19753TIP3   OH280673   0.150   5.741   1.128  0.6765  0.3840 -0.1108
19753TIP3    H180674   0.104   5.796   1.064 -1.3386  0.0684  0.9748
19753TIP3    H280675   0.133   5.651   1.100 -0.3003  0.2406  0.8692
19754TIP3   OH280676   6.377   2.564  15.841  0.2617 -0.7178 -0.2343
19754TIP3    H180677   6.407   2.619  15.913 -0.1179 -0.0658 -0.5690
19754TIP3    H280678   6.458   2.539  15.796  0.3775  3.0927 -2.6471
19755TIP3   OH280679   4.342   0.524  15.778 -0.0554  0.3721 -0.3598
19755TIP3    H180680   4.405   0.458  15.749 -0.2366 -0.0161  0.1271
19755TIP3    H280681   4.293   0.482  15.848  1.1619  1.6981  1.3697
19756TIP3   OH280682   1.260   0.340  16.281  0.4690 -0.6241 -0.5246
19756TIP3    H180683   1.169   0.331  16.307  0.6952 -1.4612  0.0319
19756TIP3    H280684   1.308   0.348  16.364  1.1248 -2.5508 -0.6496
19757TIP3   OH280685   6.543   3.648  11.740 -0.4565  0.4885 -0.3041
19757TIP3    H180686   6.542   3.667  11.646 -0.2094  2.1673  0.0022
19757TIP3    H280687   6.569   3.556  11.745  3.0161  1.2157 -1.7997
19758TIP3   OH280688   2.871   1.158  14.174  0.0301  0.2512  0.4636
19758TIP3    H180689   2.816   1.157  14.252 -0.8773  0.1319 -0.1589
19758TIP3    H280690   2.845   1.080  14.125 -2.5495  2.4582 -2.0440
19759TIP3   OH280691   5.237   5.170   2.759 -0.0734  0.0317  0.2858
19759TIP3    H180692   5.284   5.230   2.702  0.5403  0.3188  1.0696
19759TIP3    H280693   5.173   5.226   2.804  1.8794  0.5810  2.5672
19760TIP3   OH280694   1.208   3.345   3.948 -0.3274  0.1248  0.2582
19760TIP3    H180695   1.139   3.307   4.003 -1.1941  0.8014 -0.3380
19760TIP3    H280696   1.161   3.394   3.881  0.7276 -0.0288 -0.6197
19761TIP3   OH280697   5.572   0.097  14.641  0.7878 -0.0810  0.1000
19761TIP3    H180698   5.501   0.050  14.684  1.7409 -1.3181  0.3821
19761TIP3    H280699   5.639   0.107  14.708  0.9769  0.8824 -0.2163
19762TIP3   OH280700   3.237   4.193   2.663 -0.1892 -0.6264  0.1305
19762TIP3    H180701   3.292   4.266   2.633 -1.1282  0.7837  1.6617
19762TIP3    H280702   3.266   4.177   2.753 -0.6768 -1.4907  0.1428
19763TIP3   OH280703   6.208   3.985   2.041  0.1529 -0.1588 -0.1924
19763TIP3    H180704   6.220   3.908   1.986  1.3872 -0.2529  0.1715
19763TIP3    H280705   6.216   4.059   1.981  2.2281 -0.2323 -0.1008
19764TIP3   OH280706   5.318   3.687   3.390  0.4011  0.3051 -0.0467
19764TIP3    H180707   5.404   3.722   3.415  0.7259  0.6486 -1.5453
19764TIP3    H280708   5.281   3.654   3.472  1.1781  1.8205  0.9759
19765TIP3   OH280709   3.236   1.034  14.956 -0.2586  0.4816 -0.3901
19765TIP3    H180710   3.168   1.077  14.905 -1.2235 -1.0131 -0.4298
19765TIP3    H280711   3.195   1.018  15.041 -0.3555 -1.3719 -0.7490
19766TIP3   OH280712   0.662   5.688   5.386 -0.1586  0.0341  0.2181
19766TIP3    H180713   0.655   5.783   5.398  1.4208  0.3831 -1.2025
19766TIP3    H280714   0.700   5.656   5.468 -0.5437  0.6624  0.6456
19767TIP3   OH280715   0.772   0.212  12.732 -0.4713  0.5408  0.2231
19767TIP3    H180716   0.779   0.306  12.715  0.4907  0.4110 -0.1415
19767TIP3    H280717   0.690   0.187  12.690  0.8084  0.6355 -2.5099
19768TIP3   OH280718   6.256   3.046   5.001  0.5799 -0.1188  0.3661
19768TIP3    H180719   6.322   3.088   5.056 -0.3959  0.3482  1.1995
19768TIP3    H280720   6.179   3.103   5.006 -0.7250 -1.8482  1.3948
19769TIP3   OH280721   6.168   4.174  11.794 -0.4834 -0.1368  0.5812
19769TIP3    H180722   6.168   4.269  11.784 -0.3212 -0.2785 -1.0130
19769TIP3    H280723   6.082   4.146  11.762 -0.1778 -0.5976  0.1512
19770TIP3   OH280724   1.492   6.191  12.609 -0.1064  0.1064  0.8149
19770TIP3    H180725   1.405   6.188  12.569  0.3965 -0.0742 -0.3131
19770TIP3    H280726   1.522   6.100  12.608 -0.4985 -0.0776  2.6151
19771TIP3   OH280727   0.646   1.925  10.334  0.1346 -0.2769 -0.8660
19771TIP3    H180728   0.571   1.939  10.275  0.0296  0.8864 -0.4863
19771TIP3    H280729   0.655   2.008  10.381  0.8964 -0.8238 -0.0150
19772TIP3   OH280730   5.542   2.710   1.128 -0.3891  0.3466 -0.6020
19772TIP3    H180731   5.457   2.746   1.105 -0.4557  1.4693  1.1565
19772TIP3    H280732   5.589   2.784   1.168  0.7982 -0.6527 -0.0836
19773TIP3   OH280733   6.211   5.815   3.427  0.1040  0.2658 -0.4340
19773TIP3    H180734   6.140   5.875   3.404 -0.5393 -1.2246 -2.6215
19773TIP3    H280735   6.288   5.872   3.435 -1.2034  1.8892  1.8430
19774TIP3   OH280736   1.461   1.087   3.344 -0.2145 -0.6199  0.0477
19774TIP3    H180737   1.493   1.134   3.421  3.3386  0.2348 -1.7322
19774TIP3    H280738   1.368   1.107   3.341 -0.0031  1.3584  2.6836
19775TIP3   OH280739   5.186   3.023   0.576 -0.2187 -0.1485  0.5995
19775TIP3    H180740   5.129   3.058   0.507  1.2301  0.3845 -0.3855
19775TIP3    H280741   5.237   2.955   0.532  1.1548  0.6110  0.9444
19776TIP3   OH280742   0.426   4.645  16.407 -0.8392  0.0562 -0.3599
19776TIP3    H180743   0.420   4.689  16.492  0.3808 -3.1732  1.5607
19776TIP3    H280744   0.488   4.699  16.358  1.3060  0.1735  2.2004
19777TIP3   OH280745   3.529   3.710   0.403  0.2097 -0.2668 -0.4275
19777TIP3    H180746   3.621   3.687   0.416  0.1947  0.4906  1.3844
19777TIP3    H280747   3.529   3.806   0.400 -0.4083 -0.2902 -1.4474
19778TIP3   OH280748   2.159   4.444   1.518  0.0845 -0.1560  0.1341
19778TIP3    H180749   2.225   4.374   1.510 -0.0926 -1.1537  4.7259
19778TIP3    H280750   2.208   4.520   1.549 -0.4262  0.2452 -0.0300
19779TIP3   OH280751   4.212   4.069  16.093 -0.4253 -0.2621  0.2891
19779TIP3    H180752   4.248   3.981  16.106 -1.6610 -1.1192 -1.6655
19779TIP3    H280753   4.231   4.090  16.002  0.0563  1.6293  0.7826
19780TIP3   OH280754   1.914   3.220  14.955 -0.0004  0.4272  0.6420
19780TIP3    H180755   1.889   3.310  14.972 -0.7944  0.1517  0.9900
19780TIP3    H280756   1.910   3.212  14.860  0.1370  0.7798  0.6065
19781TIP3   OH280757   5.606   0.157   3.742  0.3294  0.2856 -0.0161
19781TIP3    H180758   5.614   0.171   3.837  0.4370 -2.4468  0.4629
19781TIP3    H280759   5.694   0.130   3.715 -0.1378 -0.7326 -0.5366
19782TIP3   OH280760   5.799   0.885  16.668  0.3075  0.0656  0.3182
19782TIP3    H180761   5.830   0.831  16.741  0.3966  3.1162  2.7670
19782TIP3    H280762   5.878   0.905  16.618  0.4423 -1.1001  0.0340
19783TIP3   OH280763   0.141   0.951  16.341 -0.1742  0.3864 -0.3946
19783TIP3    H180764   0.049   0.925  16.345  0.3692 -1.6657  0.1015
19783TIP3    H280765   0.139   1.045  16.324 -2.3728  0.7471  1.3782
19784TIP3   OH280766   2.801   3.973   2.696  0.5853 -0.3372  0.1242
19784TIP3    H180767   2.742   4.036   2.737  0.5914  0.3512 -0.8918
19784TIP3    H280768   2.862   4.027   2.645  0.2365 -1.1865 -1.2238
19785TIP3   OH280769   0.439   1.043   2.398 -0.2920  0.1534 -0.1651
19785TIP3    H180770   0.397   1.104   2.458 -0.6127  0.5308 -0.7774
19785TIP3    H280771   0.368   0.992   2.360 -0.2826  1.2183 -1.6779
19786TIP3   OH280772   4.489   2.223  11.637  0.3283  0.5364 -0.3756
19786TIP3    H180773   4.405   2.252  11.671  0.9738  0.7883  1.0958
19786TIP3    H280774   4.487   2.247  11.544 -0.6741  1.8036 -0.0609
19787TIP3   OH280775   1.472   0.328  13.889 -0.1060 -0.1001 -0.4292
19787TIP3    H180776   1.529   0.370  13.825  1.3715 -0.8946  0.3110
19787TIP3    H280777   1.497   0.236  13.887  1.3093  0.0798  2.4691
19788TIP3   OH280778   4.753   6.361  10.986  0.3205 -0.7890 -0.2596
19788TIP3    H180779   4.779   6.441  10.940  2.3097  0.8002  3.1878
19788TIP3    H280780   4.836   6.316  11.004 -0.1391 -0.6870  2.5957
19789TIP3   OH280781   4.943   2.830  14.859 -0.2013 -0.4106  0.4661
19789TIP3    H180782   4.997   2.764  14.902  1.1288 -0.3289 -1.0030
19789TIP3    H280783   4.889   2.781  14.798 -0.1978 -0.2755  0.3537
19790TIP3   OH280784   4.219   3.191   3.867  0.0409  0.2972  0.4986
19790TIP3    H180785   4.174   3.236   3.938  1.5187 -0.5638  2.0545
19790TIP3    H280786   4.177   3.105   3.862  0.7430 -0.1085  1.2286
19791TIP3   OH280787   2.328   1.841  15.198 -0.4735 -0.0155  0.2674
19791TIP3    H180788   2.346   1.748  15.188  0.7454  0.2214  0.0291
19791TIP3    H280789   2.340   1.877  15.110 -2.4116  0.1567  0.0399
19792TIP3   OH280790   1.775   1.814  11.432 -0.7061 -0.4746 -0.0358
19792TIP3    H180791   1.806   1.879  11.368  1.2425 -1.1812  0.1107
19792TIP3    H280792   1.691   1.848  11.462 -0.7499  0.8728 -1.5380
19793TIP3   OH280793   0.391   3.764  16.156  0.3677  0.1801 -0.3477
19793TIP3    H180794   0.422   3.823  16.088  0.5145 -0.9351 -1.2761
19793TIP3    H280795   0.415   3.807  16.238  0.7145  1.2598 -1.0053
19794TIP3   OH280796   1.929   3.160   5.444 -0.0635  0.7301  0.1007
19794TIP3    H180797   1.887   3.246   5.440 -0.3345  0.5531 -1.7605
19794TIP3    H280798   1.958   3.152   5.534 -4.8354  0.4484  1.8829
19795TIP3   OH280799   5.753   5.257   2.376  0.4465  0.1457  0.0061
19795TIP3    H180800   5.723   5.316   2.445  0.8769  0.0888  0.2468
19795TIP3    H280801   5.689   5.185   2.377 -0.7776  1.1777 -1.1034
19796TIP3   OH280802   5.339   6.248   4.783  0.4560  0.0645 -0.0522
19796TIP3    H180803   5.297   6.323   4.824  0.2041  0.2922 -0.7019
19796TIP3    H280804   5.370   6.194   4.855  0.8367  0.9063  0.4223
19797TIP3   OH280805   1.180   2.432   1.404  0.2680 -0.6003  0.0874
19797TIP3    H180806   1.193   2.493   1.477 -0.0902  0.7518 -0.9261
19797TIP3    H280807   1.179   2.346   1.445  1.6365 -0.0046  1.4786
19798TIP3   OH280808   0.849   3.528  14.884 -0.0889  0.0034  0.1459
19798TIP3    H180809   0.902   3.551  14.808 -2.3327 -0.3559 -1.6531
19798TIP3    H280810   0.859   3.602  14.944 -0.6682  1.8254 -1.8721
19799TIP3   OH280811   1.376   4.756  12.823  0.4201  0.3150 -0.1644
19799TIP3    H180812   1.347   4.843  12.793 -0.2548 -0.0526 -0.6041
19799TIP3    H280813   1.365   4.700  12.747  0.2609 -0.2895  0.2981
19800TIP3   OH280814   1.736   1.519   5.737 -0.2848 -0.5080  0.4583
19800TIP3    H180815   1.694   1.467   5.668  0.7794 -2.2511  1.0533
19800TIP3    H280816   1.712   1.474   5.819  0.8541 -0.2056  0.9773
19801TIP3   OH280817   6.764   2.785  12.837  0.0635 -0.1796  0.0954
19801TIP3    H180818   6.719   2.771  12.920  1.8946  1.2030  1.4145
19801TIP3    H280819   6.805   2.701  12.818 -1.2656 -0.8280 -0.0296
19802TIP3   OH280820   2.237   5.960  13.929 -0.1481 -0.2762  0.1779
19802TIP3    H180821   2.201   6.002  14.007  0.7023  1.9710 -0.5312
19802TIP3    H280822   2.332   5.957  13.944  0.0951  0.7342 -0.9507
19803TIP3   OH280823   0.113   4.519   3.612  0.0605  0.5258  0.6470
19803TIP3    H180824   0.196   4.548   3.651 -0.2762 -1.2659  2.9775
19803TIP3    H280825   0.084   4.448   3.670 -1.5726 -0.9917 -1.8592
19804TIP3   OH280826   6.159   5.630   1.983  0.2683  0.0252  0.0903
19804TIP3    H180827   6.074   5.588   1.988  0.9358 -1.1701  3.1850
19804TIP3    H280828   6.222   5.561   2.004  1.7858  1.4671  0.5105
19805TIP3   OH280829   1.573   0.333  15.119  0.1150  0.3286 -0.0736
19805TIP3    H180830   1.585   0.279  15.041 -2.1770  1.0583 -1.0252
19805TIP3    H280831   1.514   0.283  15.174 -0.4500  0.9919 -0.0649
19806TIP3   OH280832   1.578   0.212   5.434 -0.0648 -0.1239 -0.0123
19806TIP3    H180833   1.630   0.133   5.420 -0.7954 -0.4247 -1.2460
19806TIP3    H280834   1.610   0.248   5.516 -0.1748 -2.0802  0.9553
19807TIP3   OH280835   4.581   3.219  14.667  0.5770  0.2180 -0.0839
19807TIP3    H180836   4.596   3.269  14.586 -1.0597  0.8047 -0.0756
19807TIP3    H280837   4.510   3.266  14.711  0.5640 -0.8292  1.0713
19808TIP3   OH280838   3.691   6.073  17.202  0.1389  0.0411  0.1637
19808TIP3    H180839   3.606   6.098  17.239  1.0674  0.9444  1.8141
19808TIP3    H280840   3.746   6.150  17.216  1.9713 -1.4374  1.5752
19809TIP3   OH280841   5.099   1.150  17.166 -0.1843 -0.3282 -0.3097
19809TIP3    H180842   5.179   1.104  17.139  0.0145 -0.4545  0.4542
19809TIP3    H280843   5.121   1.243  17.159  1.4687 -0.2126  3.5756
19810TIP3   OH280844   0.994   5.234   4.782 -0.4006 -0.5780 -0.3179
19810TIP3    H180845   1.040   5.171   4.837  1.0824  1.3573  0.8033
19810TIP3    H280846   0.924   5.267   4.839 -2.1501 -2.2102 -1.4118
19811TIP3   OH280847   5.197   0.579   1.705 -0.4029 -0.0195  0.1550
19811TIP3    H180848   5.181   0.538   1.789  1.1024  0.8309  0.9024
19811TIP3    H280849   5.166   0.516   1.640 -2.1874 -0.4156  1.3299
19812TIP3   OH280850   1.046   4.295  16.391 -0.2491 -0.2448 -0.9342
19812TIP3    H180851   1.110   4.227  16.416 -0.6204 -0.2996 -0.0949
19812TIP3    H280852   1.084   4.336  16.314  0.2130 -1.0999 -1.1786
19813TIP3   OH280853   5.934   4.146  12.712 -0.3329 -0.0550  0.6342
19813TIP3    H180854   5.947   4.084  12.640 -0.5659 -0.1567  0.6749
19813TIP3    H280855   5.851   4.117  12.752  0.1210 -0.4001  1.3417
19814TIP3   OH280856   5.474   4.406  14.494 -0.1444  0.2801  0.3189
19814TIP3    H180857   5.447   4.450  14.575 -0.2931  0.3195  0.2467
19814TIP3    H280858   5.445   4.464  14.424 -1.3505 -0.4758  0.1727
19815TIP3   OH280859   4.749   4.666   1.489 -0.1039  0.0682  0.2188
19815TIP3    H180860   4.776   4.605   1.558 -1.4266 -0.7294  0.0612
19815TIP3    H280861   4.739   4.612   1.411 -1.7049  0.3956  0.1719
19816TIP3   OH280862   4.635   1.971   4.834  0.0542  0.1143 -0.0314
19816TIP3    H180863   4.596   1.993   4.749 -0.3181 -1.9942 -0.4664
19816TIP3    H280864   4.718   1.929   4.812  0.7196  0.9842  0.7431
19817TIP3   OH280865   4.135   6.185   3.536 -0.3094  0.1354 -0.8515
19817TIP3    H180866   4.120   6.194   3.631 -1.2435  1.8018 -1.1148
19817TIP3    H280867   4.148   6.275   3.505 -0.4707 -0.3400 -2.3807
19818TIP3   OH280868   2.825   4.045  13.984 -0.8865 -0.1805  0.6057
19818TIP3    H180869   2.740   4.086  14.000 -1.3886 -1.9142  2.9292
19818TIP3    H280870   2.807   3.951  13.985  1.0449 -0.5924  1.1979
19819TIP3   OH280871   2.763   4.821   5.615 -0.1341 -0.2607  0.2339
19819TIP3    H180872   2.762   4.754   5.547 -1.6956 -0.7788  0.7249
19819TIP3    H280873   2.855   4.845   5.624  0.6235 -3.0184  0.7025
19820TIP3   OH280874   2.750   4.583   1.347  0.0032 -0.6403 -0.1868
19820TIP3    H180875   2.671   4.634   1.365  0.4151 -0.0174 -0.1006
19820TIP3    H280876   2.767   4.595   1.254  0.1773 -0.5097 -0.1388
19821TIP3   OH280877   5.075   6.056   4.839 -0.3730  0.2167 -0.1291
19821TIP3    H180878   5.080   5.961   4.848  3.4424  0.3079 -0.0037
19821TIP3    H280879   5.063   6.072   4.746 -2.0398 -0.3325 -0.0378
19822TIP3   OH280880   3.659   2.762  11.516  0.0044  0.1865  0.4192
19822TIP3    H180881   3.676   2.839  11.570 -0.5397 -0.4241  1.5040
19822TIP3    H280882   3.601   2.708  11.569  1.7058 -1.7761  0.4059
19823TIP3   OH280883   0.842   5.634   5.865  0.2252 -0.2009 -0.1880
19823TIP3    H180884   0.839   5.714   5.813  2.0689 -0.9651 -1.5579
19823TIP3    H280885   0.934   5.611   5.869 -0.1069 -1.4296  1.5329
19824TIP3   OH280886   3.939   4.776  12.262  0.1937 -0.4543 -0.4118
19824TIP3    H180887   3.983   4.849  12.304 -2.8697  0.0907  2.2998
19824TIP3    H280888   3.881   4.817  12.197 -1.5479 -0.3560  1.1312
19825TIP3   OH280889   6.263   0.501  10.574  0.1573 -0.1215 -0.1491
19825TIP3    H180890   6.351   0.538  10.561 -0.0894  0.8584  0.7492
19825TIP3    H280891   6.249   0.509  10.669 -0.7606 -0.5875 -0.2438
19826TIP3   OH280892   0.123   6.323   6.041  0.0517 -0.3615  0.1563
19826TIP3    H180893   0.188   6.295   5.977  0.1350  1.7973 -0.7979
19826TIP3    H280894   0.173   6.342   6.120  0.5494  0.6850 -0.3831
19827TIP3   OH280895   1.113   2.200  15.793  0.3951 -0.6100  0.6540
19827TIP3    H180896   1.031   2.226  15.751  0.6089 -1.2344 -0.1928
19827TIP3    H280897   1.181   2.247  15.745  0.7663 -2.4232 -0.7283
19828TIP3   OH280898   2.750   1.379   4.908 -0.2271 -0.1150  0.2450
19828TIP3    H180899   2.766   1.409   4.997 -0.4368 -0.2921  0.3435
19828TIP3    H280900   2.833   1.393   4.862 -0.4809  1.1648  0.1365
19829TIP3   OH280901   0.560   3.032  14.259  0.5922 -0.2495 -0.0665
19829TIP3    H180902   0.554   3.066  14.348  0.5437  0.1244 -0.2151
19829TIP3    H280903   0.475   3.049  14.220  0.0560 -1.8571  0.3282
19830TIP3   OH280904   4.422   1.911  17.195  0.1409 -0.2875  0.5494
19830TIP3    H180905   4.336   1.952  17.199  0.5932  0.6724  0.6852
19830TIP3    H280906   4.410   1.836  17.136 -0.1695  1.4217 -1.6930
19831TIP3   OH280907   4.514   4.692  16.949  0.4292  0.3147  0.3515
19831TIP3    H180908   4.438   4.725  16.900  0.8400 -1.4066 -1.5830
19831TIP3    H280909   4.504   4.597  16.947  2.5538  0.0540  0.1472
19832TIP3   OH280910   4.380   0.136   0.257  0.4387  0.1869  0.0301
19832TIP3    H180911   4.464   0.130   0.302  0.4323  1.6956  0.2853
19832TIP3    H280912   4.397   0.193   0.182 -0.3505  0.4812  0.0655
19833TIP3   OH280913   3.130   5.260  10.485  0.5140  0.4497 -0.3062
19833TIP3    H180914   3.139   5.280  10.578  1.1713  1.1437 -0.5068
19833TIP3    H280915   3.146   5.166  10.479  2.8678  0.7777  0.0090
19834TIP3   OH280916   5.204   3.233   2.557 -0.4771  0.3369 -0.0456
19834TIP3    H180917   5.244   3.319   2.565  0.0730  0.1520 -0.7172
19834TIP3    H280918   5.272   3.172   2.587 -0.2716  0.0267 -1.0973
19835TIP3   OH280919   3.893   5.561   0.494  0.5783 -0.5179 -0.0910
19835TIP3    H180920   3.905   5.563   0.589  0.0760  0.8017 -0.0321
19835TIP3    H280921   3.964   5.506   0.462  2.1417  0.8656  0.8656
19836TIP3   OH280922   5.584   6.036  10.358 -0.2153 -0.1672  0.0983
19836TIP3    H180923   5.622   6.070  10.439 -0.2720 -1.5442  0.7187
19836TIP3    H280924   5.496   6.007  10.382 -0.5002  0.0566 -0.6234
19837TIP3   OH280925   4.532   5.825  14.655  0.1943  0.5134  0.0557
19837TIP3    H180926   4.606   5.885  14.668  0.4308  0.7755 -2.1615
19837TIP3    H280927   4.495   5.850  14.571 -1.7497 -0.3712  0.5941
19838TIP3   OH280928   3.424   3.003   3.471 -0.1748 -0.9571 -0.2656
19838TIP3    H180929   3.459   3.045   3.549 -1.8669 -1.2719  0.7098
19838TIP3    H280930   3.446   3.062   3.399 -1.3205  0.9477  0.8792
19839TIP3   OH280931   5.415   2.650  13.165  0.2399 -1.1034 -0.4567
19839TIP3    H180932   5.491   2.662  13.107  2.5417  1.0792  2.6576
19839TIP3    H280933   5.423   2.559  13.195  1.2066 -1.1298 -0.7316
19840TIP3   OH280934   6.727   1.951  15.047 -0.2134 -0.0795 -0.8296
19840TIP3    H180935   6.679   1.959  14.964 -1.0212 -1.6427 -0.5524
19840TIP3    H280936   6.676   2.001  15.110 -0.4897 -0.2334 -0.9318
19841TIP3   OH280937   3.339   4.499   3.793  0.1319  0.0759  0.2931
19841TIP3    H180938   3.433   4.480   3.785 -0.5137 -3.3351 -0.9480
19841TIP3    H280939   3.310   4.515   3.703 -0.5975  0.6196  0.6110
19842TIP3   OH280940   0.461   0.649   4.183 -0.1216  0.1872 -0.2671
19842TIP3    H180941   0.499   0.642   4.270 -2.8910  0.7148  1.0805
19842TIP3    H280942   0.493   0.572   4.137  0.0831 -1.0298  1.7947
19843TIP3   OH280943   5.055   0.200  11.202 -0.6955  0.0976 -0.4113
19843TIP3    H180944   5.118   0.153  11.258 -0.7906 -0.6110 -0.8835
19843TIP3    H280945   4.979   0.214  11.259 -2.0425 -3.3273 -1.1045
19844TIP3   OH280946   4.827   0.049   4.183  0.3993  0.0807 -0.0841
19844TIP3    H180947   4.855   0.122   4.127  0.0711  0.1447 -0.1661
19844TIP3    H280948   4.763   0.087   4.242 -0.3277 -0.2921 -0.6122
19845TIP3   OH280949   5.777   4.597   0.472  0.5319  0.1389 -0.0142
19845TIP3    H180950   5.755   4.631   0.559 -0.2008 -0.7320  0.1544
19845TIP3    H280951   5.693   4.584   0.429  0.8358 -0.5087 -0.4333
19846TIP3   OH280952   4.625   4.514  13.548 -0.0527  0.3517  0.2959
19846TIP3    H180953   4.669   4.533  13.631  0.2827 -0.9181  0.4274
19846TIP3    H280954   4.533   4.532  13.566 -0.1073 -0.7232  1.2257
19847TIP3   OH280955   5.505   6.719   1.667  0.5463  0.0563  0.4985
19847TIP3    H180956   5.482   6.750   1.755  0.6578  3.4027 -0.5187
19847TIP3    H280957   5.425   6.729   1.616  1.7165  3.2554 -0.9357
19848TIP3   OH280958   0.422   6.180   1.771  0.2636 -0.2117 -0.1210
19848TIP3    H180959   0.418   6.249   1.838 -0.8731  0.4379 -0.8076
19848TIP3    H280960   0.439   6.227   1.690 -2.9724 -0.3567 -1.0173
19849TIP3   OH280961   0.403   4.344   6.093 -0.0943 -0.2504 -0.2823
19849TIP3    H180962   0.360   4.269   6.134 -0.0177 -0.9216 -1.3792
19849TIP3    H280963   0.392   4.416   6.156 -0.0638 -1.2067  0.8418
19850TIP3   OH280964   1.313   4.960   2.423  0.4861 -0.2025  0.5314
19850TIP3    H180965   1.378   5.029   2.436  1.4259 -0.8306 -0.5734
19850TIP3    H280966   1.263   4.988   2.347 -0.2856  0.0825  1.1345
19851TIP3   OH280967   3.994   5.822   2.105  0.4859 -0.1555 -0.8507
19851TIP3    H180968   4.070   5.766   2.122 -0.1116 -0.4675  0.9495
19851TIP3    H280969   3.961   5.845   2.191 -1.8298 -0.5176 -1.5794
19852TIP3   OH280970   1.011   0.906   5.734 -0.4773  0.0042  0.0024
19852TIP3    H180971   1.058   0.833   5.775  0.1589 -0.2239 -1.1065
19852TIP3    H280972   0.920   0.894   5.764 -0.0851 -0.2564  1.1755
19853TIP3   OH280973   1.399   4.872   0.119 -0.1155 -0.5661 -0.2469
19853TIP3    H180974   1.442   4.957   0.110  0.5532 -0.8518  0.1496
19853TIP3    H280975   1.337   4.868   0.047  0.1990  0.0576 -0.5554
19854TIP3   OH280976   5.099   4.675  16.205  0.1584  0.5810 -0.0472
19854TIP3    H180977   5.128   4.723  16.282  0.3119 -0.3991  0.5169
19854TIP3    H280978   5.005   4.692  16.199  0.7030  3.6228 -1.7670
19855TIP3   OH280979   1.953   3.497   2.385  0.1386  0.0552 -0.0603
19855TIP3    H180980   2.039   3.516   2.422 -0.5177  1.1228  0.9982
19855TIP3    H280981   1.963   3.515   2.291  0.8006  1.1671  0.2059
19856TIP3   OH280982   0.422   1.995   6.253 -0.2742 -0.0855  0.4581
19856TIP3    H180983   0.498   1.952   6.292  0.3253 -0.0849 -0.6757
19856TIP3    H280984   0.430   2.087   6.278 -0.0569 -0.1349  0.5655
19857TIP3   OH280985   1.715   2.991  12.192 -0.2364  0.3081  0.4828
19857TIP3    H180986   1.804   2.963  12.169  0.0547  1.3354  0.3126
19857TIP3    H280987   1.680   2.918  12.243  1.2747  0.5415  1.9499
19858TIP3   OH280988   4.066   2.656   3.577  0.3567  0.5790 -0.4090
19858TIP3    H180989   3.989   2.625   3.625 -1.0780  0.2369 -2.7557
19858TIP3    H280990   4.072   2.749   3.600 -0.9282  0.6710 -0.3293
19859TIP3   OH280991   4.557   4.825   0.839 -0.0686  0.2116 -0.3667
19859TIP3    H180992   4.520   4.885   0.903 -2.2006 -0.8845 -0.4842
19859TIP3    H280993   4.601   4.882   0.775 -1.9945  1.6857 -0.4701
19860TIP3   OH280994   6.615   0.683  16.606 -0.0800 -0.1220 -0.3382
19860TIP3    H180995   6.629   0.598  16.647  0.2448  0.4748  0.8251
19860TIP3    H280996   6.643   0.746  16.671 -3.0047  0.9944 -0.0081
19861TIP3   OH280997   4.289   0.391   2.736  0.3830  0.5375  0.7268
19861TIP3    H180998   4.218   0.406   2.798 -2.1469  0.6223 -1.9576
19861TIP3    H280999   4.292   0.295   2.726 -1.1004  0.5970 -0.8691
19862TIP3   OH281000   6.486   0.929  16.040 -0.5646 -0.8456 -0.2405
19862TIP3    H181001   6.560   0.896  15.990 -1.1825 -2.1020 -0.3623
19862TIP3    H281002   6.413   0.928  15.978 -0.5034  1.3557 -0.4292
19863TIP3   OH281003   3.016   6.776  12.031  0.5343  0.4122 -0.2332
19863TIP3    H181004   2.995   6.736  12.115  0.5541  2.1029  0.6143
19863TIP3    H281005   2.931   6.787  11.989  0.6249 -1.7978 -1.1501
19864TIP3   OH281006   4.643   5.269   2.735 -0.7589 -0.0923  0.0275
19864TIP3    H181007   4.668   5.239   2.823 -0.9656 -1.8825 -0.4769
19864TIP3    H281008   4.707   5.226   2.677 -0.8398  0.7899 -0.7249
19865TIP3   OH281009   4.900   5.962   6.076 -0.1709  0.6970  0.3783
19865TIP3    H181010   4.827   5.980   6.016  0.4644 -0.3260 -0.7292
19865TIP3    H281011   4.895   5.869   6.094  0.5224  0.7262  0.7711
19866TIP3   OH281012   1.119   4.450  17.110 -0.5333  0.0370 -0.3323
19866TIP3    H181013   1.076   4.416  17.188 -0.0227  0.7152  0.2525
19866TIP3    H281014   1.049   4.459  17.046 -1.1290  0.3899  0.3554
19867TIP3   OH281015   1.940   4.827   2.899 -0.0376  0.2321 -0.0436
19867TIP3    H181016   1.976   4.808   2.812 -0.1022 -1.3468  0.2607
19867TIP3    H281017   1.994   4.778   2.960  0.5423  1.9966  0.9342
19868TIP3   OH281018   4.860   0.446   2.992 -0.4958 -0.1656  0.2308
19868TIP3    H181019   4.804   0.393   2.936 -0.9120  0.3291  0.1752
19868TIP3    H281020   4.807   0.522   3.014 -0.0156  0.0747  0.5700
19869TIP3   OH281021   4.935   6.013  17.107  0.5351  0.4151 -0.5485
19869TIP3    H181022   4.952   6.091  17.159 -0.4893  0.1046  0.2818
19869TIP3    H281023   5.012   6.004  17.050  0.1736  2.6611 -1.4757
19870TIP3   OH281024   0.681   5.955  10.932  0.2413 -0.5287  0.2436
19870TIP3    H181025   0.704   6.047  10.945 -0.9411 -0.3686  1.4811
19870TIP3    H281026   0.647   5.951  10.843  1.8945 -0.1389 -0.4439
19871TIP3   OH281027   3.732   3.906  15.704  0.8082 -0.1248 -0.1235
19871TIP3    H181028   3.727   3.987  15.755  2.1430 -0.1029  0.0177
19871TIP3    H281029   3.825   3.886  15.701  0.7314 -0.3821 -2.1669
19872TIP3   OH281030   4.673   1.770  17.016  0.2442  0.9432  0.3023
19872TIP3    H181031   4.636   1.769  17.104  1.3494  2.7003  0.8439
19872TIP3    H281032   4.727   1.849  17.013 -0.0384  1.1350 -2.0857
19873TIP3   OH281033   1.374   1.886   4.283 -0.1157  0.4534  0.1345
19873TIP3    H181034   1.433   1.877   4.208 -0.0127  0.3495  0.2290
19873TIP3    H281035   1.292   1.847   4.253 -0.1798  0.7248 -0.0459
19874TIP3   OH281036   1.752   2.639  14.043  0.3537  0.6965 -0.1836
19874TIP3    H181037   1.798   2.678  13.968  0.5277 -1.6723 -1.4049
19874TIP3    H281038   1.673   2.601  14.005  0.6934 -0.9865  0.6930
19875TIP3   OH281039   4.733   3.403  11.518  0.5877 -0.1341  0.3646
19875TIP3    H181040   4.685   3.464  11.462  1.0536 -0.5968 -0.5744
19875TIP3    H281041   4.669   3.370  11.580 -0.8392 -2.1475 -1.9885
19876TIP3   OH281042   2.945   4.713  14.798  0.1170 -0.0904 -0.5081
19876TIP3    H181043   2.985   4.734  14.882  2.1750  1.4314 -1.7790
19876TIP3    H281044   2.965   4.620  14.785  0.2311 -0.2121  0.4315
19877TIP3   OH281045   4.809   5.930  11.825  0.1591 -0.3937  0.1276
19877TIP3    H181046   4.836   5.863  11.762  2.2362  0.6787 -0.2273
19877TIP3    H281047   4.888   5.982  11.839 -1.1826  1.5435  0.9293
19878TIP3   OH281048   1.937   3.891   5.767  0.0163  0.5415  0.2736
19878TIP3    H181049   1.940   3.986   5.754 -2.0773  1.0991  2.8957
19878TIP3    H281050   1.942   3.880   5.862 -0.9865 -1.9030  0.1201
19879TIP3   OH281051   3.619   3.912   1.584  0.5754 -0.3543  0.0398
19879TIP3    H181052   3.580   3.997   1.606 -0.6943  0.3331 -3.9353
19879TIP3    H281053   3.711   3.932   1.567  0.5198  0.0214  0.1634
19880TIP3   OH281054   5.916   4.352   3.752 -0.2502  0.5806 -0.7845
19880TIP3    H181055   6.008   4.329   3.765 -0.1517  0.3627 -1.7898
19880TIP3    H281056   5.917   4.427   3.692 -0.6716  1.7101  0.5681
19881TIP3   OH281057   3.669   0.582   0.162  0.0314  0.1057  0.3852
19881TIP3    H181058   3.711   0.667   0.159  0.9864 -0.3803 -2.5088
19881TIP3    H281059   3.738   0.522   0.190  0.3374 -0.1815 -0.9355
19882TIP3   OH281060   3.391   2.545  13.313 -0.7564  0.3205  0.7050
19882TIP3    H181061   3.410   2.478  13.378  0.0435 -1.0204 -0.8468
19882TIP3    H281062   3.376   2.497  13.232  0.4824  2.0090 -0.6187
19883TIP3   OH281063   1.518   0.752  14.815  0.7240  0.1408  0.2236
19883TIP3    H181064   1.571   0.811  14.869 -0.0696  0.0889  1.0863
19883TIP3    H281065   1.498   0.803  14.737 -0.4495  1.2656  1.2176
19884TIP3   OH281066   3.823   3.979  14.676  0.3516  0.3140  0.3565
19884TIP3    H181067   3.806   3.962  14.583  2.0188 -0.3154  0.1419
19884TIP3    H281068   3.736   3.992  14.714 -0.4446 -0.6725 -1.0450
19885TIP3   OH281069   2.726   6.198   2.932 -0.4654 -0.6005 -0.2770
19885TIP3    H181070   2.814   6.230   2.913 -1.2199  2.4820  0.8191
19885TIP3    H281071   2.717   6.208   3.027 -1.7912 -1.4631 -0.2838
19886TIP3   OH281072   0.098   6.466   3.718 -0.7494 -0.1443  0.2778
19886TIP3    H181073   0.011   6.459   3.758 -0.0157 -1.3312  1.7651
19886TIP3    H281074   0.107   6.387   3.665 -0.2686 -0.4293  0.7822
19887TIP3   OH281075   1.236   6.746  16.473 -0.4014  0.0458 -0.3968
19887TIP3    H181076   1.310   6.730  16.414 -0.1642  1.2089 -0.4494
19887TIP3    H281077   1.215   6.839  16.459 -0.5032  0.2788  1.1631
19888TIP3   OH281078   0.601   2.488   3.856 -0.7815  0.1122 -0.1384
19888TIP3    H181079   0.691   2.485   3.889 -0.7146 -0.2018 -0.3390
19888TIP3    H281080   0.571   2.576   3.876 -0.9144 -0.2189  1.1950
19889TIP3   OH281081   6.522   6.600  14.585 -0.0888  0.3398 -0.1449
19889TIP3    H181082   6.432   6.626  14.604  0.2819  0.9117  0.8855
19889TIP3    H281083   6.558   6.674  14.536 -0.5502 -0.4427 -1.7353
19890TIP3   OH281084   1.916   0.138  11.924  0.4256 -0.2197 -0.7793
19890TIP3    H181085   2.005   0.171  11.911  0.1160  0.1883 -1.9807
19890TIP3    H281086   1.895   0.161  12.015  0.7140  1.7302 -1.1642
19891TIP3   OH281087   3.236   3.545   5.867  0.0926 -0.1839 -0.6159
19891TIP3    H181088   3.198   3.633   5.864  0.5176  0.0863  1.1133
19891TIP3    H281089   3.329   3.559   5.851  0.1915 -0.2956 -0.1383
19892TIP3   OH281090   5.224   0.799  14.247 -0.3793  0.2012  0.0694
19892TIP3    H181091   5.252   0.881  14.205  2.2037 -0.0758  1.0750
19892TIP3    H281092   5.291   0.736  14.223 -2.1660 -1.6240 -0.4395
19893TIP3   OH281093   5.036   2.508   1.472  0.4067  0.3390 -0.1354
19893TIP3    H181094   5.116   2.492   1.422 -1.0615 -0.1932 -2.4552
19893TIP3    H281095   4.965   2.500   1.408 -1.5067  1.1770  1.7437
19894TIP3   OH281096   1.722   4.916  16.823 -0.3326 -0.2267  0.0751
19894TIP3    H181097   1.768   4.946  16.901  0.0487 -0.9610  0.1466
19894TIP3    H281098   1.639   4.882  16.855  0.4628 -2.0054  0.4059
19895TIP3   OH281099   0.347   5.155  15.071  0.4039 -0.0615  0.2021
19895TIP3    H181100   0.258   5.153  15.108 -0.7180 -0.3612 -2.3426
19895TIP3    H281101   0.403   5.129  15.144 -1.6228 -0.2980  1.7807
19896TIP3   OH281102   0.669   0.002   4.154  0.0257  0.4835 -0.3707
19896TIP3    H181103   0.682  -0.037   4.240 -0.6802  0.3423 -0.3174
19896TIP3    H281104   0.592   0.058   4.165 -1.6913 -1.4941 -1.5133
19897TIP3   OH281105   4.103   3.513  13.391  0.1755  0.2847 -0.0233
19897TIP3    H181106   4.097   3.553  13.478 -1.3166 -0.8826  0.4510
19897TIP3    H281107   4.142   3.427  13.407  1.4049  0.6869 -0.7493
19898TIP3   OH281108   6.487   2.208  15.498  0.2484 -0.1262 -0.0782
19898TIP3    H181109   6.492   2.113  15.505 -0.7394 -0.0986  1.7542
19898TIP3    H281110   6.393   2.226  15.486  0.3610  0.6301  0.1171
19899TIP3   OH281111   2.388   0.646  14.842 -0.2130 -0.2422  0.2232
19899TIP3    H181112   2.418   0.731  14.810 -0.5312 -0.7413 -1.5123
19899TIP3    H281113   2.330   0.614  14.773  0.8005 -2.3697  0.2911
19900TIP3   OH281114   1.872   4.883  11.824  0.1565 -0.2566 -0.5854
19900TIP3    H181115   1.820   4.927  11.892  0.2793  1.3622 -1.5013
19900TIP3    H281116   1.808   4.857  11.758  0.2771  0.0268 -0.8154
19901TIP3   OH281117   6.367   0.965  11.999  0.0198  0.0304  0.0548
19901TIP3    H181118   6.424   0.949  11.924 -1.5306  0.3075 -1.2509
19901TIP3    H281119   6.318   0.883  12.010  0.9786 -0.3922  1.4998
19902TIP3   OH281120   3.530   2.880  11.101  0.6434 -0.3459  0.4856
19902TIP3    H181121   3.586   2.803  11.114  0.6727 -0.5351 -0.7113
19902TIP3    H281122   3.579   2.951  11.142  1.0900 -0.7682  0.7035
19903TIP3   OH281123   3.913   4.393  10.638 -1.0312 -0.3512  0.2732
19903TIP3    H181124   3.843   4.336  10.671 -1.4933 -0.5006 -0.9182
19903TIP3    H281125   3.889   4.411  10.548  0.3062 -0.1176 -0.0605
19904TIP3   OH281126   6.571   6.219  13.432 -1.1137  0.0259  0.2543
19904TIP3    H181127   6.541   6.307  13.454 -1.7996 -0.6661  2.2678
19904TIP3    H281128   6.663   6.216  13.460 -1.6614 -0.4874  2.1550
19905TIP3   OH281129   3.433   1.487   2.086  0.2200 -0.2243 -0.0478
19905TIP3    H181130   3.455   1.578   2.103  1.7712  0.0226 -2.8056
19905TIP3    H281131   3.387   1.489   2.002  0.3779 -1.9972 -0.2129
19906TIP3   OH281132   0.292   5.886   0.265 -0.4522 -0.3803 -0.1391
19906TIP3    H181133   0.362   5.933   0.220 -0.9677  1.1065  0.5333
19906TIP3    H281134   0.228   5.867   0.197  0.8111 -2.2738 -0.8761
19907TIP3   OH281135   4.199   3.375   4.728  0.3358 -0.0573 -0.1510
19907TIP3    H181136   4.294   3.373   4.742  0.5437 -1.2544 -1.4699
19907TIP3    H281137   4.171   3.284   4.741 -0.4768  0.1135 -0.6538
19908TIP3   OH281138   1.507   1.291  14.525 -0.1390 -0.2357 -0.4025
19908TIP3    H181139   1.413   1.293  14.541 -0.6747  0.5245 -3.0874
19908TIP3    H281140   1.540   1.372  14.563 -0.8630  0.2469 -0.7706
19909TIP3   OH281141   1.977   5.097  12.802 -0.0102  0.4769 -0.0856
19909TIP3    H181142   2.025   5.129  12.725 -0.4989  1.9707  0.1919
19909TIP3    H281143   1.903   5.050  12.766 -1.3731  2.8615 -0.6426
19910TIP3   OH281144   1.956   1.593  16.953  0.3853  0.3839  0.0610
19910TIP3    H181145   1.969   1.606  17.047  1.5482  0.7440 -0.1335
19910TIP3    H281146   2.030   1.540  16.925  0.6351  1.1737 -0.8359
19911TIP3   OH281147   3.182   3.990   4.968 -0.1367  0.3712 -0.2975
19911TIP3    H181148   3.149   4.016   5.054 -0.0594 -0.1157 -0.1142
19911TIP3    H281149   3.205   3.897   4.979  0.3593  0.4434 -0.6943
19912TIP3   OH281150   3.926   3.768   3.223  0.2793  0.2997 -0.1670
19912TIP3    H181151   3.921   3.850   3.273  3.1507 -0.0625  0.8737
19912TIP3    H281152   4.007   3.727   3.252  0.3798 -1.5564 -2.7812
19913TIP3   OH281153   2.379   1.538   4.519 -0.2348  0.0655 -0.5869
19913TIP3    H181154   2.314   1.468   4.521 -0.2166  0.0605 -0.1020
19913TIP3    H281155   2.344   1.602   4.457  1.6107 -2.1841 -4.3472
19914TIP3   OH281156   3.919   5.944   4.611 -0.3821  0.5816 -0.0666
19914TIP3    H181157   3.840   5.921   4.661 -0.1106 -0.3059 -0.0346
19914TIP3    H281158   3.988   5.949   4.677  0.2830 -2.0331 -0.4835
19915TIP3   OH281159   1.824   6.684   1.762  0.1241  0.2322 -0.5570
19915TIP3    H181160   1.854   6.598   1.792  0.8104  1.0810  1.2575
19915TIP3    H281161   1.758   6.663   1.695  0.8456 -1.6881 -0.7443
19916TIP3   OH281162   5.544   2.235  17.031 -0.4425  0.4339  0.0596
19916TIP3    H181163   5.455   2.268  17.039 -0.2163  1.0795  0.0066
19916TIP3    H281164   5.553   2.211  16.939 -0.3932  0.8857 -0.0577
19917TIP3   OH281165   1.328   4.380   3.270  0.1038  0.0288  0.0353
19917TIP3    H181166   1.419   4.398   3.291  0.3500 -1.1223  0.0433
19917TIP3    H281167   1.279   4.407   3.348  0.6690 -1.1884  0.8521
19918TIP3   OH281168   5.691   3.520   1.776  0.1446 -0.1241  0.5432
19918TIP3    H181169   5.702   3.538   1.683  1.1820 -1.3143  0.4019
19918TIP3    H281170   5.639   3.593   1.809 -1.9594 -0.6394 -1.3393
19919TIP3   OH281171   1.586   4.511   3.330 -0.3065 -0.3738  0.3445
19919TIP3    H181172   1.672   4.482   3.297 -0.2494  0.8927 -0.7403
19919TIP3    H281173   1.563   4.584   3.272 -2.2278 -0.8356  0.4792
19920TIP3   OH281174   5.585   4.706  14.437 -0.3863  0.1966 -1.0620
19920TIP3    H181175   5.502   4.663  14.413  1.1186 -3.1116 -0.8985
19920TIP3    H281176   5.626   4.726  14.353 -0.3955 -0.2223 -1.1695
19921TIP3   OH281177   2.364   3.806   2.525 -0.3282 -0.3099  0.3407
19921TIP3    H181178   2.323   3.738   2.472  0.6356 -2.3737  2.0527
19921TIP3    H281179   2.457   3.782   2.526  0.0893  1.2417  0.7283
19922TIP3   OH281180   1.598   1.745   0.848  0.0492 -0.1097 -0.5486
19922TIP3    H181181   1.547   1.719   0.924 -0.0637  2.0829  0.2086
19922TIP3    H281182   1.534   1.748   0.776  0.1481 -2.1273 -0.7760
19923TIP3   OH281183   2.818   2.907  16.547 -0.1384  0.0843 -0.0242
19923TIP3    H181184   2.742   2.953  16.512 -1.7080 -2.5715 -0.3696
19923TIP3    H281185   2.821   2.932  16.639 -0.4819  1.3819 -0.3449
19924TIP3   OH281186   5.274   2.942  15.595 -0.2157  0.1453  0.3612
19924TIP3    H181187   5.188   2.983  15.605  0.1901  0.5568  3.1070
19924TIP3    H281188   5.335   3.015  15.589  0.0556 -0.1322 -0.3547
19925TIP3   OH281189   1.468   6.507  13.626 -0.3208  0.0423 -0.8691
19925TIP3    H181190   1.437   6.427  13.667 -0.3330  0.7956  0.6690
19925TIP3    H281191   1.563   6.496  13.620 -0.2950  0.0164 -0.4211
19926TIP3   OH281192   5.530   2.711  16.953 -0.3125 -0.1687 -0.0859
19926TIP3    H181193   5.563   2.630  16.913  0.4697  0.5775 -1.0000
19926TIP3    H281194   5.552   2.779  16.890 -0.3678  0.8614  0.9802
19927TIP3   OH281195   6.058   4.993   4.748 -0.2119 -0.7856 -0.4304
19927TIP3    H181196   5.989   5.059   4.756 -1.5009 -2.1207 -0.1058
19927TIP3    H281197   6.139   5.044   4.749 -1.1246  0.7533  0.3950
19928TIP3   OH281198   3.685   1.810   2.413  0.0713  0.3194 -0.5812
19928TIP3    H181199   3.753   1.775   2.355 -0.9291 -1.2894 -0.8597
19928TIP3    H281200   3.636   1.733   2.442 -0.5559  1.2565  1.0266
19929TIP3   OH281201   5.916   5.421   2.614 -0.1933 -0.3378  0.1721
19929TIP3    H181202   5.843   5.368   2.646  1.9279 -1.1331  4.4737
19929TIP3    H281203   5.986   5.359   2.599  0.4398  0.6688 -1.2455
19930TIP3   OH281204   2.875   2.986  16.172  0.4488 -0.4252  0.6034
19930TIP3    H181205   2.942   3.052  16.151  0.0816  0.1910  1.3222
19930TIP3    H281206   2.793   3.025  16.141 -0.2282  0.8221  3.5853
19931TIP3   OH281207   1.816   2.735   4.023 -0.5994  0.0193  0.0818
19931TIP3    H181208   1.866   2.756   3.945 -1.2378  0.3011 -0.2615
19931TIP3    H281209   1.770   2.654   4.002 -0.7917  0.1076  0.1578
19932TIP3   OH281210   4.775   2.766   5.633  0.2845 -0.4628  0.1617
19932TIP3    H181211   4.698   2.737   5.584  0.1398  2.2167 -1.3642
19932TIP3    H281212   4.739   2.804   5.714  0.1606 -0.7575  0.2480
19933TIP3   OH281213   2.244   1.967  15.441  0.1153  0.5631  0.0935
19933TIP3    H181214   2.327   2.011  15.460  0.2185 -0.5340  2.5362
19933TIP3    H281215   2.265   1.907  15.369  1.1062  1.1986 -0.1695
19934TIP3   OH281216   1.777   4.223  16.902 -0.4236  0.0299 -0.4528
19934TIP3    H181217   1.682   4.223  16.889 -0.5381 -1.0388  0.2633
19934TIP3    H281218   1.801   4.130  16.903  0.1718  0.1283  2.2648
19935TIP3   OH281219   6.181   2.552   1.981 -0.0437  0.2855  0.0449
19935TIP3    H181220   6.219   2.519   1.899  1.4421  0.4760  0.6403
19935TIP3    H281221   6.125   2.480   2.011  0.3246 -0.2509 -0.5259
19936TIP3   OH281222   3.165   2.087   4.676 -0.1309  0.1442  0.3809
19936TIP3    H181223   3.160   2.182   4.679 -0.5353  0.1266  0.3060
19936TIP3    H281224   3.074   2.058   4.668  0.1377 -0.1535 -2.2603
19937TIP3   OH281225   3.497   5.722  11.196 -0.0448  0.4394  0.2721
19937TIP3    H181226   3.465   5.773  11.270 -1.3209  0.2043 -0.1016
19937TIP3    H281227   3.454   5.637  11.205 -1.0719  0.7540 -1.3217
19938TIP3   OH281228   3.189   6.691   0.837 -0.0658 -0.1581  0.1023
19938TIP3    H181229   3.142   6.720   0.915 -1.7328 -0.4062 -0.7700
19938TIP3    H281230   3.273   6.735   0.842  0.1064 -0.6188  2.3409
19939TIP3   OH281231   4.547   0.174  11.641 -0.0051  0.1927 -0.2464
19939TIP3    H181232   4.506   0.258  11.619  0.6756  0.6270  0.1114
19939TIP3    H281233   4.512   0.153  11.727 -0.9862 -0.4258 -0.7754
19940TIP3   OH281234   6.657   3.428   0.345 -0.1151 -1.0019  0.7056
19940TIP3    H181235   6.724   3.416   0.413  0.3311 -0.3486  0.3999
19940TIP3    H281236   6.580   3.382   0.379  0.6283 -2.1864  0.8440
19941TIP3   OH281237   3.818   3.834   1.322  0.4287  0.6013 -0.4586
19941TIP3    H181238   3.838   3.900   1.388 -0.3912  1.9699 -1.5316
19941TIP3    H281239   3.865   3.756   1.351  3.0277  2.1627 -0.1383
19942TIP3   OH281240   5.201   4.314   3.237 -0.2438 -0.0007 -0.2433
19942TIP3    H181241   5.274   4.374   3.223  0.1967 -0.7667 -1.3982
19942TIP3    H281242   5.209   4.249   3.167 -0.8897 -1.2192  0.7621
19943TIP3   OH281243   5.859   3.998  15.971  0.1923  0.2822  0.1297
19943TIP3    H181244   5.846   4.079  16.019  0.6086  0.0997  0.5656
19943TIP3    H281245   5.842   3.929  16.035 -0.3746  0.0210 -0.2950
19944TIP3   OH281246   6.361   0.558   0.934  0.2345  0.5118 -0.3226
19944TIP3    H181247   6.317   0.477   0.961  0.9031 -0.5607 -2.2214
19944TIP3    H281248   6.346   0.619   1.005 -4.2218  0.2179 -0.7661
19945TIP3   OH281249   3.477   4.871  16.487 -0.1314 -0.2528 -0.2637
19945TIP3    H181250   3.551   4.899  16.433  0.0790  0.5158  0.4113
19945TIP3    H281251   3.400   4.886  16.431 -0.0513  1.9556  0.1377
19946TIP3   OH281252   2.541   2.215   5.528  0.5059  0.1626 -0.0840
19946TIP3    H181253   2.473   2.282   5.518 -1.2403 -1.5346 -0.1517
19946TIP3    H281254   2.566   2.193   5.438  0.7124  0.3470 -0.0733
19947TIP3   OH281255   0.428   3.632   4.748 -1.0346  0.3109 -0.0916
19947TIP3    H181256   0.334   3.650   4.748 -0.9209  0.9608 -0.3904
19947TIP3    H281257   0.458   3.665   4.663 -0.5735 -0.0867 -0.0848
19948TIP3   OH281258   2.437   4.835   1.796  0.2454 -0.0221 -0.4386
19948TIP3    H181259   2.492   4.893   1.744 -0.0918 -0.1376 -0.9189
19948TIP3    H281260   2.406   4.890   1.868 -0.0201  0.3741 -0.8540
19949TIP3   OH281261   5.467   3.397  12.630 -0.2180  0.9547 -0.2719
19949TIP3    H181262   5.437   3.399  12.539 -2.4208  1.4840  0.3915
19949TIP3    H281263   5.457   3.487  12.661  2.7008  1.3067 -0.0837
19950TIP3   OH281264   4.846   3.676  11.815 -0.1749 -0.3587 -0.2211
19950TIP3    H181265   4.849   3.766  11.782  0.0953  0.0174  0.7859
19950TIP3    H281266   4.773   3.676  11.877  1.5034 -0.0668  1.8622
19951TIP3   OH281267   4.580   1.791   1.184 -0.6715 -0.6215  0.0093
19951TIP3    H181268   4.641   1.780   1.111  0.0945  1.1766  0.3131
19951TIP3    H281269   4.567   1.886   1.190 -2.4639 -0.8853  0.8133
19952TIP3   OH281270   1.488   5.254   4.894 -0.5446 -0.5785  0.3122
19952TIP3    H181271   1.424   5.323   4.917  0.2171  0.1445  0.3132
19952TIP3    H281272   1.537   5.291   4.821  1.2298 -0.2567  1.6064
19953TIP3   OH281273   4.862   3.091   4.017 -0.7770  0.1255  0.1032
19953TIP3    H181274   4.924   3.128   3.955  0.0520  0.8209  1.3179
19953TIP3    H281275   4.829   3.166   4.066  0.1669 -0.5953  1.9205
19954TIP3   OH281276   2.431   3.230  14.156  0.3823 -0.7954  0.2988
19954TIP3    H181277   2.407   3.323  14.146  0.4092 -0.8876 -0.7466
19954TIP3    H281278   2.427   3.214  14.250  3.3289  1.0740  0.8797
19955TIP3   OH281279   5.047   1.417   4.211 -0.5242  0.0635  0.7732
19955TIP3    H181280   5.131   1.460   4.194 -0.5322 -0.1468  0.1998
19955TIP3    H281281   5.049   1.338   4.157 -1.5595  0.6391 -0.1281
19956TIP3   OH281282   0.399   3.674   3.678 -0.4975  0.1242 -0.0163
19956TIP3    H181283   0.474   3.655   3.735 -0.6665  1.2229  0.5986
19956TIP3    H281284   0.374   3.589   3.643 -0.4396 -0.6023  1.6154
19957TIP3   OH281285   2.398   6.585  14.050 -0.2304 -0.2918  0.0226
19957TIP3    H181286   2.358   6.529  14.116 -2.5660 -0.0477 -1.1036
19957TIP3    H281287   2.476   6.537  14.022 -0.0187 -1.0871  1.8599
19958TIP3   OH281288   4.045   3.623  15.323  0.0289  0.3056 -0.3573
19958TIP3    H181289   3.959   3.654  15.295  0.4372  1.2753 -0.5985
19958TIP3    H281290   4.107   3.677  15.273  0.7856 -0.6708 -0.5153
19959TIP3   OH281291   1.685   6.381  15.536 -0.3463 -0.2538 -0.3514
19959TIP3    H181292   1.701   6.293  15.572 -0.7730  0.3750  1.4769
19959TIP3    H281293   1.699   6.371  15.442 -1.3719 -2.5174 -0.3317
19960TIP3   OH281294   2.711   0.603  16.082  1.0763 -1.0751 -0.0696
19960TIP3    H181295   2.653   0.634  16.151  1.9033 -1.1778  0.6909
19960TIP3    H281296   2.700   0.507  16.082  1.2592 -1.0965  0.0903
19961TIP3   OH281297   5.559   1.269  15.657 -0.1139  0.2822 -0.0200
19961TIP3    H181298   5.597   1.265  15.745  0.4307  2.3138 -0.1136
19961TIP3    H281299   5.482   1.212  15.661  0.2948 -0.2084  1.5490
19962TIP3   OH281300   0.357   1.035  12.300  0.3318 -0.3567 -0.4935
19962TIP3    H181301   0.361   1.008  12.208 -1.4008 -0.1958 -0.6514
19962TIP3    H281302   0.366   1.130  12.297  0.2249 -0.3470 -0.4962
19963TIP3   OH281303   0.237   0.695  11.533 -0.0651  0.0518  0.7314
19963TIP3    H181304   0.150   0.734  11.540 -0.2257 -0.4475  1.7631
19963TIP3    H281305   0.257   0.665  11.622  0.2341 -1.8013  0.0887
19964TIP3   OH281306   5.014   2.695  10.970 -0.4764  0.0756  0.5034
19964TIP3    H181307   4.937   2.746  10.996 -1.0011 -0.3310 -0.2284
19964TIP3    H281308   5.023   2.629  11.038 -0.0995  0.8105  1.1852
19965TIP3   OH281309   5.577   6.166   4.097 -0.0201  0.0595 -0.5279
19965TIP3    H181310   5.520   6.109   4.148 -0.7571  0.9143 -0.3975
19965TIP3    H281311   5.591   6.243   4.151  0.0683  0.5015 -1.1649
19966TIP3   OH281312   5.793   4.304  17.203 -0.2835 -1.0400  0.4893
19966TIP3    H181313   5.717   4.339  17.248  0.1353  0.0594  0.3650
19966TIP3    H281314   5.773   4.211  17.192 -1.0674 -1.0143  1.5286
19967TIP3   OH281315   5.453   4.857  16.952 -0.0092  0.1817 -0.1434
19967TIP3    H181316   5.484   4.769  16.974 -0.1367 -0.1365 -1.1686
19967TIP3    H281317   5.521   4.916  16.986  1.2760 -0.4513 -1.5101
19968TIP3   OH281318   0.381   5.918   1.089 -0.0765  0.4686  0.3728
19968TIP3    H181319   0.321   5.854   1.127  0.7360 -0.2156  0.5428
19968TIP3    H281320   0.331   5.960   1.020 -1.1771  0.8503  1.3648
19969TIP3   OH281321   5.635   4.827  16.102  0.3475 -0.0341 -0.1179
19969TIP3    H181322   5.544   4.801  16.113 -0.2809  1.7778 -0.5505
19969TIP3    H281323   5.647   4.899  16.164  1.2181  0.2850 -0.6327
19970TIP3   OH281324   4.338   1.156  14.292 -0.0191  0.6441 -0.0347
19970TIP3    H181325   4.427   1.183  14.268 -0.0063  2.2430  1.5990
19970TIP3    H281326   4.300   1.233  14.334 -1.5629 -0.5677  0.9239
19971TIP3   OH281327   4.279   5.495   0.163  0.4399 -0.0343 -0.1262
19971TIP3    H181328   4.367   5.461   0.181 -0.5718 -2.2733  1.0270
19971TIP3    H281329   4.237   5.497   0.248 -1.1033 -0.4936 -0.8485
19972LIG      S81330   3.581   3.294  17.048  0.4534 -0.0025  0.1219
19972LIG     N181331   3.169   3.371  16.747 -0.2045 -0.5378 -0.5990
19972LIG     N281332   3.441   3.456  16.852 -0.5944 -1.0861  0.2655
19972LIG     N381333   2.838   3.389  16.375  0.3311 -0.8435  0.5575
19972LIG     C181334   3.170   3.518  16.798  0.1959  1.0499  0.7412
19972LIG     C281335   3.276   3.588  16.716  0.4466 -0.0635  0.2514
19972LIG     C381336   3.415   3.528  16.729 -0.5168 -0.0375 -0.7124
19972LIG     C481337   3.383   3.322  16.871  0.6674 -0.3606  0.3771
19972LIG     C581338   3.259   3.283  16.812  0.1078 -0.3532  0.4871
19972LIG     C681339   3.148   3.345  16.599 -0.7722  0.5140 -0.2895
19972LIG     C781340   3.006   3.389  16.561  0.5872  0.3737 -0.7819
19972LIG     C881341   3.466   3.525  16.978 -0.0549  0.1742 -0.6932
19972LIG     C981342   3.446   3.231  16.960 -0.1293 -0.5877  0.5632
19972LIG    C1081343   3.215   3.154  16.828  0.6669  0.0324  0.1453
19972LIG    C1181344   2.975   3.409  16.412  0.1471  0.2307 -0.1450
19972LIG    C1281345   3.534   3.461  17.083 -0.1311  0.5772 -0.1086
19972LIG    C1381346   3.386   3.108  16.982 -0.7678 -0.2556 -0.0253
19972LIG    C1481347   3.274   3.066  16.915  0.5890  0.1810  0.8479
19972LIG    C1581348   3.417   3.656  17.010  0.4016  0.2840 -0.0088
19972LIG    C1681349   3.566   3.522  17.205 -0.0810  0.1571 -0.3202
19972LIG    C1781350   3.432   3.722  17.130  0.5073 -0.3870  0.0869
19972LIG    C1881351   3.506   3.651  17.231 -0.4725 -0.9350 -0.1266
19972LIG    C1981352   2.750   3.491  16.428 -0.4308 -0.2065 -0.0465
19972LIG    C2081353   2.799   3.250  16.371  0.2673 -0.4296  0.2777
19972LIG     H181354   3.174   3.529  16.909  0.9795 -0.4985  0.8920
19972LIG     H281355   3.075   3.565  16.766  0.4271 -0.6291 -2.9637
19972LIG     H381356   3.291   3.694  16.743  1.6846  0.0885 -0.9079
19972LIG     H481357   3.255   3.593  16.607  1.1380 -1.9606 -0.0067
19972LIG     H581358   3.429   3.444  16.657  1.1281  1.2505 -1.9743
19972LIG     H681359   3.492   3.605  16.709  3.0340 -2.7454  1.2770
19972LIG     H781360   3.155   3.238  16.572  2.0269  0.0657  1.8262
19972LIG     H881361   3.230   3.401  16.549 -1.0334  0.3671 -0.8878
19972LIG     H981362   2.971   3.484  16.606 -1.3490 -0.0429 -1.2965
19972LIG    H1081363   2.948   3.308  16.611  1.5160 -1.0941 -1.9800
19972LIG    H1181364   3.126   3.120  16.775  1.0206 -0.1334 -0.3474
19972LIG    H1281365   3.014   3.512  16.395 -0.4615  0.3117 -1.0963
19972LIG    H1381366   3.033   3.344  16.344  0.5574  1.3269 -0.8791
19972LIG    H1481367   3.433   3.033  17.043  0.5414 -0.7306 -1.5401
19972LIG    H1581368   3.221   2.976  16.940 -0.7243  0.6332 -0.2133
19972LIG    H1681369   3.373   3.717  16.933 -0.2688 -2.7298 -2.1793
19972LIG    H1781370   3.620   3.464  17.278  1.7325  0.2190 -1.5509
19972LIG    H1881371   3.393   3.821  17.148 -1.1997 -0.9229 -0.4783
19972LIG    H1981372   3.538   3.695  17.325  0.1054  1.9322 -1.5680
19972LIG    H2081373   2.730   3.475  16.536 -2.0711 -0.0388 -0.3061
19972LIG    H2181374   2.656   3.500  16.369 -0.3991  0.8937  0.0587
19972LIG    H2281375   2.799   3.591  16.422  1.0166 -0.8238  0.7726
19972LIG    H2381376   2.890   3.191  16.347  0.6777 -0.8823  2.6740
19972LIG    H2481377   2.719   3.241  16.294 -1.2084 -0.7550  1.7805
19972LIG    H2581378   2.754   3.212  16.466  2.4747 -1.5800  0.9304
   6.79884   6.79884  17.20980
